Title
81363
    1CHL1    C3    1   5.544   1.953  10.297  1.4471 -0.6166 -0.3915
    1CHL1    H3    2   5.512   2.059  10.284  0.8183 -0.9154 -1.4355
    1CHL1    O3    3   5.539   1.914  10.428  0.7172 -0.1090 -0.4491
    1CHL1   H3'    4   5.617   1.860  10.440 -0.5773 -1.8760  0.6311
    1CHL1    C4    5   5.438   1.869  10.224 -0.2229  0.5430  0.1595
    1CHL1   H4A    6   5.451   1.762  10.253  0.2983  0.5239 -0.1475
    1CHL1   H4B    7   5.332   1.881  10.256 -0.2063  0.2629  0.3258
    1CHL1    C5    8   5.449   1.886  10.071  0.6157 -0.7531  0.5214
    1CHL1    C6    9   5.340   1.914   9.995  0.6851 -0.5129 -0.4154
    1CHL1    H6   10   5.240   1.906  10.042  0.5139  0.5638 -0.5705
    1CHL1    C7   11   5.336   1.956   9.850  0.3161  0.7640  0.2779
    1CHL1   H7A   12   5.254   1.896   9.805  0.3508  0.8559  0.0952
    1CHL1   H7B   13   5.298   2.058   9.829  0.7900  1.1594  1.2617
    1CHL1    C8   14   5.465   1.919   9.774  0.0730 -0.4070 -0.9291
    1CHL1    H8   15   5.464   1.808   9.769  0.9354 -0.4306 -0.6804
    1CHL1   C14   16   5.457   1.989   9.642 -0.8701 -1.0243  0.2342
    1CHL1   H14   17   5.458   2.098   9.664 -0.5107 -0.9664 -0.0485
    1CHL1   C15   18   5.334   1.962   9.551 -0.0793  0.4169 -0.8523
    1CHL1  H15A   19   5.317   1.852   9.556  1.5254  0.1808  0.0171
    1CHL1  H15B   20   5.249   2.022   9.590  0.5303  1.1919 -0.6920
    1CHL1   C16   21   5.382   2.002   9.409 -0.0137  0.0620 -0.7260
    1CHL1  H16A   22   5.366   1.910   9.349 -1.4557 -0.1183 -0.0940
    1CHL1  H16B   23   5.330   2.083   9.355  0.0494 -1.8139 -3.8142
    1CHL1   C17   24   5.531   2.035   9.424 -0.4108  1.0309 -0.1955
    1CHL1   H17   25   5.543   2.138   9.464 -0.7436  0.2921  1.9214
    1CHL1   C13   26   5.575   1.957   9.551  0.1005 -0.9729 -0.6701
    1CHL1   C18   27   5.581   1.805   9.529 -0.2112 -0.1612 -0.2208
    1CHL1  H18A   28   5.666   1.794   9.458  0.7863  1.0248  0.7505
    1CHL1  H18B   29   5.602   1.748   9.622 -0.6015  0.0472 -0.0019
    1CHL1  H18C   30   5.489   1.762   9.482 -0.1181  0.3041 -0.8412
    1CHL1   C12   31   5.709   1.992   9.627  0.3155 -0.0155  0.8267
    1CHL1  H12A   32   5.798   1.938   9.588 -1.1017 -3.4035  1.9228
    1CHL1  H12B   33   5.729   2.101   9.634  1.3416 -0.1921  0.7301
    1CHL1   C11   34   5.713   1.931   9.774 -0.4557 -0.0249 -0.5047
    1CHL1  H11A   35   5.717   1.821   9.761  1.2732 -0.0499  0.0045
    1CHL1  H11B   36   5.797   1.963   9.840  0.1965 -0.2633 -1.2046
    1CHL1    C9   37   5.583   1.958   9.856 -0.1116  0.7624 -0.2367
    1CHL1    H9   38   5.587   2.068   9.874  1.2622  0.9239 -1.3891
    1CHL1   C10   39   5.590   1.890   9.993 -0.0085 -0.0335  0.5313
    1CHL1   C19   40   5.646   1.748   9.988  0.2418 -0.0437  0.0432
    1CHL1  H19A   41   5.626   1.688  10.080  1.0388  0.5837  0.6416
    1CHL1  H19B   42   5.583   1.689   9.917 -0.3304 -0.8420  1.1750
    1CHL1  H19C   43   5.756   1.744   9.969  0.3296  1.0529  0.2998
    1CHL1    C1   44   5.676   1.981  10.086  0.4165  0.2660 -0.4858
    1CHL1   H1A   45   5.782   1.979  10.053  1.0773 -0.7365  1.5774
    1CHL1   H1B   46   5.646   2.088  10.095  1.3296  0.3632  2.4052
    1CHL1    C2   47   5.680   1.939  10.236 -0.6888  0.2668 -0.1729
    1CHL1   H2A   48   5.751   2.004  10.291 -0.2361  0.3703 -0.8772
    1CHL1   H2B   49   5.719   1.835  10.235  1.6340  1.0806 -0.2472
    1CHL1   C20   50   5.612   2.026   9.294 -0.3533  0.3190  0.3579
    1CHL1   H20   51   5.722   2.027   9.311 -0.5137 -0.9406  1.6547
    1CHL1   C21   52   5.592   2.161   9.214  0.0328  0.0695 -0.1468
    1CHL1  H21A   53   5.661   2.161   9.127 -2.2965  3.8596 -2.2585
    1CHL1  H21B   54   5.635   2.246   9.272  0.8319  0.4664 -1.2719
    1CHL1  H21C   55   5.490   2.183   9.176  0.8632  0.2874 -2.3985
    1CHL1   C22   56   5.579   1.902   9.193 -0.2270  0.1039  0.1311
    1CHL1  H22A   57   5.560   1.808   9.249 -2.0189  0.0839 -0.4646
    1CHL1  H22B   58   5.485   1.933   9.144  0.9422  0.7946 -1.7903
    1CHL1   C23   59   5.682   1.881   9.081  0.2815 -0.1960  0.1270
    1CHL1  H23A   60   5.636   1.800   9.019 -1.9702 -0.1259  1.5890
    1CHL1  H23B   61   5.688   1.966   9.009  1.3882  0.4435  0.9516
    1CHL1   C24   62   5.818   1.818   9.127 -0.0013 -0.1356  0.0102
    1CHL1  H24A   63   5.866   1.871   9.212  0.9837  0.5599 -0.9476
    1CHL1  H24B   64   5.802   1.723   9.184 -0.7975 -0.0030  0.0212
    1CHL1   C25   65   5.909   1.797   9.007  0.2884  0.0527  0.4065
    1CHL1   H25   66   5.846   1.740   8.936 -1.7225 -1.5207  3.2709
    1CHL1   C26   67   5.954   1.925   8.932 -0.2088  0.0697  0.4020
    1CHL1  H26A   68   5.867   1.987   8.901  0.2779  0.2856 -0.5864
    1CHL1  H26B   69   6.025   1.983   8.994 -0.5747 -0.4448  1.3257
    1CHL1  H26C   70   6.000   1.907   8.832 -0.7177 -1.1701  0.3614
    1CHL1   C27   71   6.026   1.707   9.046 -0.1524  0.1073  0.4213
    1CHL1  H27A   72   5.981   1.612   9.080  1.2244 -0.7350 -0.0023
    1CHL1  H27B   73   6.094   1.682   8.961  0.5526  0.1165  0.9714
    1CHL1  H27C   74   6.080   1.746   9.135  0.7420 -1.6679  0.7001
    2CHL1    C3   75   2.670   0.202  10.086 -0.5333  0.1114 -1.3963
    2CHL1    H3   76   2.701   0.102  10.123 -1.3387  0.7524  1.2824
    2CHL1    O3   77   2.610   0.274  10.196 -0.2645 -0.2526  0.2127
    2CHL1   H3'   78   2.525   0.233  10.213 -0.9495  1.3314  0.8443
    2CHL1    C4   79   2.806   0.268  10.037  0.0026  0.3074  0.7165
    2CHL1   H4A   80   2.780   0.371  10.005 -0.1476  0.1740  0.3954
    2CHL1   H4B   81   2.873   0.286  10.123 -1.7080 -0.7146  2.3517
    2CHL1    C5   82   2.856   0.199   9.909 -0.5126  0.7220  0.2487
    2CHL1    C6   83   2.984   0.149   9.894 -0.3907  0.4011 -0.1780
    2CHL1    H6   84   3.058   0.166   9.973  1.3891 -0.4842 -1.5778
    2CHL1    C7   85   3.036   0.086   9.772 -0.0438  0.1860  0.5810
    2CHL1   H7A   86   3.135   0.128   9.747 -0.9601  1.5931 -0.8477
    2CHL1   H7B   87   3.031  -0.025   9.780 -1.2939 -0.0386 -2.1186
    2CHL1    C8   88   2.947   0.125   9.643  0.2841 -0.0162  0.0426
    2CHL1    H8   89   2.959   0.235   9.638  0.4385  0.1131  2.2153
    2CHL1   C14   90   2.998   0.042   9.527 -0.3902  1.4081  0.2395
    2CHL1   H14   91   2.977  -0.065   9.545 -0.9595  1.2689 -1.1197
    2CHL1   C15   92   3.149   0.047   9.490 -0.1714  0.0550 -0.8182
    2CHL1  H15A   93   3.184   0.152   9.490  0.5100 -0.1662 -1.5804
    2CHL1  H15B   94   3.216  -0.008   9.559  0.2363  0.5647 -0.8118
    2CHL1   C16   95   3.145   0.013   9.338 -0.3656 -0.2248 -0.2400
    2CHL1  H16A   96   3.201   0.089   9.279 -1.7854  0.6070 -0.5709
    2CHL1  H16B   97   3.195  -0.082   9.309  3.2491  0.9764  1.4567
    2CHL1   C17   98   2.993   0.007   9.295  0.1720  0.2117  0.3099
    2CHL1   H17   99   2.962  -0.098   9.313 -1.4920  0.5142 -0.5398
    2CHL1   C13  100   2.920   0.090   9.403  0.1363 -0.4196  0.0531
    2CHL1   C18  101   2.943   0.244   9.367  0.0374  1.3294  0.1588
    2CHL1  H18A  102   2.897   0.295   9.454 -0.7234  0.3211  0.3765
    2CHL1  H18B  103   3.050   0.269   9.384  0.5761 -1.1996  0.9377
    2CHL1  H18C  104   2.903   0.280   9.270  2.3214 -1.4686 -1.9994
    2CHL1   C12  105   2.770   0.050   9.430 -0.8156  0.0820  0.1854
    2CHL1  H12A  106   2.710   0.075   9.341  1.1671  0.1455 -1.1950
    2CHL1  H12B  107   2.764  -0.061   9.440 -0.8786 -0.0668 -1.3903
    2CHL1   C11  108   2.714   0.124   9.542  0.5528 -0.0956 -0.5218
    2CHL1  H11A  109   2.719   0.231   9.512 -2.3164  0.7546  1.5811
    2CHL1  H11B  110   2.612   0.089   9.566  0.5246 -0.1119 -0.6631
    2CHL1    C9  111   2.799   0.102   9.670 -0.0499 -0.6349 -0.2281
    2CHL1    H9  112   2.802  -0.006   9.700  0.5307 -0.2237  1.3078
    2CHL1   C10  113   2.756   0.187   9.796  1.1661  0.0714  0.1967
    2CHL1   C19  114   2.714   0.335   9.752 -0.0094 -0.9753  0.2792
    2CHL1  H19A  115   2.631   0.317   9.680 -0.6882  0.9898  0.4937
    2CHL1  H19B  116   2.676   0.412   9.823 -0.2492 -0.2504 -0.6108
    2CHL1  H19C  117   2.797   0.380   9.694 -0.8325 -0.2067 -0.3456
    2CHL1    C1  118   2.627   0.116   9.854  0.5615  0.5445  0.4321
    2CHL1   H1A  119   2.552   0.095   9.775  2.6031 -2.6020 -0.8236
    2CHL1   H1B  120   2.662   0.021   9.900  1.1650 -0.7004 -2.3867
    2CHL1    C2  121   2.570   0.185   9.977  0.2084 -0.2638 -0.5863
    2CHL1   H2A  122   2.483   0.137  10.025 -0.4486  1.0783 -0.3939
    2CHL1   H2B  123   2.535   0.285   9.944 -2.1111 -0.4256  1.1092
    2CHL1   C20  124   2.962   0.043   9.146 -0.6327  0.2225  0.3477
    2CHL1   H20  125   2.993   0.149   9.133 -2.5591  0.6245 -1.7743
    2CHL1   C21  126   2.812   0.033   9.108  0.4909 -0.3160  0.4307
    2CHL1  H21A  127   2.765   0.124   9.151 -2.5061 -1.3584 -0.4295
    2CHL1  H21B  128   2.783  -0.058   9.166  1.8489 -0.4282  0.9651
    2CHL1  H21C  129   2.788   0.035   9.000  1.8227  0.7811  0.1252
    2CHL1   C22  130   3.047  -0.038   9.043 -0.3277 -0.3113  0.1522
    2CHL1  H22A  131   3.153  -0.034   9.077  0.0549  0.7070 -1.0675
    2CHL1  H22B  132   3.019  -0.145   9.051  3.1620 -1.2782  1.1056
    2CHL1   C23  133   3.041   0.009   8.897 -0.2524  0.9303  0.5989
    2CHL1  H23A  134   2.943  -0.026   8.858 -0.0356  0.9011  0.0818
    2CHL1  H23B  135   3.046   0.120   8.899 -0.5941  0.9418  1.4657
    2CHL1   C24  136   3.148  -0.055   8.815  0.0283  1.2394 -0.9735
    2CHL1  H24A  137   3.250  -0.023   8.843  0.2728 -1.0525  1.1550
    2CHL1  H24B  138   3.153  -0.164   8.838  0.1941  1.0658 -1.7722
    2CHL1   C25  139   3.118  -0.072   8.662  0.1912  0.1927  0.2600
    2CHL1   H25  140   3.008  -0.078   8.654  0.3321 -0.4245 -1.7129
    2CHL1   C26  141   3.174   0.052   8.592  0.1863  0.3645 -0.0892
    2CHL1  H26A  142   3.282   0.058   8.620  0.0863  0.1927  0.3379
    2CHL1  H26B  143   3.161   0.040   8.482  1.7649 -0.7008 -0.2049
    2CHL1  H26C  144   3.121   0.134   8.643  1.3392  0.5981  0.7773
    2CHL1   C27  145   3.177  -0.203   8.600 -0.4483  0.5244  0.2462
    2CHL1  H27A  146   3.161  -0.204   8.490  1.3183  0.6898 -0.0411
    2CHL1  H27B  147   3.287  -0.203   8.614 -0.3238  0.1280 -0.6216
    2CHL1  H27C  148   3.143  -0.298   8.646  4.3694 -1.9307 -0.5872
    3CHL1    C3  149   3.734   1.149  10.211 -0.2874  1.1224 -0.4550
    3CHL1    H3  150   3.631   1.191  10.210 -1.1823 -0.7649  2.3571
    3CHL1    O3  151   3.792   1.155  10.340  0.3210  0.0145 -0.1897
    3CHL1   H3'  152   3.881   1.190  10.331 -0.2845  1.8498  0.4995
    3CHL1    C4  153   3.719   1.000  10.161 -0.5928  0.3135 -0.2929
    3CHL1   H4A  154   3.813   0.949  10.191 -2.0175 -1.7717  0.8688
    3CHL1   H4B  155   3.644   0.951  10.226 -1.2956  1.7889  0.0678
    3CHL1    C5  156   3.689   0.983  10.009 -0.9948  0.8614 -0.4431
    3CHL1    C6  157   3.595   0.900   9.961 -0.1134  0.3888  0.7540
    3CHL1    H6  158   3.554   0.835  10.039  0.2046 -0.8869 -0.1173
    3CHL1    C7  159   3.559   0.867   9.817 -0.2692 -0.3123 -0.0611
    3CHL1   H7A  160   3.561   0.757   9.802 -1.9776 -0.8362  2.7257
    3CHL1   H7B  161   3.461   0.918   9.803 -0.5220 -0.5438  0.8326
    3CHL1    C8  162   3.666   0.934   9.727 -0.3837  0.2477  0.6703
    3CHL1    H8  163   3.763   0.880   9.736 -0.1631  0.6565  0.7474
    3CHL1   C14  164   3.627   0.929   9.580  0.4459  0.3182  0.0379
    3CHL1   H14  165   3.529   0.981   9.577 -0.9199 -2.1164 -0.1554
    3CHL1   C15  166   3.598   0.790   9.520 -1.5662 -0.0873 -0.6215
    3CHL1  H15A  167   3.666   0.714   9.564  0.0892  1.1196 -1.0397
    3CHL1  H15B  168   3.497   0.754   9.548 -1.6196  1.8699  1.9642
    3CHL1   C16  169   3.625   0.814   9.367  0.0966  0.3693 -0.0970
    3CHL1  H16A  170   3.704   0.744   9.332  1.1595  0.6934  1.5517
    3CHL1  H16B  171   3.529   0.792   9.314  0.6034 -0.3060 -0.7513
    3CHL1   C17  172   3.678   0.954   9.345 -0.1333 -0.7940  0.2306
    3CHL1   H17  173   3.596   1.027   9.330 -0.4344 -1.6329 -2.8528
    3CHL1   C13  174   3.730   0.999   9.489  0.1133  0.3940  0.4839
    3CHL1   C18  175   3.868   0.931   9.504 -0.8955  0.6797 -0.3407
    3CHL1  H18A  176   3.929   0.969   9.588  0.0859  3.1902 -2.0409
    3CHL1  H18B  177   3.854   0.823   9.525 -2.0125  0.5975 -1.3324
    3CHL1  H18C  178   3.927   0.955   9.413 -0.2314  0.3658  0.0067
    3CHL1   C12  179   3.734   1.143   9.517 -0.2207  1.0985  0.2412
    3CHL1  H12A  180   3.804   1.187   9.443 -0.2689 -0.5232 -0.8378
    3CHL1  H12B  181   3.641   1.196   9.485 -0.8774  0.1537  0.5393
    3CHL1   C11  182   3.777   1.166   9.664  0.3369  0.2087 -0.0153
    3CHL1  H11A  183   3.886   1.146   9.668 -0.1188 -2.7042  0.3017
    3CHL1  H11B  184   3.753   1.271   9.691 -0.0020  0.0798  0.1965
    3CHL1    C9  185   3.700   1.076   9.770  0.7615 -0.4344  0.2158
    3CHL1    H9  186   3.600   1.123   9.783  1.7487  1.6860  0.6646
    3CHL1   C10  187   3.764   1.083   9.910 -0.0160 -0.4738 -0.1818
    3CHL1   C19  188   3.908   1.020   9.885  0.2573 -0.0147  0.1862
    3CHL1  H19A  189   3.903   0.912   9.860  1.7667 -0.3878  1.3369
    3CHL1  H19B  190   3.977   1.058   9.806 -2.0562  0.3497 -1.7668
    3CHL1  H19C  191   3.969   1.033   9.976  1.7555  2.0320 -1.0124
    3CHL1    C1  192   3.769   1.226   9.964  0.1926 -0.7445 -0.2414
    3CHL1   H1A  193   3.827   1.290   9.894  0.0968  0.4681  0.7661
    3CHL1   H1B  194   3.671   1.274   9.947  0.4503 -1.1414 -3.4623
    3CHL1    C2  195   3.816   1.235  10.110 -0.2100 -0.5721  0.5228
    3CHL1   H2A  196   3.806   1.337  10.151  1.2899 -0.5503  0.9253
    3CHL1   H2B  197   3.923   1.205  10.116 -0.6477 -2.2470  0.5607
    3CHL1   C20  198   3.768   0.966   9.217  0.3597 -0.6111  0.1865
    3CHL1   H20  199   3.855   0.900   9.239  0.7290  0.2069  1.2976
    3CHL1   C21  200   3.825   1.103   9.201 -0.5790 -0.0070  0.3046
    3CHL1  H21A  201   3.860   1.130   9.099 -0.1223 -2.3713 -0.2453
    3CHL1  H21B  202   3.915   1.116   9.264  0.1713  4.7963 -1.3790
    3CHL1  H21C  203   3.746   1.180   9.212 -3.9360 -1.9813 -5.6744
    3CHL1   C22  204   3.696   0.927   9.081 -0.3172  0.1653  0.1022
    3CHL1  H22A  205   3.630   0.840   9.098  1.0816 -0.4872  2.8589
    3CHL1  H22B  206   3.627   1.012   9.059  1.0218  1.2998  0.1227
    3CHL1   C23  207   3.779   0.900   8.957 -0.0570 -0.4978 -0.7795
    3CHL1  H23A  208   3.855   0.980   8.938  0.7949 -1.1474 -0.1984
    3CHL1  H23B  209   3.827   0.803   8.981  1.2573  0.7145  2.0165
    3CHL1   C24  210   3.691   0.878   8.834 -0.1834  0.0841 -0.1713
    3CHL1  H24A  211   3.642   0.778   8.832  0.4571 -0.2433  0.1655
    3CHL1  H24B  212   3.613   0.957   8.831 -0.9871 -0.6987 -0.2068
    3CHL1   C25  213   3.777   0.867   8.710 -0.8577 -0.4889  0.0813
    3CHL1   H25  214   3.860   0.798   8.737 -2.0636 -1.1900  2.1865
    3CHL1   C26  215   3.692   0.802   8.598 -0.4654  0.3548  0.1728
    3CHL1  H26A  216   3.753   0.776   8.508 -2.0841 -1.1515 -0.5375
    3CHL1  H26B  217   3.625   0.717   8.621 -0.2032 -0.4632 -1.8732
    3CHL1  H26C  218   3.620   0.881   8.568  0.8022  2.1861  1.6708
    3CHL1   C27  219   3.833   0.996   8.657 -0.8535  0.0509 -0.0094
    3CHL1  H27A  220   3.911   1.039   8.723  0.1132 -0.7362 -0.6064
    3CHL1  H27B  221   3.888   0.987   8.562  0.6813  0.2760  0.8291
    3CHL1  H27C  222   3.749   1.066   8.638 -0.4682  0.5692  0.1756
    4CHL1    C3  223   5.408   3.107  10.586  0.1756  0.1161  0.4013
    4CHL1    H3  224   5.518   3.092  10.593 -0.1514 -1.9799  2.0538
    4CHL1    O3  225   5.347   3.063  10.708 -0.4794 -0.3623 -0.1022
    4CHL1   H3'  226   5.252   3.072  10.694 -0.4881 -0.3078 -0.0080
    4CHL1    C4  227   5.383   3.254  10.566  0.6797  0.0025  0.1164
    4CHL1   H4A  228   5.273   3.264  10.574  0.7803  0.3046  1.4146
    4CHL1   H4B  229   5.415   3.306  10.660  0.6483  0.3520 -0.0630
    4CHL1    C5  230   5.440   3.308  10.434  0.0615  0.2485 -0.0588
    4CHL1    C6  231   5.530   3.407  10.440  0.9530  0.5738 -0.0511
    4CHL1    H6  232   5.547   3.451  10.539 -0.3161 -1.3798  1.1108
    4CHL1    C7  233   5.594   3.464  10.317  0.6423 -0.5901 -0.1452
    4CHL1   H7A  234   5.584   3.575  10.315  0.1616 -0.6353 -1.7576
    4CHL1   H7B  235   5.704   3.453  10.320  0.6807 -0.1654  0.1221
    4CHL1    C8  236   5.530   3.409  10.190  0.1058  0.6007  0.2725
    4CHL1    H8  237   5.432   3.460  10.184  0.8238  1.8049 -2.7899
    4CHL1   C14  238   5.608   3.446  10.062  0.1832  0.5847  0.4168
    4CHL1   H14  239   5.705   3.393  10.071  0.6395  1.2013 -0.6963
    4CHL1   C15  240   5.647   3.590  10.045 -0.0098  0.0490  0.3152
    4CHL1  H15A  241   5.561   3.656  10.070  1.9395  3.3146 -0.9397
    4CHL1  H15B  242   5.737   3.599  10.110  2.0698 -3.5745 -1.7070
    4CHL1   C16  243   5.695   3.602   9.902  0.0980 -0.0075 -0.2399
    4CHL1  H16A  244   5.639   3.685   9.854 -2.2834  0.8354  3.6125
    4CHL1  H16B  245   5.800   3.636   9.906 -0.3228  1.2608  0.5224
    4CHL1   C17  246   5.661   3.462   9.832 -0.4988 -0.3334  0.9256
    4CHL1   H17  247   5.747   3.393   9.847  0.5379  0.2614 -1.6748
    4CHL1   C13  248   5.555   3.398   9.925 -0.2970  0.8156 -0.1879
    4CHL1   C18  249   5.416   3.473   9.899 -0.1625  0.4022 -0.7166
    4CHL1  H18A  250   5.409   3.584   9.905 -0.1747  0.3060  2.6333
    4CHL1  H18B  251   5.376   3.434   9.803  1.6015 -1.0715 -0.9036
    4CHL1  H18C  252   5.334   3.434   9.963 -0.1078  2.3680  0.6402
    4CHL1   C12  253   5.540   3.240   9.927 -0.4411 -0.2330 -0.7461
    4CHL1  H12A  254   5.486   3.207   9.835 -1.8714  3.2854 -1.3088
    4CHL1  H12B  255   5.647   3.210   9.931 -0.1912  0.6612 -0.4905
    4CHL1   C11  256   5.472   3.189  10.054  0.1571 -0.2735 -0.1777
    4CHL1  H11A  257   5.364   3.193  10.030  0.2897  0.5374 -0.7205
    4CHL1  H11B  258   5.498   3.082  10.066 -2.3497 -0.9796 -0.5937
    4CHL1    C9  259   5.499   3.263  10.193  0.2743 -0.2247 -0.1484
    4CHL1    H9  260   5.599   3.223  10.218  1.2047  2.5652  1.1069
    4CHL1   C10  261   5.409   3.224  10.309  0.0210  0.4376  0.1072
    4CHL1   C19  262   5.262   3.250  10.270 -0.4419 -0.7117 -0.4794
    4CHL1  H19A  263   5.236   3.348  10.223 -0.3352  0.4117  1.6533
    4CHL1  H19B  264   5.226   3.170  10.203 -0.8362 -1.7592  0.9462
    4CHL1  H19C  265   5.190   3.237  10.354  0.9046  1.8355  1.2131
    4CHL1    C1  266   5.430   3.073  10.344  0.5482  0.4562 -0.7028
    4CHL1   H1A  267   5.409   3.005  10.259  2.3335  0.1802 -0.9529
    4CHL1   H1B  268   5.536   3.057  10.371  0.1335 -0.1859  0.6810
    4CHL1    C2  269   5.352   3.030  10.468 -0.4138  0.6133  0.3028
    4CHL1   H2A  270   5.375   2.921  10.480  0.4391  0.6341 -0.9418
    4CHL1   H2B  271   5.245   3.050  10.450 -0.3616  0.8499  0.2560
    4CHL1   C20  272   5.626   3.465   9.686 -0.0197 -0.1684  0.0081
    4CHL1   H20  273   5.561   3.376   9.672  3.0933 -2.2643 -2.5329
    4CHL1   C21  274   5.758   3.453   9.598 -1.1443 -0.7135  0.8237
    4CHL1  H21A  275   5.816   3.359   9.613  3.1262  1.5152 -0.0684
    4CHL1  H21B  276   5.821   3.543   9.615 -1.4667 -0.9263  3.5189
    4CHL1  H21C  277   5.728   3.462   9.491 -3.0690 -1.5162  1.2664
    4CHL1   C22  278   5.551   3.591   9.630  0.1439  0.1139 -0.4891
    4CHL1  H22A  279   5.476   3.631   9.702  0.2326 -1.3092  0.4335
    4CHL1  H22B  280   5.628   3.670   9.619  2.2309 -1.9496 -1.3186
    4CHL1   C23  281   5.474   3.559   9.494  0.0477  0.8070  0.1210
    4CHL1  H23A  282   5.552   3.514   9.429  0.5600  2.1728 -0.2481
    4CHL1  H23B  283   5.404   3.477   9.521  2.2969 -0.7800  1.4361
    4CHL1   C24  284   5.416   3.683   9.420 -0.7692  0.5468  0.3062
    4CHL1  H24A  285   5.347   3.735   9.490 -0.3119  0.0057  1.1895
    4CHL1  H24B  286   5.494   3.759   9.399 -2.8765  2.3048 -1.7350
    4CHL1   C25  287   5.336   3.648   9.296  0.9071  0.0167 -0.4668
    4CHL1   H25  288   5.239   3.601   9.323  0.1269  1.6739 -0.2779
    4CHL1   C26  289   5.300   3.780   9.235 -0.3585 -0.0396 -0.0348
    4CHL1  H26A  290   5.250   3.843   9.311 -1.7811 -0.5824 -0.4953
    4CHL1  H26B  291   5.395   3.824   9.198 -0.5769 -1.5235 -2.5882
    4CHL1  H26C  292   5.236   3.767   9.145 -0.3669 -3.0271  0.3000
    4CHL1   C27  293   5.413   3.557   9.199  0.8571  0.2764 -0.1213
    4CHL1  H27A  294   5.438   3.456   9.237  2.4105  1.1980  1.4737
    4CHL1  H27B  295   5.360   3.554   9.102 -3.6363  0.0490  2.0565
    4CHL1  H27C  296   5.518   3.592   9.192  1.5188 -1.8197 -1.4546
    5CHL1    C3  297   2.384   6.593  10.087 -0.4633  0.7765 -0.1536
    5CHL1    H3  298   2.443   6.686  10.080 -0.2552  0.5940 -0.9549
    5CHL1    O3  299   2.369   6.550  10.220 -0.0848  0.1060  0.3365
    5CHL1   H3'  300   2.304   6.482  10.200 -0.0331  0.3488 -0.7085
    5CHL1    C4  301   2.241   6.605  10.029  0.4711 -0.3427 -0.4765
    5CHL1   H4A  302   2.175   6.516  10.036  0.0318 -0.1481 -1.8949
    5CHL1   H4B  303   2.180   6.673  10.093 -0.7462 -2.5474  0.8267
    5CHL1    C5  304   2.230   6.646   9.884 -0.0559 -0.2483 -0.2550
    5CHL1    C6  305   2.160   6.747   9.826  0.1658 -0.1626 -0.8765
    5CHL1    H6  306   2.098   6.805   9.896 -0.9578 -1.4940 -0.7159
    5CHL1    C7  307   2.146   6.774   9.680  0.2757 -1.2545  0.4181
    5CHL1   H7A  308   2.039   6.786   9.654  0.6815  1.0870 -0.3992
    5CHL1   H7B  309   2.196   6.872   9.663 -0.0475 -0.9915  0.9598
    5CHL1    C8  310   2.207   6.667   9.587  0.0714 -0.4564  0.1861
    5CHL1    H8  311   2.129   6.589   9.574 -0.5676  0.1969  0.0173
    5CHL1   C14  312   2.241   6.736   9.447 -0.2157 -0.3587  0.2803
    5CHL1   H14  313   2.321   6.811   9.465  2.0199 -2.7378  0.9709
    5CHL1   C15  314   2.130   6.807   9.362 -0.2582  0.5399  0.1174
    5CHL1  H15A  315   2.039   6.743   9.364  0.4046 -0.4196  2.4822
    5CHL1  H15B  316   2.102   6.905   9.405 -0.6162  0.5612 -0.1591
    5CHL1   C16  317   2.183   6.791   9.214  0.0419 -0.4675 -0.3662
    5CHL1  H16A  318   2.110   6.738   9.148 -0.6533  1.6248 -1.3756
    5CHL1  H16B  319   2.202   6.896   9.182  2.6291 -0.9767 -0.6899
    5CHL1   C17  320   2.324   6.718   9.222  0.3870  0.3598 -0.4644
    5CHL1   H17  321   2.407   6.790   9.242  3.4191 -3.1222  0.5478
    5CHL1   C13  322   2.304   6.630   9.351  0.9453 -0.7210 -0.4756
    5CHL1   C18  323   2.201   6.516   9.322 -0.1633 -0.6299  0.5270
    5CHL1  H18A  324   2.178   6.482   9.425  0.2813 -0.0376  0.8258
    5CHL1  H18B  325   2.113   6.555   9.266  1.6943  2.1178 -0.6987
    5CHL1  H18C  326   2.246   6.430   9.267 -1.1753 -0.0538 -1.2845
    5CHL1   C12  327   2.429   6.583   9.408  0.0901 -0.5520 -0.2192
    5CHL1  H12A  328   2.478   6.502   9.349 -1.7991 -2.1525  0.3064
    5CHL1  H12B  329   2.500   6.668   9.416 -2.7068  1.9398 -0.1815
    5CHL1   C11  330   2.402   6.513   9.552 -0.2193 -0.3222 -0.0575
    5CHL1  H11A  331   2.340   6.422   9.534 -0.9708 -0.0781  1.2441
    5CHL1  H11B  332   2.500   6.486   9.598  0.5179 -0.3068 -1.5531
    5CHL1    C9  333   2.333   6.608   9.646 -0.2124  0.3052 -0.1557
    5CHL1    H9  334   2.396   6.699   9.641 -0.2474  0.3250 -0.2412
    5CHL1   C10  335   2.313   6.551   9.792  0.0105  0.2209 -0.2205
    5CHL1   C19  336   2.240   6.415   9.791 -0.0650 -0.4986 -0.9140
    5CHL1  H19A  337   2.136   6.426   9.756 -0.5596 -0.1086  0.5997
    5CHL1  H19B  338   2.290   6.342   9.724 -0.8693 -2.4819  0.5388
    5CHL1  H19C  339   2.246   6.366   9.891  3.2842  1.3994 -0.0019
    5CHL1    C1  340   2.456   6.532   9.858  0.3600 -0.2559  0.9190
    5CHL1   H1A  341   2.518   6.447   9.821 -0.9699 -0.9094  0.1439
    5CHL1   H1B  342   2.524   6.619   9.847 -1.4309  1.5360  2.9974
    5CHL1    C2  343   2.457   6.488  10.008 -0.1579 -0.3499 -0.1640
    5CHL1   H2A  344   2.563   6.492  10.040 -0.1054  0.9473 -0.4449
    5CHL1   H2B  345   2.408   6.389  10.027 -1.5185  0.1993 -0.6728
    5CHL1   C20  346   2.362   6.656   9.082  0.1193 -0.0962 -0.0927
    5CHL1   H20  347   2.310   6.559   9.071 -0.4788  0.4399 -2.6673
    5CHL1   C21  348   2.509   6.611   9.075  0.0089  0.6465 -0.8619
    5CHL1  H21A  349   2.519   6.505   9.107  1.6092  0.9464 -0.2935
    5CHL1  H21B  350   2.575   6.681   9.131  0.7741  0.3451 -1.3662
    5CHL1  H21C  351   2.543   6.603   8.969 -0.0720  0.5498 -0.8801
    5CHL1   C22  352   2.322   6.739   8.952  0.2014 -0.4265  0.9170
    5CHL1  H22A  353   2.230   6.800   8.966  0.6792  0.6754 -0.6082
    5CHL1  H22B  354   2.404   6.814   8.946 -1.4783  1.4185 -0.1943
    5CHL1   C23  355   2.323   6.665   8.819 -0.1385 -0.4279 -0.5556
    5CHL1  H23A  356   2.285   6.739   8.745  0.5240 -0.6469 -1.1257
    5CHL1  H23B  357   2.431   6.653   8.795  0.4712  0.3159  1.6207
    5CHL1   C24  358   2.226   6.543   8.811 -0.5983  0.6734 -0.2637
    5CHL1  H24A  359   2.211   6.521   8.703  3.0709 -1.5758 -0.4931
    5CHL1  H24B  360   2.292   6.465   8.855 -0.6273  1.3982  1.1271
    5CHL1   C25  361   2.093   6.540   8.881 -0.6585  0.3338 -0.7307
    5CHL1   H25  362   2.117   6.560   8.988 -1.1054  0.8487 -0.7204
    5CHL1   C26  363   1.991   6.639   8.826 -0.2185  1.3347 -0.9015
    5CHL1  H26A  364   1.945   6.616   8.727 -0.7705 -3.0008  0.1564
    5CHL1  H26B  365   1.903   6.613   8.888 -0.3258  0.8120 -1.2594
    5CHL1  H26C  366   2.030   6.741   8.840  4.3224 -0.4154  1.2287
    5CHL1   C27  367   2.037   6.401   8.884  0.4688  0.4411  0.4304
    5CHL1  H27A  368   2.111   6.332   8.930 -0.2420 -0.1028  0.7677
    5CHL1  H27B  369   1.951   6.395   8.954  2.6550  0.5877  3.2895
    5CHL1  H27C  370   2.002   6.366   8.785  3.2282 -0.3599 -0.3469
    6CHL1    C3  371   5.437   4.735  10.414  0.4368 -0.1301  0.4516
    6CHL1    H3  372   5.422   4.845  10.419 -1.0420 -0.2590 -0.4997
    6CHL1    O3  373   5.465   4.683  10.548  0.4458 -0.3076  0.0609
    6CHL1   H3'  374   5.507   4.760  10.587 -0.1174  0.6426 -1.1130
    6CHL1    C4  375   5.313   4.662  10.360  0.5042  0.2067 -0.7725
    6CHL1   H4A  376   5.331   4.556  10.388 -3.1416 -0.4892 -0.6072
    6CHL1   H4B  377   5.230   4.694  10.426 -0.2369 -1.4245 -0.8648
    6CHL1    C5  378   5.282   4.680  10.213 -0.0387 -0.0018  0.4153
    6CHL1    C6  379   5.160   4.719  10.165 -0.0482 -1.1254 -0.4056
    6CHL1    H6  380   5.069   4.724  10.228 -0.5024  2.1749 -1.1368
    6CHL1    C7  381   5.131   4.741  10.020  0.2034 -0.3578 -0.1988
    6CHL1   H7A  382   5.029   4.701  10.003 -0.0416 -0.8692  2.2154
    6CHL1   H7B  383   5.131   4.847   9.986 -0.6018  0.0286  0.9382
    6CHL1    C8  384   5.239   4.673   9.925  0.8058  0.2824 -0.1039
    6CHL1    H8  385   5.223   4.564   9.941 -1.6497  0.6577  0.4626
    6CHL1   C14  386   5.218   4.713   9.780 -0.6113  0.2836  0.5826
    6CHL1   H14  387   5.226   4.824   9.778 -0.5512  0.2711 -0.3750
    6CHL1   C15  388   5.083   4.701   9.714 -1.0998  0.1910  0.0350
    6CHL1  H15A  389   5.050   4.599   9.745  3.2407 -0.3433  4.0814
    6CHL1  H15B  390   5.016   4.782   9.747 -0.0773  0.7335  0.8586
    6CHL1   C16  391   5.113   4.712   9.558 -0.5523  0.2281 -0.1077
    6CHL1  H16A  392   5.086   4.617   9.508 -2.0372  0.4029  0.3124
    6CHL1  H16B  393   5.067   4.797   9.503  1.0391 -0.5150 -2.7920
    6CHL1   C17  394   5.270   4.726   9.549 -0.5285  0.3982 -0.4284
    6CHL1   H17  395   5.297   4.834   9.552  2.6979 -0.2678 -1.5821
    6CHL1   C13  396   5.324   4.664   9.679 -0.4076  0.3149 -0.7871
    6CHL1   C18  397   5.327   4.511   9.670  0.3684 -0.8343 -0.1517
    6CHL1  H18A  398   5.315   4.452   9.763 -0.0667 -0.7651 -0.1628
    6CHL1  H18B  399   5.246   4.477   9.602 -0.4988 -0.7583  0.8069
    6CHL1  H18C  400   5.425   4.474   9.635  0.9187 -0.2100  0.6718
    6CHL1   C12  401   5.465   4.716   9.733 -0.1408  0.2078 -0.5219
    6CHL1  H12A  402   5.542   4.660   9.675  0.4152 -0.4294  0.7846
    6CHL1  H12B  403   5.480   4.825   9.723  0.7436  0.0837 -0.5965
    6CHL1   C11  404   5.494   4.674   9.878  0.0522 -0.3321 -0.1515
    6CHL1  H11A  405   5.516   4.565   9.866  1.0342 -0.0576 -1.0078
    6CHL1  H11B  406   5.582   4.736   9.904  0.4253 -0.6052 -0.7235
    6CHL1    C9  407   5.381   4.716   9.974  0.2148  0.6540 -0.0772
    6CHL1    H9  408   5.365   4.826   9.974 -0.4508  0.5708 -0.8259
    6CHL1   C10  409   5.404   4.671  10.115  0.1881 -0.2410  0.4841
    6CHL1   C19  410   5.447   4.522  10.110  0.5596 -0.0986 -0.6786
    6CHL1  H19A  411   5.553   4.518  10.075  1.1264 -1.8182  1.0372
    6CHL1  H19B  412   5.444   4.476  10.211 -1.4812 -1.8174 -1.4499
    6CHL1  H19C  413   5.380   4.453  10.054  0.8759 -0.6726 -0.3580
    6CHL1    C1  414   5.529   4.746  10.168  0.6469 -0.0186 -0.3461
    6CHL1   H1A  415   5.619   4.712  10.113  1.1835 -2.2728  1.7438
    6CHL1   H1B  416   5.531   4.855  10.145 -2.3718 -0.0627 -1.1711
    6CHL1    C2  417   5.562   4.716  10.318 -0.5462  0.0196  0.1524
    6CHL1   H2A  418   5.648   4.770  10.361  0.2108 -0.3727 -0.8313
    6CHL1   H2B  419   5.590   4.610  10.339  1.0312  0.7640  2.1710
    6CHL1   C20  420   5.322   4.684   9.415 -0.4976  0.4250 -0.5117
    6CHL1   H20  421   5.348   4.576   9.416  0.4098  0.6206  0.7699
    6CHL1   C21  422   5.454   4.768   9.387  0.1501 -0.2639  0.2562
    6CHL1  H21A  423   5.516   4.719   9.309  1.7471 -0.6619  1.7202
    6CHL1  H21B  424   5.512   4.784   9.481 -0.3567  1.6524  0.3041
    6CHL1  H21C  425   5.413   4.869   9.364 -0.9461 -0.2523  2.0338
    6CHL1   C22  426   5.220   4.705   9.301 -0.3017 -0.5629  0.4926
    6CHL1  H22A  427   5.134   4.635   9.308  0.3340 -1.5637 -1.0773
    6CHL1  H22B  428   5.178   4.808   9.306 -2.0010 -1.1719 -0.4112
    6CHL1   C23  429   5.280   4.680   9.162 -0.6707  0.4743  0.7521
    6CHL1  H23A  430   5.360   4.751   9.132 -2.0822  2.4835  1.5528
    6CHL1  H23B  431   5.331   4.581   9.156  0.2045  1.0127 -1.9730
    6CHL1   C24  432   5.185   4.688   9.043  0.2052  0.4052  0.5623
    6CHL1  H24A  433   5.088   4.643   9.073 -0.1838  1.7891  1.5195
    6CHL1  H24B  434   5.160   4.792   9.015  2.0484  0.7094 -0.0830
    6CHL1   C25  435   5.234   4.629   8.908 -0.2180 -0.1375  0.8674
    6CHL1   H25  436   5.335   4.676   8.904  0.3508 -1.2595  1.5184
    6CHL1   C26  437   5.249   4.476   8.910 -0.6000  0.2909 -0.7308
    6CHL1  H26A  438   5.321   4.453   8.992 -0.4443  1.2383 -0.5878
    6CHL1  H26B  439   5.146   4.446   8.938 -0.8624  2.4875  1.0022
    6CHL1  H26C  440   5.272   4.417   8.819 -0.3192 -1.2065  0.2811
    6CHL1   C27  441   5.140   4.664   8.792  0.4898 -0.1818 -0.7061
    6CHL1  H27A  442   5.123   4.773   8.800  0.9937 -0.0930 -0.7592
    6CHL1  H27B  443   5.188   4.645   8.693  1.9947  3.3278 -0.7963
    6CHL1  H27C  444   5.043   4.610   8.794 -0.3672  1.0925 -3.2010
    7CHL1    C3  445   5.259   0.359  10.213 -0.2314  0.1514 -0.1998
    7CHL1    H3  446   5.341   0.284  10.206 -0.4264 -0.1612  0.6862
    7CHL1    O3  447   5.236   0.384  10.351  0.2257  0.2879  0.0827
    7CHL1   H3'  448   5.146   0.417  10.342 -0.4107 -0.3529  3.0060
    7CHL1    C4  449   5.301   0.492  10.146  1.2238 -0.0899  0.0275
    7CHL1   H4A  450   5.205   0.544  10.170  1.1970 -0.8365  1.6889
    7CHL1   H4B  451   5.382   0.539  10.205  1.3830 -0.2242 -0.0844
    7CHL1    C5  452   5.327   0.476   9.999  0.1004 -0.3312 -0.6107
    7CHL1    C6  453   5.441   0.517   9.944  0.1962 -0.1737  0.1930
    7CHL1    H6  454   5.515   0.568  10.006 -0.5581 -0.2283  1.1698
    7CHL1    C7  455   5.482   0.500   9.796  0.2189 -0.4432 -0.7155
    7CHL1   H7A  456   5.526   0.596   9.763  1.7376  0.3324  3.0157
    7CHL1   H7B  457   5.573   0.439   9.784  0.1490 -0.5637 -0.6426
    7CHL1    C8  458   5.368   0.448   9.716  0.3446 -0.1661 -0.0447
    7CHL1    H8  459   5.302   0.534   9.692  0.5579  0.5627  1.7921
    7CHL1   C14  460   5.427   0.388   9.584 -0.1818  0.0572 -0.7580
    7CHL1   H14  461   5.472   0.293   9.617  3.2488  2.3173  1.6938
    7CHL1   C15  462   5.532   0.462   9.511 -0.5257  1.1670  0.1849
    7CHL1  H15A  463   5.503   0.569   9.500  1.0162  1.5487 -0.5517
    7CHL1  H15B  464   5.629   0.460   9.565 -0.2526  1.2196 -0.2887
    7CHL1   C16  465   5.541   0.400   9.373 -0.4414 -0.1718 -0.0127
    7CHL1  H16A  466   5.533   0.475   9.292 -2.6662  1.7095  1.7978
    7CHL1  H16B  467   5.631   0.337   9.358 -0.5997 -0.3568 -0.1921
    7CHL1   C17  468   5.415   0.300   9.365 -0.0604 -0.9574 -0.1698
    7CHL1   H17  469   5.449   0.202   9.406 -0.0755 -1.3326 -1.0512
    7CHL1   C13  470   5.318   0.354   9.486 -0.3429  0.8927 -0.2673
    7CHL1   C18  471   5.240   0.474   9.437 -0.3578  0.3099  0.7058
    7CHL1  H18A  472   5.179   0.517   9.520 -1.2669  0.4532 -0.0186
    7CHL1  H18B  473   5.303   0.548   9.384 -0.7283  1.5611  1.9520
    7CHL1  H18C  474   5.159   0.433   9.372 -0.1614 -2.2826  1.9532
    7CHL1   C12  475   5.235   0.241   9.551 -0.3313 -0.2308 -0.2947
    7CHL1  H12A  476   5.153   0.219   9.478 -2.1418  1.6681  1.0254
    7CHL1  H12B  477   5.301   0.153   9.555  0.6200  0.4530 -0.6170
    7CHL1   C11  478   5.172   0.284   9.687 -0.3836  0.0072 -0.7419
    7CHL1  H11A  479   5.089   0.356   9.672 -2.6231 -2.2850 -0.1506
    7CHL1  H11B  480   5.132   0.197   9.743 -1.2316  1.0511  0.3415
    7CHL1    C9  481   5.275   0.344   9.789  0.5036  0.3693  0.6103
    7CHL1    H9  482   5.344   0.259   9.813  1.8261  1.6117  1.3997
    7CHL1   C10  483   5.213   0.398   9.923 -0.1884 -0.0923  0.2378
    7CHL1   C19  484   5.103   0.507   9.892  0.1973  0.1983 -0.0491
    7CHL1  H19A  485   5.140   0.584   9.821  0.3293  1.1765  1.0545
    7CHL1  H19B  486   5.017   0.454   9.846  1.9419 -1.6312 -1.4267
    7CHL1  H19C  487   5.081   0.568   9.981  0.7637  1.4025 -0.7140
    7CHL1    C1  488   5.165   0.278  10.004  0.0558  0.6245 -0.3855
    7CHL1   H1A  489   5.068   0.242   9.965 -0.1422  0.4527  0.2591
    7CHL1   H1B  490   5.232   0.191   9.989 -2.4806 -1.3506 -0.8047
    7CHL1    C2  491   5.140   0.311  10.143 -0.8214  0.0839 -0.9241
    7CHL1   H2A  492   5.100   0.215  10.183 -0.3361 -0.7909 -2.4612
    7CHL1   H2B  493   5.057   0.384  10.154  1.7718  3.1293 -0.1887
    7CHL1   C20  494   5.342   0.282   9.241  0.3480 -0.1484 -0.6897
    7CHL1   H20  495   5.234   0.262   9.263  0.3179  1.9063  1.4073
    7CHL1   C21  496   5.391   0.145   9.188  0.7675  0.1824 -0.0324
    7CHL1  H21A  497   5.501   0.149   9.178  1.0048  0.1153  2.2198
    7CHL1  H21B  498   5.354   0.130   9.084  1.0877 -0.0738 -0.1106
    7CHL1  H21C  499   5.369   0.056   9.251  0.6188 -0.6813 -1.2634
    7CHL1   C22  500   5.350   0.401   9.139 -0.0551 -0.1219  0.0069
    7CHL1  H22A  501   5.359   0.500   9.189 -0.2337  0.7682 -1.6336
    7CHL1  H22B  502   5.452   0.404   9.094  0.8158  1.7172  1.9296
    7CHL1   C23  503   5.249   0.396   9.029  0.3519 -0.3103 -0.2290
    7CHL1  H23A  504   5.262   0.309   8.961  0.9417 -0.7339  0.4134
    7CHL1  H23B  505   5.146   0.396   9.069  0.7914 -0.1438  0.9245
    7CHL1   C24  506   5.253   0.526   8.940  0.0409  0.9277  0.6096
    7CHL1  H24A  507   5.237   0.627   8.985 -0.2619  0.2361  2.1210
    7CHL1  H24B  508   5.354   0.533   8.894  0.0671 -0.1963  0.4762
    7CHL1   C25  509   5.144   0.534   8.826 -1.3499  0.7137  0.2641
    7CHL1   H25  510   5.138   0.435   8.777  2.2391  0.5452 -0.0545
    7CHL1   C26  511   5.003   0.564   8.875  0.1608 -0.0968  0.1669
    7CHL1  H26A  512   4.945   0.588   8.784 -0.4967 -0.9381  0.3498
    7CHL1  H26B  513   4.953   0.476   8.919  1.7680 -2.0883 -1.7034
    7CHL1  H26C  514   5.006   0.651   8.943 -0.8777  2.5606 -2.9316
    7CHL1   C27  515   5.191   0.638   8.721  0.2181 -0.3293  0.0797
    7CHL1  H27A  516   5.226   0.730   8.772  0.7848  0.5221 -1.7913
    7CHL1  H27B  517   5.274   0.605   8.655  2.4410  0.1516  2.4347
    7CHL1  H27C  518   5.103   0.668   8.660  0.1437  1.4938  1.0155
    8CHL1    C3  519   6.507   1.586  10.490  0.0433 -0.5021  0.2911
    8CHL1    H3  520   6.503   1.694  10.515 -0.3801 -0.4752  0.1024
    8CHL1    O3  521   6.442   1.511  10.592 -1.1367  0.2102  0.3323
    8CHL1   H3'  522   6.453   1.427  10.546  0.0362  0.4260  0.1822
    8CHL1    C4  523   6.423   1.557  10.365  0.3023  0.4744  0.7657
    8CHL1   H4A  524   6.404   1.450  10.341  0.9104  1.2061 -3.8648
    8CHL1   H4B  525   6.326   1.609  10.384 -1.0573 -1.0152 -1.6954
    8CHL1    C5  526   6.479   1.607  10.239 -0.3195 -0.5512 -0.1882
    8CHL1    C6  527   6.406   1.689  10.158 -0.5505  0.0601 -0.4274
    8CHL1    H6  528   6.310   1.732  10.190 -0.7533 -0.6402 -0.0792
    8CHL1    C7  529   6.461   1.725  10.023 -0.2399 -0.4683 -1.1082
    8CHL1   H7A  530   6.387   1.733   9.941 -0.7968  1.7585 -0.4668
    8CHL1   H7B  531   6.503   1.827  10.035  1.1523 -1.1677  0.4557
    8CHL1    C8  532   6.585   1.640   9.976  0.3728 -0.4656  0.3330
    8CHL1    H8  533   6.549   1.539   9.948 -3.2083 -0.2201  3.3759
    8CHL1   C14  534   6.651   1.702   9.858  0.0585 -0.2085 -0.5942
    8CHL1   H14  535   6.685   1.803   9.891 -1.6203 -0.5998  2.8727
    8CHL1   C15  536   6.560   1.728   9.738  0.7047 -0.5677  0.5359
    8CHL1  H15A  537   6.495   1.643   9.706 -0.9996  1.1966 -0.9765
    8CHL1  H15B  538   6.493   1.815   9.758 -1.3565 -1.2735 -2.5489
    8CHL1   C16  539   6.658   1.754   9.625 -0.6311  0.4414  0.4209
    8CHL1  H16A  540   6.626   1.713   9.527 -1.4154  1.7105  0.1244
    8CHL1  H16B  541   6.666   1.862   9.601  0.2527  1.0248  3.0847
    8CHL1   C17  542   6.804   1.714   9.677  0.0738  0.7431  0.0835
    8CHL1   H17  543   6.857   1.805   9.713 -0.3179  1.0886 -0.2038
    8CHL1   C13  544   6.778   1.628   9.809 -0.4755 -0.8787 -0.5525
    8CHL1   C18  545   6.731   1.490   9.769 -0.5726 -0.7432 -0.6884
    8CHL1  H18A  546   6.818   1.432   9.730 -0.1079  0.2065 -1.0994
    8CHL1  H18B  547   6.689   1.429   9.852 -2.0015  0.2159 -0.6607
    8CHL1  H18C  548   6.655   1.488   9.687 -0.6081 -0.0752 -0.6703
    8CHL1   C12  549   6.876   1.628   9.922 -0.3535 -0.2636  0.9070
    8CHL1  H12A  550   6.956   1.559   9.887 -0.2091 -0.1608  1.0328
    8CHL1  H12B  551   6.918   1.730   9.935 -0.3753  0.0991 -1.4148
    8CHL1   C11  552   6.817   1.561  10.045 -0.6526 -0.1199  0.3647
    8CHL1  H11A  553   6.812   1.453  10.020  2.8026 -0.4529  0.5623
    8CHL1  H11B  554   6.881   1.564  10.135 -0.8647 -0.3109  0.5231
    8CHL1    C9  555   6.682   1.623  10.093 -0.3460 -0.3579 -0.2759
    8CHL1    H9  556   6.713   1.725  10.124  0.6676 -0.8916  0.5426
    8CHL1   C10  557   6.625   1.553  10.216  0.8517 -0.3675 -0.0751
    8CHL1   C19  558   6.616   1.398  10.194 -0.4983  0.8355  1.5034
    8CHL1  H19A  559   6.550   1.373  10.108  0.2893  0.2101  1.0713
    8CHL1  H19B  560   6.717   1.363  10.165 -2.3471 -2.2925 -2.0650
    8CHL1  H19C  561   6.574   1.343  10.281 -0.1040 -0.8408  0.6714
    8CHL1    C1  562   6.710   1.589  10.344 -0.0571 -0.7406  0.4042
    8CHL1   H1A  563   6.811   1.542  10.336  1.8760  2.5108  2.9954
    8CHL1   H1B  564   6.720   1.699  10.359 -0.3203 -0.3294 -2.1154
    8CHL1    C2  565   6.654   1.534  10.475  0.4929 -0.1096  0.8207
    8CHL1   H2A  566   6.714   1.577  10.558  1.5246 -0.6506  0.3728
    8CHL1   H2B  567   6.654   1.423  10.470 -1.3478 -0.0950 -2.8486
    8CHL1   C20  568   6.894   1.653   9.569 -0.4796 -0.7282 -0.4179
    8CHL1   H20  569   6.836   1.562   9.542  0.6338 -2.3095  2.1419
    8CHL1   C21  570   7.036   1.620   9.622 -0.0473 -0.1399 -0.2224
    8CHL1  H21A  571   7.074   1.709   9.677  1.5047 -0.5195 -0.6245
    8CHL1  H21B  572   7.097   1.597   9.531 -2.1110 -0.9970 -1.4657
    8CHL1  H21C  573   7.026   1.532   9.688 -0.0091 -0.1080 -0.1745
    8CHL1   C22  574   6.897   1.750   9.443  0.0184 -0.0579 -0.0962
    8CHL1  H22A  575   6.802   1.797   9.410 -0.1136 -1.6364 -2.1595
    8CHL1  H22B  576   6.966   1.837   9.448 -0.7264  0.6035 -0.8594
    8CHL1   C23  577   6.944   1.681   9.312  0.6435 -0.4818 -0.1183
    8CHL1  H23A  578   7.012   1.599   9.346  3.1076  0.7046 -1.8808
    8CHL1  H23B  579   6.856   1.636   9.262  0.6804  1.4128 -1.9761
    8CHL1   C24  580   7.009   1.782   9.210  0.0784 -0.0227  0.5257
    8CHL1  H24A  581   6.931   1.855   9.178 -0.7148 -1.7498 -1.8127
    8CHL1  H24B  582   7.093   1.838   9.256 -0.0929  1.2073 -0.5924
    8CHL1   C25  583   7.054   1.708   9.083 -0.0971  0.3442 -0.2340
    8CHL1   H25  584   7.113   1.617   9.111  0.8879  1.6019  2.1107
    8CHL1   C26  585   6.939   1.655   9.002  0.5115 -0.1140 -0.5102
    8CHL1  H26A  586   6.882   1.578   9.058 -0.8015  0.0875 -1.5216
    8CHL1  H26B  587   6.870   1.739   8.977  2.4922  2.0813  0.9055
    8CHL1  H26C  588   6.978   1.604   8.912  1.3855 -1.4637  0.5907
    8CHL1   C27  589   7.138   1.800   8.991 -0.2922  0.2850 -0.0881
    8CHL1  H27A  590   7.097   1.902   8.978 -2.1256 -0.5214 -0.8761
    8CHL1  H27B  591   7.237   1.812   9.040 -0.1645  0.2297 -0.3332
    8CHL1  H27C  592   7.158   1.748   8.895  0.6807  0.7429 -0.1461
    9CHL1    C3  593   4.119   4.603  10.287  0.7611 -0.4290  0.6870
    9CHL1    H3  594   4.220   4.565  10.263 -0.1243 -0.4187 -3.9137
    9CHL1    O3  595   4.091   4.579  10.429 -0.1515  0.3314  0.2202
    9CHL1   H3'  596   4.010   4.528  10.433  0.0683 -0.1637 -1.1487
    9CHL1    C4  597   4.132   4.755  10.266  0.5926  0.1233  0.1857
    9CHL1   H4A  598   4.035   4.800  10.296  0.4721 -1.8744  3.1760
    9CHL1   H4B  599   4.197   4.802  10.343  0.0081  0.9176  0.2039
    9CHL1    C5  600   4.157   4.799  10.122 -0.3926  0.1647 -0.5794
    9CHL1    C6  601   4.264   4.876  10.094  0.4672  0.3992 -0.2801
    9CHL1    H6  602   4.332   4.921  10.169 -0.7975  1.7476  0.1001
    9CHL1    C7  603   4.291   4.924   9.954 -0.2979 -0.1887  0.1328
    9CHL1   H7A  604   4.309   5.033   9.961 -0.7369 -0.1359  0.4782
    9CHL1   H7B  605   4.385   4.882   9.912 -0.5088  0.1163 -0.6503
    9CHL1    C8  606   4.185   4.877   9.849  0.1934 -0.0225 -0.7580
    9CHL1    H8  607   4.098   4.945   9.865  1.1638  1.3438 -1.0646
    9CHL1   C14  608   4.240   4.875   9.710 -0.4994  0.2495  0.3477
    9CHL1   H14  609   4.309   4.788   9.699  2.3033  2.4783 -0.9298
    9CHL1   C15  610   4.323   5.004   9.657 -0.0735  0.4397 -0.7422
    9CHL1  H15A  611   4.305   5.108   9.690 -0.2437  1.2848 -3.2919
    9CHL1  H15B  612   4.430   4.977   9.674  0.0626  1.6859  0.6397
    9CHL1   C16  613   4.303   5.011   9.506  0.4581 -0.2424  0.0042
    9CHL1  H16A  614   4.257   5.105   9.468  1.5666  0.4306  0.2673
    9CHL1  H16B  615   4.405   4.991   9.466  1.6362  2.9409  1.0711
    9CHL1   C17  616   4.214   4.881   9.469 -0.0911 -0.5283 -0.2956
    9CHL1   H17  617   4.287   4.798   9.469 -0.0980 -0.5610  1.3101
    9CHL1   C13  618   4.135   4.859   9.600  1.2843  0.3724 -0.0327
    9CHL1   C18  619   4.028   4.965   9.602  0.2489 -0.1603  0.0235
    9CHL1  H18A  620   3.946   4.937   9.532  0.3035 -2.3693  0.7605
    9CHL1  H18B  621   3.978   4.970   9.700  3.4443 -0.2316  1.8000
    9CHL1  H18C  622   4.071   5.066   9.583 -1.9922  0.8080 -0.1616
    9CHL1   C12  623   4.079   4.713   9.626  0.4638  0.3815 -0.7023
    9CHL1  H12A  624   3.994   4.691   9.558 -1.1557 -0.1850  1.3938
    9CHL1  H12B  625   4.163   4.644   9.602  0.6026  0.3457 -0.1263
    9CHL1   C11  626   4.028   4.696   9.769  0.3026  0.0504  0.4743
    9CHL1  H11A  627   3.931   4.750   9.776 -0.8681 -1.6855 -1.3590
    9CHL1  H11B  628   3.994   4.593   9.792 -2.2287  0.9821  1.2715
    9CHL1    C9  629   4.129   4.738   9.879 -0.1291  0.6892 -0.2236
    9CHL1    H9  630   4.207   4.660   9.865  0.8017  1.4999  0.3286
    9CHL1   C10  631   4.068   4.724  10.022  1.0152  0.0669 -0.6676
    9CHL1   C19  632   3.922   4.783  10.034 -0.2038  0.7809 -0.2261
    9CHL1  H19A  633   3.879   4.786  10.137  2.0877  0.4099  0.8166
    9CHL1  H19B  634   3.922   4.882   9.985 -0.7125  0.6778 -0.4377
    9CHL1  H19C  635   3.858   4.721   9.967  1.3656 -2.0509  0.7024
    9CHL1    C1  636   4.048   4.572  10.050 -0.8899  0.4598  0.4103
    9CHL1   H1A  637   3.968   4.530   9.985 -3.1636  3.8085  0.8144
    9CHL1   H1B  638   4.147   4.529  10.022 -1.4553  0.3493 -1.6355
    9CHL1    C2  639   4.025   4.534  10.194  0.3177 -0.2230  0.0947
    9CHL1   H2A  640   4.030   4.424  10.204  2.3145 -0.0300  2.1239
    9CHL1   H2B  641   3.923   4.572  10.219  1.0383  1.6490  0.3533
    9CHL1   C20  642   4.150   4.897   9.329  0.3324  0.0067 -0.1272
    9CHL1   H20  643   4.061   4.963   9.343 -0.3060 -0.7736 -0.4132
    9CHL1   C21  644   4.096   4.758   9.297  0.0735  0.5214 -0.6432
    9CHL1  H21A  645   4.165   4.671   9.300  1.4684  1.6065  1.8983
    9CHL1  H21B  646   4.043   4.760   9.199  2.1372  0.6957 -1.8322
    9CHL1  H21C  647   4.015   4.734   9.369 -2.0519  1.1881 -2.6824
    9CHL1   C22  648   4.253   4.941   9.219  0.9855 -0.6078 -0.1558
    9CHL1  H22A  649   4.280   5.044   9.252 -0.3318 -0.2750 -0.0369
    9CHL1  H22B  650   4.346   4.880   9.214  2.5827  1.7777 -2.1054
    9CHL1   C23  651   4.193   4.936   9.074  0.1117  0.5639 -0.6211
    9CHL1  H23A  652   4.186   4.827   9.050 -1.2472  0.0510  1.8035
    9CHL1  H23B  653   4.085   4.963   9.071 -1.0468 -3.4402 -2.1732
    9CHL1   C24  654   4.265   5.005   8.967 -0.1006 -0.0945  0.3096
    9CHL1  H24A  655   4.273   5.109   9.006 -2.8891 -0.2250  1.4634
    9CHL1  H24B  656   4.363   4.956   8.951  0.9688  1.5370  1.5161
    9CHL1   C25  657   4.185   5.008   8.834  0.3097 -0.2285 -0.7198
    9CHL1   H25  658   4.164   4.903   8.803 -0.9155  0.4228 -2.2091
    9CHL1   C26  659   4.051   5.086   8.834 -0.2226  0.1166 -0.1175
    9CHL1  H26A  660   4.065   5.193   8.858  2.0933 -0.0412 -0.5149
    9CHL1  H26B  661   4.003   5.075   8.734  2.4171 -0.8552 -1.3996
    9CHL1  H26C  662   3.976   5.045   8.904  0.1950 -2.4765 -1.0420
    9CHL1   C27  663   4.268   5.072   8.724 -0.5414 -0.1644 -0.4433
    9CHL1  H27A  664   4.292   5.180   8.736  1.0304 -0.4346 -0.8692
    9CHL1  H27B  665   4.362   5.012   8.721 -0.9997 -0.9272  0.2451
    9CHL1  H27C  666   4.216   5.053   8.627  0.5134  1.5825 -1.4072
   10CHL1    C3  667   4.533   2.610  10.055 -0.1405  0.0836  0.6138
   10CHL1    H3  668   4.460   2.535  10.018  0.0802  0.1984 -0.0705
   10CHL1    O3  669   4.558   2.590  10.192 -0.6633  0.0020 -0.1360
   10CHL1   H3'  670   4.653   2.576  10.198 -0.4957  1.5996  2.6853
   10CHL1    C4  671   4.656   2.573   9.965 -0.2172 -0.4002 -0.4215
   10CHL1   H4A  672   4.748   2.632   9.988  0.4530 -1.1332 -1.1699
   10CHL1   H4B  673   4.690   2.469   9.979  3.6717  0.7270 -0.1786
   10CHL1    C5  674   4.629   2.600   9.815 -0.4576 -0.1083  0.6158
   10CHL1    C6  675   4.659   2.510   9.713  0.0766 -0.1219 -0.5303
   10CHL1    H6  676   4.705   2.412   9.731 -1.2837 -0.7434 -0.3222
   10CHL1    C7  677   4.633   2.547   9.574 -0.3836 -0.0361 -0.1421
   10CHL1   H7A  678   4.718   2.516   9.509 -0.9960  0.3561 -1.1365
   10CHL1   H7B  679   4.542   2.500   9.531 -1.2183  0.5924  0.8910
   10CHL1    C8  680   4.615   2.703   9.547 -0.0947 -0.0815 -0.4778
   10CHL1    H8  681   4.714   2.746   9.572 -0.3849 -0.6505  1.8879
   10CHL1   C14  682   4.591   2.720   9.403 -0.4211  0.0983 -0.1687
   10CHL1   H14  683   4.502   2.659   9.375 -0.1498 -0.5355  0.3356
   10CHL1   C15  684   4.702   2.668   9.309  0.1053 -0.1144  0.1578
   10CHL1  H15A  685   4.801   2.709   9.339 -0.6960  0.8790  1.5721
   10CHL1  H15B  686   4.694   2.559   9.292  0.7054  0.0917 -1.6575
   10CHL1   C16  687   4.662   2.748   9.177 -0.3717  0.0300  0.2467
   10CHL1  H16A  688   4.759   2.783   9.135 -1.0291  1.2373 -0.3545
   10CHL1  H16B  689   4.605   2.692   9.100 -2.8734  3.6214 -0.7895
   10CHL1   C17  690   4.568   2.867   9.215  0.1429 -0.8623  0.2043
   10CHL1   H17  691   4.460   2.849   9.196 -0.0629  1.5238 -1.3212
   10CHL1   C13  692   4.576   2.871   9.371  0.6316 -0.4006  0.1111
   10CHL1   C18  693   4.699   2.965   9.395 -0.4812  0.1374  0.1130
   10CHL1  H18A  694   4.780   2.940   9.324 -2.6667  0.6764 -2.7426
   10CHL1  H18B  695   4.662   3.068   9.377 -0.0258  0.3737  0.4917
   10CHL1  H18C  696   4.734   2.964   9.501  0.6350 -0.6939 -0.2494
   10CHL1   C12  697   4.454   2.922   9.451  0.0554  0.0691 -0.2024
   10CHL1  H12A  698   4.445   3.030   9.424  2.8463  0.0847 -1.3980
   10CHL1  H12B  699   4.365   2.863   9.421  0.0425 -0.2818  0.5189
   10CHL1   C11  700   4.481   2.909   9.601 -0.9728 -0.6022 -0.3429
   10CHL1  H11A  701   4.557   2.988   9.620  0.8793 -2.2481 -0.6193
   10CHL1  H11B  702   4.388   2.928   9.660 -0.7564 -2.4765  0.6839
   10CHL1    C9  703   4.517   2.761   9.637  0.3346  0.3162 -0.3480
   10CHL1    H9  704   4.420   2.707   9.624 -1.0932  2.3818  1.0907
   10CHL1   C10  705   4.562   2.740   9.790  0.4036  0.3362 -0.3561
   10CHL1   C19  706   4.672   2.844   9.825 -0.3018  0.0212  0.1118
   10CHL1  H19A  707   4.627   2.944   9.842  0.2709  0.5488 -1.2863
   10CHL1  H19B  708   4.716   2.821   9.924 -0.9801  1.7648  0.8628
   10CHL1  H19C  709   4.754   2.857   9.751  0.3029  0.1513  0.7862
   10CHL1    C1  710   4.438   2.766   9.879 -0.1957 -1.4876  0.6537
   10CHL1   H1A  711   4.411   2.873   9.864  1.8078 -1.2777 -2.4867
   10CHL1   H1B  712   4.352   2.703   9.850 -1.9529  1.0671 -0.0202
   10CHL1    C2  713   4.467   2.746  10.033  0.8908 -0.2342  0.9715
   10CHL1   H2A  714   4.371   2.773  10.081  0.3111  1.3912 -0.9522
   10CHL1   H2B  715   4.544   2.817  10.070  0.3493  0.8129  0.1487
   10CHL1   C20  716   4.597   3.001   9.134  0.2654  0.0153  0.4658
   10CHL1   H20  717   4.696   3.051   9.148  0.0516  0.3916  0.6447
   10CHL1   C21  718   4.499   3.111   9.167  0.8295 -0.4452 -0.2345
   10CHL1  H21A  719   4.500   3.145   9.273  2.7915 -1.0535 -0.0023
   10CHL1  H21B  720   4.394   3.083   9.146  0.8796 -2.8500  2.0590
   10CHL1  H21C  721   4.532   3.201   9.111  2.0521 -1.2432 -0.8396
   10CHL1   C22  722   4.594   2.975   8.982 -0.1293 -0.1389  0.1754
   10CHL1  H22A  723   4.666   2.893   8.963  0.2219 -0.3145  2.0660
   10CHL1  H22B  724   4.494   2.932   8.962 -1.8092  3.1283  0.8335
   10CHL1   C23  725   4.625   3.091   8.879  0.2484  0.8477  0.3304
   10CHL1  H23A  726   4.554   3.173   8.903 -2.0076 -0.5361 -1.2253
   10CHL1  H23B  727   4.728   3.131   8.888  0.8536 -0.3239 -0.9965
   10CHL1   C24  728   4.589   3.040   8.738  0.1466 -0.3155  0.6317
   10CHL1  H24A  729   4.647   2.950   8.707 -1.0786 -1.0447  0.3575
   10CHL1  H24B  730   4.482   3.011   8.741  0.0489  0.0936  1.4962
   10CHL1   C25  731   4.614   3.135   8.619  0.6010 -0.4406 -0.1166
   10CHL1   H25  732   4.552   3.110   8.530 -1.6342  0.1752  1.1648
   10CHL1   C26  733   4.553   3.286   8.643 -0.3013  0.2135 -0.1613
   10CHL1  H26A  734   4.569   3.310   8.750  0.4622 -1.1657  0.0555
   10CHL1  H26B  735   4.619   3.358   8.589  2.8725 -1.1648  1.6065
   10CHL1  H26C  736   4.445   3.297   8.618 -0.6404  2.8046  1.9830
   10CHL1   C27  737   4.761   3.153   8.571  0.3609 -0.1695 -0.1299
   10CHL1  H27A  738   4.766   3.217   8.481 -0.6412  2.2491  1.4412
   10CHL1  H27B  739   4.826   3.202   8.647  1.7031  0.2431 -1.5014
   10CHL1  H27C  740   4.796   3.051   8.545  0.0777  0.2994 -2.5010
   11CHL1    C3  741   4.354   6.271  10.211  0.0373  0.5063  0.6173
   11CHL1    H3  742   4.286   6.186  10.192  1.3845 -0.3896 -0.3386
   11CHL1    O3  743   4.355   6.280  10.356 -0.2032 -0.1660 -0.0262
   11CHL1   H3'  744   4.407   6.357  10.382  0.6716 -0.4856 -0.7603
   11CHL1    C4  745   4.502   6.249  10.177  0.0009  0.4305  0.5556
   11CHL1   H4A  746   4.568   6.316  10.235 -1.1605  2.5250 -0.4476
   11CHL1   H4B  747   4.534   6.144  10.197 -1.9013 -0.5992 -1.2994
   11CHL1    C5  748   4.522   6.263  10.027  0.1780  0.0940 -0.5441
   11CHL1    C6  749   4.576   6.166   9.953  0.3331  0.0100  0.0613
   11CHL1    H6  750   4.601   6.069  10.000  4.4550  0.3046 -1.0643
   11CHL1    C7  751   4.618   6.177   9.810  0.0714  0.5301 -0.6097
   11CHL1   H7A  752   4.718   6.134   9.790  0.0452 -0.5983  1.4121
   11CHL1   H7B  753   4.541   6.123   9.750 -0.2239  0.9566 -0.6184
   11CHL1    C8  754   4.616   6.322   9.762 -0.3852 -0.2890 -0.2257
   11CHL1    H8  755   4.704   6.375   9.805 -1.6666  1.7308  0.0467
   11CHL1   C14  756   4.614   6.325   9.610  0.0323 -0.6032  0.0848
   11CHL1   H14  757   4.513   6.288   9.581 -1.7916  2.8243  1.4996
   11CHL1   C15  758   4.720   6.241   9.535  0.2203  0.4995  0.0161
   11CHL1  H15A  759   4.825   6.245   9.572 -0.3958 -0.4277  2.0753
   11CHL1  H15B  760   4.691   6.133   9.536 -1.1661  0.8131 -1.7352
   11CHL1   C16  761   4.721   6.302   9.396  0.1441  0.3672 -0.0476
   11CHL1  H16A  762   4.819   6.330   9.352 -0.1378  1.3333 -0.0811
   11CHL1  H16B  763   4.669   6.231   9.328 -1.4696  1.5812 -0.1417
   11CHL1   C17  764   4.625   6.423   9.393  0.2118 -0.5579  0.4929
   11CHL1   H17  765   4.531   6.372   9.363 -0.0547  0.9514 -1.4821
   11CHL1   C13  766   4.613   6.462   9.541  0.4684  0.0187 -0.2865
   11CHL1   C18  767   4.736   6.542   9.589  0.7112  0.4287 -0.5810
   11CHL1  H18A  768   4.753   6.635   9.531  0.5164  0.1464 -1.1000
   11CHL1  H18B  769   4.737   6.569   9.696 -0.2907  2.0218 -0.9320
   11CHL1  H18C  770   4.821   6.472   9.573 -0.2186 -0.7940 -0.3509
   11CHL1   C12  771   4.480   6.535   9.589  0.3942  0.9916 -0.4478
   11CHL1  H12A  772   4.476   6.641   9.554 -0.4865  0.5480 -1.7211
   11CHL1  H12B  773   4.393   6.483   9.544  2.3842 -2.7715 -0.2970
   11CHL1   C11  774   4.473   6.531   9.744  0.4343 -0.4918  0.4901
   11CHL1  H11A  775   4.553   6.599   9.781  1.0233 -0.3958 -0.8748
   11CHL1  H11B  776   4.376   6.565   9.784  1.0617 -0.5801  2.1694
   11CHL1    C9  777   4.492   6.393   9.811  0.4335  0.0714 -0.7718
   11CHL1    H9  778   4.402   6.336   9.780 -0.0106  0.5528 -0.3866
   11CHL1   C10  779   4.477   6.395   9.971 -0.4329 -1.4084  1.0259
   11CHL1   C19  780   4.573   6.514  10.017 -0.3000  0.4935 -0.2691
   11CHL1  H19A  781   4.589   6.511  10.127  0.7617 -0.0934 -0.4338
   11CHL1  H19B  782   4.668   6.514   9.960 -0.9183  0.0622 -1.3449
   11CHL1  H19C  783   4.520   6.610   9.996 -1.8835 -0.0221  1.1675
   11CHL1    C1  784   4.329   6.420  10.008 -1.1180 -0.9112 -0.0026
   11CHL1   H1A  785   4.297   6.521   9.977 -1.0328 -0.9619 -0.2673
   11CHL1   H1B  786   4.276   6.335   9.959 -1.4553 -0.0329 -1.2099
   11CHL1    C2  787   4.307   6.409  10.157 -0.2105  0.2183  0.3054
   11CHL1   H2A  788   4.199   6.424  10.175 -0.5605 -2.2436  0.6463
   11CHL1   H2B  789   4.356   6.491  10.213 -4.4559  1.4946  2.5987
   11CHL1   C20  790   4.663   6.524   9.285  0.6720 -0.1111  0.6277
   11CHL1   H20  791   4.771   6.551   9.290  0.6278 -0.1235  2.0415
   11CHL1   C21  792   4.581   6.654   9.296 -0.3147 -0.1830  0.4989
   11CHL1  H21A  793   4.594   6.718   9.205 -0.6023 -0.8500 -0.0196
   11CHL1  H21B  794   4.619   6.718   9.379  0.3777  0.1224 -0.0362
   11CHL1  H21C  795   4.471   6.644   9.301 -0.7160  1.9394 -1.8714
   11CHL1   C22  796   4.644   6.462   9.146 -0.0468  0.0735  0.6055
   11CHL1  H22A  797   4.688   6.360   9.147 -2.8840 -1.2556  1.7489
   11CHL1  H22B  798   4.541   6.433   9.115  0.1371 -0.1721  0.2202
   11CHL1   C23  799   4.713   6.536   9.031 -0.1987  0.2911 -0.0864
   11CHL1  H23A  800   4.695   6.644   9.050 -0.5665  0.0848  0.7776
   11CHL1  H23B  801   4.821   6.516   9.042 -0.6170 -1.3279  1.6484
   11CHL1   C24  802   4.656   6.497   8.889  0.3275  0.2002  0.1116
   11CHL1  H24A  803   4.690   6.394   8.865 -1.6646 -0.0626 -1.9874
   11CHL1  H24B  804   4.546   6.509   8.900  0.3187  2.0332 -1.4698
   11CHL1   C25  805   4.688   6.600   8.785  0.0172  0.1711  0.3058
   11CHL1   H25  806   4.648   6.699   8.813 -1.9658 -0.7312  0.8528
   11CHL1   C26  807   4.831   6.608   8.765 -0.8778 -0.2655  0.7904
   11CHL1  H26A  808   4.882   6.512   8.745  0.5909  0.0423  2.8276
   11CHL1  H26B  809   4.863   6.661   8.672  1.5040 -1.8324  0.6534
   11CHL1  H26C  810   4.880   6.640   8.859 -1.1407  3.6170 -0.2073
   11CHL1   C27  811   4.617   6.573   8.654 -0.3045  0.1800  0.8080
   11CHL1  H27A  812   4.509   6.564   8.674 -0.2659 -0.1170  0.8816
   11CHL1  H27B  813   4.639   6.658   8.586 -0.8134 -0.8033 -0.6442
   11CHL1  H27C  814   4.653   6.476   8.613  0.9019 -0.1723  2.5946
   12CHL1    C3  815   3.229   2.188  10.360  0.7265  0.3104  0.0899
   12CHL1    H3  816   3.286   2.282  10.346 -1.6769  2.1039  1.4930
   12CHL1    O3  817   3.177   2.186  10.494  0.0427 -0.1792  0.4749
   12CHL1   H3'  818   3.146   2.099  10.517 -1.7057  0.2285 -0.2053
   12CHL1    C4  819   3.117   2.196  10.255 -0.1543 -0.5647  0.4577
   12CHL1   H4A  820   3.045   2.117  10.284 -0.2686 -1.5706 -2.2806
   12CHL1   H4B  821   3.072   2.296  10.272  1.0681 -0.0950  1.0600
   12CHL1    C5  822   3.162   2.181  10.109 -0.1103  0.5961  0.3762
   12CHL1    C6  823   3.133   2.274  10.014 -0.5083 -0.6939  0.4365
   12CHL1    H6  824   3.066   2.354  10.049 -0.0596 -1.0871  2.3404
   12CHL1    C7  825   3.182   2.273   9.869  0.5981 -0.1193 -1.0258
   12CHL1   H7A  826   3.105   2.303   9.795  0.5440 -1.0419 -1.3613
   12CHL1   H7B  827   3.259   2.351   9.856  0.8564 -0.4550 -1.5703
   12CHL1    C8  828   3.245   2.134   9.835 -0.8738 -0.3205  0.1667
   12CHL1    H8  829   3.158   2.066   9.824 -0.8623 -0.3779  0.4307
   12CHL1   C14  830   3.315   2.136   9.695 -0.1839  0.1635 -1.7472
   12CHL1   H14  831   3.387   2.220   9.699  1.1887 -0.9942 -0.3713
   12CHL1   C15  832   3.226   2.177   9.579 -0.7726 -0.1960 -0.3667
   12CHL1  H15A  833   3.130   2.121   9.581 -1.2281  0.4831 -1.7605
   12CHL1  H15B  834   3.203   2.284   9.565 -1.0223 -0.2944 -0.7391
   12CHL1   C16  835   3.314   2.122   9.460 -0.1887  0.1351  0.2237
   12CHL1  H16A  836   3.246   2.053   9.405 -2.1309  0.4564  2.0987
   12CHL1  H16B  837   3.350   2.202   9.392 -1.2749 -0.0539 -0.6112
   12CHL1   C17  838   3.433   2.037   9.524 -0.0831  0.1129 -0.0915
   12CHL1   H17  839   3.516   2.109   9.543 -1.7854  1.5780  2.2616
   12CHL1   C13  840   3.385   2.002   9.663  0.1113  0.4335 -0.8141
   12CHL1   C18  841   3.288   1.877   9.646  0.0126 -0.6605 -0.5034
   12CHL1  H18A  842   3.233   1.857   9.739  0.3097 -0.7987 -0.3560
   12CHL1  H18B  843   3.212   1.908   9.572  0.0283  1.8098  0.4256
   12CHL1  H18C  844   3.343   1.784   9.620  0.5521 -0.2540 -0.8552
   12CHL1   C12  845   3.496   1.978   9.767 -0.2421  1.1037 -0.2078
   12CHL1  H12A  846   3.536   1.875   9.757 -0.7817  0.9972 -1.3830
   12CHL1  H12B  847   3.590   2.037   9.766 -0.6485  1.7766  0.2425
   12CHL1   C11  848   3.434   1.974   9.910  0.2266 -0.4496 -0.4108
   12CHL1  H11A  849   3.379   1.880   9.930 -2.1000  1.1531  1.3705
   12CHL1  H11B  850   3.519   1.981   9.982 -1.1341  0.0425  1.2255
   12CHL1    C9  851   3.337   2.090   9.945 -0.1818  0.0332 -0.4117
   12CHL1    H9  852   3.415   2.168   9.957  0.1954 -0.1758 -1.3229
   12CHL1   C10  853   3.271   2.070  10.083  0.5784 -0.2678  0.4987
   12CHL1   C19  854   3.168   1.938  10.083 -0.0667 -0.0897 -0.1458
   12CHL1  H19A  855   3.105   1.926   9.992 -4.9718 -0.5497  2.9325
   12CHL1  H19B  856   3.220   1.842  10.103 -0.1350  0.1806  1.4892
   12CHL1  H19C  857   3.096   1.941  10.168 -2.2070 -0.7059 -1.8308
   12CHL1    C1  858   3.373   2.058  10.195 -0.6305  0.1199 -0.0784
   12CHL1   H1A  859   3.424   1.960  10.181 -1.1543 -0.6777  2.9656
   12CHL1   H1B  860   3.451   2.136  10.178  1.2250 -0.8415  3.1933
   12CHL1    C2  861   3.314   2.064  10.340  0.1189  0.7231 -0.3100
   12CHL1   H2A  862   3.389   2.046  10.419  0.0522 -0.4774 -0.5090
   12CHL1   H2B  863   3.249   1.974  10.342  0.7225 -0.1049 -5.3627
   12CHL1   C20  864   3.481   1.929   9.423 -0.7686 -0.4859  0.1872
   12CHL1   H20  865   3.392   1.866   9.400 -1.9000  0.1046  2.6260
   12CHL1   C21  866   3.606   1.860   9.482 -0.9596 -0.6142 -0.2422
   12CHL1  H21A  867   3.682   1.932   9.520 -0.3507 -1.7721  0.8249
   12CHL1  H21B  868   3.656   1.803   9.401 -0.4126 -0.1947 -0.2111
   12CHL1  H21C  869   3.596   1.779   9.557  1.3387 -1.3843 -0.6885
   12CHL1   C22  870   3.528   1.995   9.290  0.2846 -0.7742 -0.8556
   12CHL1  H22A  871   3.433   2.026   9.243  0.4850 -1.1218 -1.4902
   12CHL1  H22B  872   3.599   2.079   9.303  1.5759 -1.9594  0.1670
   12CHL1   C23  873   3.598   1.906   9.183 -0.5491 -0.4596  0.5187
   12CHL1  H23A  874   3.701   1.878   9.215 -0.3880 -1.1154 -0.5437
   12CHL1  H23B  875   3.545   1.811   9.163  0.2211 -0.8605  0.3685
   12CHL1   C24  876   3.608   1.991   9.055  0.0668  0.1500 -0.2235
   12CHL1  H24A  877   3.506   2.010   9.016  1.5771 -0.5127 -5.3699
   12CHL1  H24B  878   3.671   2.082   9.064 -0.6701  0.4679  2.1756
   12CHL1   C25  879   3.680   1.918   8.941  0.3301 -0.2857  0.0839
   12CHL1   H25  880   3.787   1.899   8.961  0.5170 -0.7559 -1.2472
   12CHL1   C26  881   3.637   1.775   8.920  0.0005  0.1410  0.6940
   12CHL1  H26A  882   3.698   1.735   8.837 -1.5384 -1.9486  0.5127
   12CHL1  H26B  883   3.649   1.706   9.006  1.2594  2.7784  2.8092
   12CHL1  H26C  884   3.533   1.766   8.882  0.0769 -0.6952  0.6637
   12CHL1   C27  885   3.682   1.994   8.805 -0.2076 -0.5591 -0.8372
   12CHL1  H27A  886   3.748   1.946   8.730  1.3557 -0.2866  0.2989
   12CHL1  H27B  887   3.579   2.000   8.765 -0.3695 -2.1397 -0.7107
   12CHL1  H27C  888   3.738   2.090   8.805  1.0865 -1.2756  0.7115
   13CHL1    C3  889   0.789   5.009  10.193  0.2238 -0.3238  0.8393
   13CHL1    H3  890   0.788   5.091  10.118 -1.9680 -0.8268  0.2278
   13CHL1    O3  891   0.787   5.060  10.327 -0.1398  0.2536  0.2284
   13CHL1   H3'  892   0.721   5.130  10.329  1.1055  1.4604  0.6992
   13CHL1    C4  893   0.662   4.917  10.176 -0.6791 -0.4936  0.0419
   13CHL1   H4A  894   0.665   4.817  10.226 -0.5564 -0.7890 -0.5457
   13CHL1   H4B  895   0.572   4.980  10.189 -0.0074  0.8790 -1.5877
   13CHL1    C5  896   0.655   4.885  10.031 -0.5939  0.1146  0.8484
   13CHL1    C6  897   0.559   4.921   9.948  0.1988  0.3323 -0.0049
   13CHL1    H6  898   0.473   4.981   9.985 -0.0455  0.3983 -0.6708
   13CHL1    C7  899   0.553   4.886   9.807  0.0149  0.2309  0.4816
   13CHL1   H7A  900   0.451   4.856   9.774  0.4365  0.8182 -1.5003
   13CHL1   H7B  901   0.583   4.977   9.752  0.9289 -0.0971  0.4168
   13CHL1    C8  902   0.644   4.765   9.775  0.4813 -0.6534 -0.1626
   13CHL1    H8  903   0.598   4.675   9.820  0.3239  0.5811  2.3726
   13CHL1   C14  904   0.644   4.763   9.618 -0.2442 -0.0628 -0.4502
   13CHL1   H14  905   0.700   4.856   9.591  0.5298 -0.1399  0.8070
   13CHL1   C15  906   0.512   4.761   9.538 -0.2029  0.5900 -0.4673
   13CHL1  H15A  907   0.439   4.694   9.587  0.7751 -0.3435 -0.2365
   13CHL1  H15B  908   0.474   4.865   9.538  2.0273  1.4663 -1.0141
   13CHL1   C16  909   0.550   4.708   9.401 -0.3908 -0.3792  0.0067
   13CHL1  H16A  910   0.480   4.624   9.385 -1.0567 -0.1873  1.6374
   13CHL1  H16B  911   0.535   4.785   9.322  2.5450  2.3456  1.8352
   13CHL1   C17  912   0.697   4.673   9.406  0.3954  0.3760 -0.3267
   13CHL1   H17  913   0.750   4.768   9.385  0.8202  0.5261  1.3414
   13CHL1   C13  914   0.729   4.653   9.559  0.3901 -0.2312 -0.0655
   13CHL1   C18  915   0.677   4.515   9.596 -0.0742  0.3559 -0.4844
   13CHL1  H18A  916   0.570   4.513   9.565  0.3431  0.3910 -2.0280
   13CHL1  H18B  917   0.745   4.438   9.554 -0.0353  0.2009 -0.1332
   13CHL1  H18C  918   0.676   4.489   9.704  0.0391 -1.1959 -0.8381
   13CHL1   C12  919   0.876   4.673   9.614  0.4441  0.0228  0.6745
   13CHL1  H12A  920   0.933   4.586   9.575  2.6953  1.2780  0.9584
   13CHL1  H12B  921   0.915   4.766   9.567  2.1139 -1.4203 -0.9488
   13CHL1   C11  922   0.883   4.676   9.770 -0.0180 -0.3866  0.4608
   13CHL1  H11A  923   0.843   4.574   9.788 -1.7789  0.1105 -0.3898
   13CHL1  H11B  924   0.988   4.678   9.806  0.5068 -3.1046 -0.7018
   13CHL1    C9  925   0.780   4.780   9.830 -0.6275 -0.7535 -0.3227
   13CHL1    H9  926   0.816   4.876   9.787 -0.7555 -0.5590 -0.0007
   13CHL1   C10  927   0.782   4.796   9.989 -0.1409  0.8835  0.3555
   13CHL1   C19  928   0.771   4.647  10.048 -0.3253 -0.1536  0.0911
   13CHL1  H19A  929   0.783   4.648  10.158  1.3932  0.3249 -0.0669
   13CHL1  H19B  930   0.679   4.597  10.013 -0.1196  0.8493 -2.0481
   13CHL1  H19C  931   0.863   4.591  10.020  0.0452  1.7836 -3.1373
   13CHL1    C1  932   0.916   4.859  10.028  0.0992  0.0992  0.3789
   13CHL1   H1A  933   0.991   4.781  10.005 -0.9493  0.3981 -5.5110
   13CHL1   H1B  934   0.927   4.937   9.950 -0.7085 -0.5926 -0.4477
   13CHL1    C2  935   0.918   4.926  10.166  0.1551 -0.2053 -0.3387
   13CHL1   H2A  936   1.011   4.987  10.177  1.4968 -2.3249  0.7004
   13CHL1   H2B  937   0.926   4.852  10.249  0.3251 -1.7691 -1.7014
   13CHL1   C20  938   0.736   4.566   9.308  0.0086  0.3676  0.1703
   13CHL1   H20  939   0.689   4.469   9.337  2.3550 -0.9602 -0.1388
   13CHL1   C21  940   0.885   4.528   9.318  0.6206  0.2026  0.4507
   13CHL1  H21A  941   0.952   4.615   9.339  0.1085  0.7696 -0.2267
   13CHL1  H21B  942   0.917   4.474   9.226 -0.7776  1.1858 -0.6621
   13CHL1  H21C  943   0.892   4.458   9.404  0.3316  0.6745  0.8644
   13CHL1   C22  944   0.695   4.609   9.165  1.6231  0.4169 -0.0601
   13CHL1  H22A  945   0.687   4.525   9.093  0.6557  2.4587 -2.5177
   13CHL1  H22B  946   0.591   4.651   9.166  1.2104 -0.5619 -0.6268
   13CHL1   C23  947   0.779   4.727   9.104 -0.4778 -0.1015  0.8277
   13CHL1  H23A  948   0.759   4.820   9.162  0.3581  0.7118 -0.1553
   13CHL1  H23B  949   0.888   4.710   9.112 -0.5953 -1.6597 -0.4629
   13CHL1   C24  950   0.735   4.768   8.962 -0.2866  0.3291 -0.5096
   13CHL1  H24A  951   0.728   4.681   8.893  0.7999 -1.1486  1.1698
   13CHL1  H24B  952   0.625   4.782   8.970 -0.5290 -1.2161 -0.8999
   13CHL1   C25  953   0.792   4.897   8.898  0.6209 -0.4653  0.0861
   13CHL1   H25  954   0.897   4.884   8.865  0.3681  1.7880 -1.8898
   13CHL1   C26  955   0.717   4.938   8.771  0.2820 -0.1527 -0.2190
   13CHL1  H26A  956   0.736   5.045   8.747 -0.0493 -0.0167  0.1045
   13CHL1  H26B  957   0.742   4.868   8.688 -2.1426 -1.3099 -0.0744
   13CHL1  H26C  958   0.608   4.919   8.785  0.8080 -1.6874  2.5288
   13CHL1   C27  959   0.803   5.016   9.004 -0.1387 -0.6443 -0.6253
   13CHL1  H27A  960   0.884   4.993   9.076 -1.7606 -1.4175  1.0591
   13CHL1  H27B  961   0.837   5.114   8.964 -1.2513 -1.0612 -2.7687
   13CHL1  H27C  962   0.703   5.023   9.052 -0.7528  3.7561 -2.0516
   14CHL1    C3  963   4.758   1.293  10.442  0.0076  0.3663 -0.4916
   14CHL1    H3  964   4.802   1.395  10.432 -0.9945  0.8893  0.3045
   14CHL1    O3  965   4.737   1.259  10.577 -0.5990  0.2429  0.5996
   14CHL1   H3'  966   4.656   1.307  10.596 -1.4614 -0.4330 -1.1910
   14CHL1    C4  967   4.626   1.298  10.367  0.1280  0.5031 -0.6856
   14CHL1   H4A  968   4.567   1.206  10.389 -1.0479  0.8524 -2.2513
   14CHL1   H4B  969   4.566   1.374  10.422 -0.9340 -2.3369  2.5003
   14CHL1    C5  970   4.641   1.319  10.217  0.7060  0.8324 -0.3178
   14CHL1    C6  971   4.580   1.427  10.152 -0.4056 -0.0078 -0.2955
   14CHL1    H6  972   4.512   1.493  10.209  1.1869 -0.5053  2.3829
   14CHL1    C7  973   4.607   1.447  10.008  0.4556 -0.0079  0.0766
   14CHL1   H7A  974   4.522   1.491   9.951  1.1958  1.3258 -0.0389
   14CHL1   H7B  975   4.692   1.517   9.999 -0.4097  0.9437 -1.0605
   14CHL1    C8  976   4.661   1.329   9.926 -0.1935 -0.8389  0.1964
   14CHL1    H8  977   4.583   1.251   9.914  0.9075 -2.0031  0.4198
   14CHL1   C14  978   4.710   1.371   9.788  0.1781  0.4843  0.0460
   14CHL1   H14  979   4.804   1.430   9.795  1.2016 -0.7345 -2.3348
   14CHL1   C15  980   4.618   1.458   9.697 -0.1300 -0.2637 -0.2208
   14CHL1  H15A  981   4.511   1.433   9.684 -0.4478  1.0876 -0.3796
   14CHL1  H15B  982   4.640   1.567   9.710 -2.7393  0.3399 -0.3138
   14CHL1   C16  983   4.674   1.425   9.554  0.0834 -0.2515  0.4090
   14CHL1  H16A  984   4.590   1.376   9.500 -0.3762 -0.2683  1.1331
   14CHL1  H16B  985   4.712   1.516   9.501  0.5253 -0.6206  0.0876
   14CHL1   C17  986   4.788   1.322   9.569  0.2052 -0.1023  0.2299
   14CHL1   H17  987   4.878   1.378   9.601 -0.3522  1.2329 -0.4618
   14CHL1   C13  988   4.752   1.249   9.703  0.6400 -0.3102  0.5393
   14CHL1   C18  989   4.642   1.139   9.674 -0.1122 -0.1964 -0.0283
   14CHL1  H18A  990   4.625   1.081   9.767  0.8317  0.2420  0.4379
   14CHL1  H18B  991   4.541   1.179   9.649 -0.4322 -0.4984  0.7352
   14CHL1  H18C  992   4.661   1.065   9.594 -3.0330 -1.9706  0.7601
   14CHL1   C12  993   4.876   1.180   9.765  0.4581  0.4951 -0.0524
   14CHL1  H12A  994   4.896   1.086   9.709 -1.6646 -1.1237  1.7105
   14CHL1  H12B  995   4.962   1.250   9.751 -0.0120  0.9960 -0.4875
   14CHL1   C11  996   4.838   1.150   9.909 -0.3073 -0.4190 -0.0333
   14CHL1  H11A  997   4.761   1.070   9.904  0.4221 -1.1124 -0.3984
   14CHL1  H11B  998   4.926   1.107   9.961 -0.4416  0.2231  0.7453
   14CHL1    C9  999   4.783   1.264   9.998  0.2055  0.1738 -0.7572
   14CHL1    H9 1000   4.864   1.339  10.003 -1.1211  1.5876  0.5983
   14CHL1   C10 1001   4.739   1.224  10.146 -0.3720  0.1502  0.3634
   14CHL1   C19 1002   4.681   1.086  10.142  0.1352  0.5639  0.4445
   14CHL1  H19A 1003   4.659   1.045  10.243  1.3761 -0.4783  0.3254
   14CHL1  H19B 1004   4.587   1.094  10.085 -0.1957  1.7885  1.1177
   14CHL1  H19C 1005   4.753   1.019  10.090  2.1396  3.0384 -0.1305
   14CHL1    C1 1006   4.871   1.214  10.228  0.2532 -0.7813  0.2238
   14CHL1   H1A 1007   4.931   1.124  10.203  1.9253  0.3812 -0.1037
   14CHL1   H1B 1008   4.932   1.304  10.206 -0.0569 -0.7052 -0.3559
   14CHL1    C2 1009   4.855   1.185  10.383 -0.5517 -0.4166 -0.2710
   14CHL1   H2A 1010   4.955   1.185  10.432  0.0881 -1.1679 -1.5215
   14CHL1   H2B 1011   4.814   1.086  10.412 -0.0747 -0.8048 -0.8879
   14CHL1   C20 1012   4.837   1.237   9.450  0.6660  0.1483 -0.0453
   14CHL1   H20 1013   4.887   1.144   9.484 -0.2412 -0.1916  0.3944
   14CHL1   C21 1014   4.953   1.299   9.387 -0.0661  0.0148 -0.9299
   14CHL1  H21A 1015   4.992   1.222   9.317  1.1224 -0.2005 -0.0727
   14CHL1  H21B 1016   5.031   1.327   9.462  0.5492  1.0656 -1.9253
   14CHL1  H21C 1017   4.922   1.391   9.333  3.6271  1.0882 -1.5197
   14CHL1   C22 1018   4.729   1.212   9.345  0.6976  0.3120  0.0163
   14CHL1  H22A 1019   4.640   1.165   9.393  2.7401 -4.0209  0.0477
   14CHL1  H22B 1020   4.698   1.306   9.295  0.9296  1.1407  1.3712
   14CHL1   C23 1021   4.773   1.117   9.234  0.1219  0.3945  0.3972
   14CHL1  H23A 1022   4.856   1.157   9.172  1.2989 -1.5050  0.6427
   14CHL1  H23B 1023   4.814   1.024   9.281  1.0827  0.5635 -0.0855
   14CHL1   C24 1024   4.659   1.076   9.137 -0.3968 -0.1401  0.0733
   14CHL1  H24A 1025   4.568   1.041   9.190 -0.0796 -0.3124  0.5146
   14CHL1  H24B 1026   4.629   1.166   9.079  3.2768  2.2770  1.5608
   14CHL1   C25 1027   4.684   0.961   9.027 -0.3826  0.4000  0.1109
   14CHL1   H25 1028   4.613   0.972   8.943  0.4493  0.3035 -0.6242
   14CHL1   C26 1029   4.825   0.972   8.964  0.3513  0.0527 -0.7347
   14CHL1  H26A 1030   4.847   0.888   8.895  0.8880 -0.2638 -0.1889
   14CHL1  H26B 1031   4.836   1.065   8.903  2.0033  1.2799  1.2597
   14CHL1  H26C 1032   4.903   0.973   9.044 -1.0102 -1.0064  0.6526
   14CHL1   C27 1033   4.678   0.832   9.113 -0.1747 -0.5204  0.5147
   14CHL1  H27A 1034   4.755   0.841   9.193  1.8683  1.4870 -1.5198
   14CHL1  H27B 1035   4.577   0.814   9.156 -0.8711  0.5936 -0.5916
   14CHL1  H27C 1036   4.699   0.742   9.051 -2.8245 -0.6893 -0.2504
   15CHL1    C3 1037   0.196   5.345  10.239  0.5400 -0.4189  0.2242
   15CHL1    H3 1038   0.224   5.238  10.243 -1.3550 -0.9212  0.9810
   15CHL1    O3 1039   0.170   5.383  10.369 -0.2647  0.0364  0.1790
   15CHL1   H3' 1040   0.260   5.403  10.394  0.3854  0.2229 -2.0503
   15CHL1    C4 1041   0.304   5.433  10.176 -0.2471 -0.2561  0.2746
   15CHL1   H4A 1042   0.277   5.541  10.181  0.6489 -0.0210  0.1239
   15CHL1   H4B 1043   0.397   5.409  10.231 -1.0152 -0.9534  1.2888
   15CHL1    C5 1044   0.325   5.392  10.031  0.4587 -0.0638  0.1231
   15CHL1    C6 1045   0.441   5.339   9.999 -0.5181  0.6426 -0.3256
   15CHL1    H6 1046   0.524   5.334  10.071  0.0730 -1.4579 -1.0674
   15CHL1    C7 1047   0.459   5.288   9.863 -1.3581  0.8173  0.1134
   15CHL1   H7A 1048   0.567   5.292   9.836 -1.3555 -2.1276 -0.5652
   15CHL1   H7B 1049   0.429   5.182   9.870  0.4363  0.2688 -0.0642
   15CHL1    C8 1050   0.354   5.342   9.760  0.1265 -0.2803  0.1169
   15CHL1    H8 1051   0.388   5.446   9.740 -0.5212  0.0092  0.5116
   15CHL1   C14 1052   0.357   5.251   9.638  0.1735  0.4159 -0.8188
   15CHL1   H14 1053   0.315   5.152   9.666 -0.8894  0.7218 -1.2964
   15CHL1   C15 1054   0.493   5.210   9.581  0.0353 -0.6759 -0.6437
   15CHL1  H15A 1055   0.553   5.303   9.579 -1.4245  0.3425  0.4501
   15CHL1  H15B 1056   0.549   5.134   9.641 -1.4143 -0.8711  0.5160
   15CHL1   C16 1057   0.470   5.168   9.438 -0.0909  0.4468 -0.2545
   15CHL1  H16A 1058   0.524   5.235   9.368  2.6169 -1.1751  0.1587
   15CHL1  H16B 1059   0.509   5.066   9.420  0.5295  0.4488  0.9465
   15CHL1   C17 1060   0.315   5.188   9.415 -0.2843  0.0788 -0.2207
   15CHL1   H17 1061   0.272   5.089   9.440 -0.5663 -0.1865 -1.6566
   15CHL1   C13 1062   0.278   5.303   9.517 -0.0644  0.3638 -0.5867
   15CHL1   C18 1063   0.327   5.444   9.467  0.4247  0.2457 -0.4642
   15CHL1  H18A 1064   0.315   5.516   9.550  0.9289 -1.6042  1.2838
   15CHL1  H18B 1065   0.435   5.433   9.440  0.6798  0.3796  0.4698
   15CHL1  H18C 1066   0.256   5.478   9.389 -0.1872  0.0433 -0.0010
   15CHL1   C12 1067   0.126   5.308   9.561  0.0645 -0.9152 -0.5574
   15CHL1  H12A 1068   0.062   5.347   9.478 -0.9804 -1.8456 -0.2099
   15CHL1  H12B 1069   0.093   5.206   9.589  0.7285 -0.8437  0.5219
   15CHL1   C11 1070   0.117   5.386   9.687  0.7022 -0.2425  0.0846
   15CHL1  H11A 1071   0.164   5.487   9.676 -0.2822  0.1844 -0.2826
   15CHL1  H11B 1072   0.013   5.390   9.723  0.6269 -0.0072 -0.1528
   15CHL1    C9 1073   0.207   5.336   9.804 -0.0724 -0.4652  0.1417
   15CHL1    H9 1074   0.180   5.228   9.810  0.2071 -0.5145  0.6227
   15CHL1   C10 1075   0.199   5.403   9.943 -0.1859  0.6583  0.8394
   15CHL1   C19 1076   0.159   5.551   9.923 -0.3639 -0.5527 -0.4148
   15CHL1  H19A 1077   0.125   5.586  10.022  0.2930  0.4409 -0.5237
   15CHL1  H19B 1078   0.245   5.611   9.887 -0.7190  0.3526  0.2354
   15CHL1  H19C 1079   0.072   5.556   9.854  0.1719 -3.3360 -1.4680
   15CHL1    C1 1080   0.081   5.322  10.018  0.2525 -0.6413  0.1684
   15CHL1   H1A 1081  -0.016   5.355   9.975  0.7568  0.2425 -0.3248
   15CHL1   H1B 1082   0.085   5.211  10.014  0.7458 -0.7853  2.8171
   15CHL1    C2 1083   0.061   5.361  10.169 -0.7439 -0.0674  0.1034
   15CHL1   H2A 1084  -0.022   5.298  10.208 -1.5864  0.3448 -0.9879
   15CHL1   H2B 1085   0.029   5.467  10.174 -0.0476  0.0946  1.9217
   15CHL1   C20 1086   0.287   5.214   9.265 -0.6585  0.4439 -0.2502
   15CHL1   H20 1087   0.335   5.308   9.231  1.0301 -0.0829  0.5614
   15CHL1   C21 1088   0.135   5.231   9.245 -0.3980 -0.4237  0.1856
   15CHL1  H21A 1089   0.127   5.191   9.141  1.0208 -0.6063  0.1339
   15CHL1  H21B 1090   0.090   5.331   9.260 -0.7256 -0.6669  0.8606
   15CHL1  H21C 1091   0.080   5.153   9.303 -0.4886  0.8177  1.8336
   15CHL1   C22 1092   0.342   5.105   9.173  0.1792  0.4663  0.2000
   15CHL1  H22A 1093   0.330   5.122   9.063  3.9827  0.6324 -0.3010
   15CHL1  H22B 1094   0.450   5.090   9.192  0.4288  0.7634 -0.9116
   15CHL1   C23 1095   0.276   4.964   9.185  0.3749  0.4441  0.6168
   15CHL1  H23A 1096   0.262   4.921   9.286  0.0582 -0.6760  0.1131
   15CHL1  H23B 1097   0.169   4.975   9.155  0.5558  0.7359  0.0730
   15CHL1   C24 1098   0.335   4.862   9.088  0.1710  0.5374  0.1120
   15CHL1  H24A 1099   0.331   4.917   8.991  2.3931 -0.7377 -0.7632
   15CHL1  H24B 1100   0.442   4.846   9.108 -0.2503  0.1729  2.2614
   15CHL1   C25 1101   0.264   4.728   9.067  0.3487  0.1038  0.4771
   15CHL1   H25 1102   0.154   4.738   9.057  0.3309  0.5118  1.0251
   15CHL1   C26 1103   0.319   4.665   8.933  0.2549  0.3838 -0.5556
   15CHL1  H26A 1104   0.262   4.570   8.920  1.3288 -0.4498  0.6227
   15CHL1  H26B 1105   0.305   4.734   8.847  1.2682 -0.2917 -1.2735
   15CHL1  H26C 1106   0.428   4.645   8.940  0.3348  0.8614 -0.4176
   15CHL1   C27 1107   0.284   4.623   9.183  1.0999  0.0188  0.6341
   15CHL1  H27A 1108   0.217   4.535   9.179 -2.1640  2.0997  3.4501
   15CHL1  H27B 1109   0.387   4.582   9.182  1.0918  0.0030 -0.9144
   15CHL1  H27C 1110   0.266   4.675   9.280  1.1929  1.8616 -0.2982
   16CHL1    C3 1111   5.325   0.872  10.325  0.0398  0.5520  0.5564
   16CHL1    H3 1112   5.337   0.765  10.299 -0.4850  0.5823  0.1638
   16CHL1    O3 1113   5.339   0.887  10.463  0.0481  0.2275 -0.7710
   16CHL1   H3' 1114   5.313   0.974  10.494  0.6375 -0.2497  1.1891
   16CHL1    C4 1115   5.429   0.960  10.262 -0.1053 -0.0730  0.2008
   16CHL1   H4A 1116   5.427   1.065  10.297 -1.8934  0.0577 -0.1929
   16CHL1   H4B 1117   5.531   0.924  10.288 -0.8100 -2.0114  0.4802
   16CHL1    C5 1118   5.432   0.953  10.108 -0.0677  0.4483  0.1413
   16CHL1    C6 1119   5.540   0.915  10.036  0.1462 -0.6585  0.2956
   16CHL1    H6 1120   5.634   0.893  10.089  0.4744 -1.8195 -0.7124
   16CHL1    C7 1121   5.547   0.911   9.887  0.3500  0.3992  0.6017
   16CHL1   H7A 1122   5.627   0.974   9.841  0.5387 -1.8813 -2.5386
   16CHL1   H7B 1123   5.569   0.805   9.861 -1.0561  0.4127 -0.7604
   16CHL1    C8 1124   5.414   0.960   9.823 -0.0997 -0.0369  0.2386
   16CHL1    H8 1125   5.423   1.070   9.810 -2.4839 -0.0088 -2.0538
   16CHL1   C14 1126   5.407   0.907   9.676  0.4166 -0.9471 -0.8130
   16CHL1   H14 1127   5.392   0.799   9.695  2.5393 -1.2386 -0.5782
   16CHL1   C15 1128   5.529   0.926   9.580  0.3751  0.3803  0.6135
   16CHL1  H15A 1129   5.563   1.031   9.569  0.6629  0.1973 -0.4221
   16CHL1  H15B 1130   5.611   0.853   9.598  2.1677  1.7906 -1.3548
   16CHL1   C16 1131   5.466   0.909   9.438 -0.1545  0.0469 -0.7713
   16CHL1  H16A 1132   5.484   0.995   9.370  1.4611 -1.1090 -1.8511
   16CHL1  H16B 1133   5.509   0.823   9.383  2.0499  0.5490  0.0453
   16CHL1   C17 1134   5.309   0.901   9.459 -0.1817 -0.2518  0.2738
   16CHL1   H17 1135   5.285   0.793   9.470 -1.7388  0.0152 -0.2591
   16CHL1   C13 1136   5.278   0.968   9.595  0.4691  0.0472 -0.3538
   16CHL1   C18 1137   5.283   1.121   9.587 -0.1605 -0.5021 -0.2086
   16CHL1  H18A 1138   5.194   1.155   9.528 -0.2210  0.0129  0.1749
   16CHL1  H18B 1139   5.268   1.166   9.687 -0.7868 -1.4167  0.1282
   16CHL1  H18C 1140   5.378   1.155   9.541 -0.2083  1.4028  0.9925
   16CHL1   C12 1141   5.153   0.919   9.673  0.1556  0.1566  0.2557
   16CHL1  H12A 1142   5.059   0.959   9.628  0.4884  3.6099  2.2614
   16CHL1  H12B 1143   5.152   0.808   9.671 -1.2273  0.1538 -1.3898
   16CHL1   C11 1144   5.156   0.970   9.825 -0.3899 -0.0431 -0.1256
   16CHL1  H11A 1145   5.123   1.075   9.838 -4.7343 -1.0484 -1.4950
   16CHL1  H11B 1146   5.080   0.907   9.876 -0.8961 -1.5537 -2.5825
   16CHL1    C9 1147   5.289   0.928   9.895 -0.5975  0.4870 -0.3901
   16CHL1    H9 1148   5.283   0.818   9.901  1.2932  0.4000  1.0341
   16CHL1   C10 1149   5.294   0.979  10.047 -0.6027 -0.5033 -0.0632
   16CHL1   C19 1150   5.274   1.131  10.053 -0.1187 -0.5680 -0.5689
   16CHL1  H19A 1151   5.172   1.166  10.024  1.0744  0.8436 -3.4158
   16CHL1  H19B 1152   5.284   1.181  10.152  1.2226  2.8741 -2.2836
   16CHL1  H19C 1153   5.334   1.193   9.984 -0.6984 -0.4720 -0.9983
   16CHL1    C1 1154   5.179   0.914  10.125  0.0885 -0.0886  0.0016
   16CHL1   H1A 1155   5.086   0.966  10.093  0.1226 -0.7395 -1.2301
   16CHL1   H1B 1156   5.185   0.808  10.091  0.4599  0.5774 -2.1204
   16CHL1    C2 1157   5.190   0.915  10.278  1.0107 -0.1259  1.2245
   16CHL1   H2A 1158   5.101   0.864  10.322  1.2039  0.7018  2.6319
   16CHL1   H2B 1159   5.172   1.022  10.299 -2.4893 -0.3054 -0.1934
   16CHL1   C20 1160   5.231   0.940   9.328 -0.1679  0.3361  0.0344
   16CHL1   H20 1161   5.233   1.049   9.305  1.5022 -0.1100 -2.3072
   16CHL1   C21 1162   5.086   0.897   9.364 -0.1737 -0.3443  0.6617
   16CHL1  H21A 1163   5.021   0.869   9.279 -0.9329  1.1445  0.7232
   16CHL1  H21B 1164   5.036   0.980   9.418 -0.5698 -0.5462  0.6096
   16CHL1  H21C 1165   5.074   0.801   9.419 -1.2998  0.2932  1.6002
   16CHL1   C22 1166   5.285   0.869   9.205  0.0674  0.2343 -0.2012
   16CHL1  H22A 1167   5.389   0.905   9.192 -0.2528  1.9955  1.6590
   16CHL1  H22B 1168   5.270   0.760   9.210 -0.9782  0.2927 -1.4444
   16CHL1   C23 1169   5.209   0.912   9.076  0.0807 -0.0695  0.0250
   16CHL1  H23A 1170   5.195   0.828   9.005 -0.6947 -1.1189  1.3769
   16CHL1  H23B 1171   5.107   0.943   9.104 -0.2190 -0.6897 -0.3507
   16CHL1   C24 1172   5.286   1.025   9.002  0.7587 -0.2509 -0.1631
   16CHL1  H24A 1173   5.304   1.097   9.084  3.5205 -0.4465 -0.5263
   16CHL1  H24B 1174   5.389   0.999   8.970  0.9133 -2.7681  1.9904
   16CHL1   C25 1175   5.199   1.102   8.894 -0.4032  0.7976 -0.0648
   16CHL1   H25 1176   5.101   1.132   8.937 -0.1732 -0.0003  1.0676
   16CHL1   C26 1177   5.269   1.226   8.847  0.4735  0.6230  0.3520
   16CHL1  H26A 1178   5.363   1.203   8.792  0.5039 -0.7324  0.9185
   16CHL1  H26B 1179   5.202   1.290   8.787 -0.2296 -1.9086 -1.7460
   16CHL1  H26C 1180   5.298   1.279   8.941 -4.0531  2.7173  0.8575
   16CHL1   C27 1181   5.164   1.016   8.771  0.0510 -0.1812  0.2165
   16CHL1  H27A 1182   5.114   0.922   8.802 -0.3320  0.1490  0.6057
   16CHL1  H27B 1183   5.089   1.072   8.712 -1.2346 -1.3290  0.7103
   16CHL1  H27C 1184   5.245   1.000   8.696 -0.9472  0.9560 -1.1670
   17CHL1    C3 1185   5.113   2.176  10.284 -0.4371 -0.5695  0.5619
   17CHL1    H3 1186   5.149   2.084  10.233 -1.1358 -0.1804 -0.6666
   17CHL1    O3 1187   5.096   2.147  10.418 -0.4565  0.2473  0.8351
   17CHL1   H3' 1188   5.184   2.129  10.453 -0.2207 -1.4876 -0.5132
   17CHL1    C4 1189   5.207   2.288  10.252  0.3766  0.2290  0.2604
   17CHL1   H4A 1190   5.169   2.379  10.302  0.9229  0.2715  0.6026
   17CHL1   H4B 1191   5.305   2.276  10.303  0.0267 -2.0390  0.5339
   17CHL1    C5 1192   5.232   2.312  10.104 -0.3201  0.1624 -0.2758
   17CHL1    C6 1193   5.355   2.308  10.051  0.1102  0.0904 -0.5787
   17CHL1    H6 1194   5.445   2.291  10.112  0.6928  2.8070 -0.5525
   17CHL1    C7 1195   5.382   2.330   9.910 -0.3402  0.8656 -0.1125
   17CHL1   H7A 1196   5.465   2.403   9.900 -0.4528  0.9634 -0.3359
   17CHL1   H7B 1197   5.408   2.233   9.862  0.1157  1.1711 -0.4920
   17CHL1    C8 1198   5.255   2.386   9.824 -0.2590  0.2175  0.5841
   17CHL1    H8 1199   5.252   2.493   9.853  1.9070  0.0322  1.6523
   17CHL1   C14 1200   5.273   2.372   9.674 -0.1050  0.6312 -0.4357
   17CHL1   H14 1201   5.269   2.263   9.653  0.2658  1.1834 -4.2140
   17CHL1   C15 1202   5.401   2.426   9.606 -0.7677 -0.4311 -0.0352
   17CHL1  H15A 1203   5.436   2.526   9.639 -2.5106  0.4239 -0.7053
   17CHL1  H15B 1204   5.491   2.361   9.621 -0.4371 -0.3730 -1.6614
   17CHL1   C16 1205   5.364   2.442   9.454 -0.0037 -0.5384 -0.1303
   17CHL1  H16A 1206   5.371   2.549   9.424 -3.4170 -0.1105  0.2580
   17CHL1  H16B 1207   5.430   2.379   9.389  0.9640  1.6631 -1.4093
   17CHL1   C17 1208   5.213   2.403   9.447 -0.8368 -0.2090 -0.6012
   17CHL1   H17 1209   5.205   2.294   9.425  1.5829 -0.4186 -0.6979
   17CHL1   C13 1210   5.159   2.422   9.589 -0.0598  0.0099  0.0831
   17CHL1   C18 1211   5.138   2.571   9.613 -0.1974 -0.0994 -0.3870
   17CHL1  H18A 1212   5.054   2.606   9.549  1.0594  1.3487 -1.3089
   17CHL1  H18B 1213   5.116   2.591   9.720  1.0967  2.6460 -0.5393
   17CHL1  H18C 1214   5.231   2.621   9.577  0.9262 -1.4037  0.5791
   17CHL1   C12 1215   5.029   2.351   9.630 -0.3701 -0.6819 -0.5819
   17CHL1  H12A 1216   4.942   2.392   9.576 -0.5815 -0.3610 -0.0062
   17CHL1  H12B 1217   5.039   2.243   9.605  2.2769 -0.5170 -0.5085
   17CHL1   C11 1218   4.997   2.357   9.784 -0.4400  0.3914  0.4580
   17CHL1  H11A 1219   4.969   2.458   9.823  0.2364  0.3395  1.1052
   17CHL1  H11B 1220   4.910   2.289   9.794  0.1845 -0.2520  1.7563
   17CHL1    C9 1221   5.128   2.320   9.867 -0.2304  0.5246 -0.5006
   17CHL1    H9 1222   5.150   2.213   9.845  3.8203  1.2083 -0.4603
   17CHL1   C10 1223   5.101   2.331  10.020 -0.0899  0.1113 -0.9516
   17CHL1   C19 1224   5.040   2.468  10.060 -0.1057 -0.2069  0.3890
   17CHL1  H19A 1225   5.097   2.549  10.009 -2.6532  0.8123 -1.0776
   17CHL1  H19B 1226   4.933   2.475  10.028  0.0322 -1.3005 -0.3671
   17CHL1  H19C 1227   5.039   2.493  10.168 -1.1886  0.4534  0.2448
   17CHL1    C1 1228   4.995   2.225  10.067 -0.0934  0.1626 -0.3831
   17CHL1   H1A 1229   4.903   2.250  10.011  0.2058 -0.1803 -1.0368
   17CHL1   H1B 1230   5.028   2.127  10.027 -0.9857  0.2432 -1.3374
   17CHL1    C2 1231   4.979   2.200  10.216  0.3497 -1.3077 -0.0055
   17CHL1   H2A 1232   4.917   2.109  10.226 -1.4308  0.0873  2.9829
   17CHL1   H2B 1233   4.923   2.285  10.261  2.0122  0.2086 -0.6487
   17CHL1   C20 1234   5.143   2.469   9.324 -0.6656  0.2060 -0.7400
   17CHL1   H20 1235   5.149   2.580   9.335  0.1775  0.3172 -2.0237
   17CHL1   C21 1236   4.995   2.447   9.312 -0.3017 -0.8717 -0.5146
   17CHL1  H21A 1237   4.944   2.477   9.406  0.6730 -0.2081 -0.1878
   17CHL1  H21B 1238   4.970   2.340   9.298 -0.5407 -0.7533 -1.0508
   17CHL1  H21C 1239   4.948   2.514   9.237  1.8268  0.8800 -0.3818
   17CHL1   C22 1240   5.209   2.434   9.181  0.2371 -0.5099 -0.4778
   17CHL1  H22A 1241   5.184   2.519   9.114  1.3636  1.0037  0.9599
   17CHL1  H22B 1242   5.320   2.431   9.174  0.2446 -1.1669 -0.1770
   17CHL1   C23 1243   5.178   2.292   9.135 -0.1463  0.2222 -0.0812
   17CHL1  H23A 1244   5.243   2.218   9.186 -0.1647 -0.2748 -0.7518
   17CHL1  H23B 1245   5.070   2.271   9.147 -0.2818  0.8573 -0.1370
   17CHL1   C24 1246   5.193   2.273   8.977 -0.3608  0.3680  0.6150
   17CHL1  H24A 1247   5.116   2.337   8.930  0.1919 -1.0041 -2.4074
   17CHL1  H24B 1248   5.296   2.312   8.960 -0.2003  0.3755  1.5654
   17CHL1   C25 1249   5.185   2.132   8.919 -0.0394  0.1653 -0.0880
   17CHL1   H25 1250   5.106   2.077   8.975 -1.2502  2.2737  0.4116
   17CHL1   C26 1251   5.142   2.129   8.772 -0.0202 -0.2571  0.1550
   17CHL1  H26A 1252   5.038   2.164   8.756  0.6814  0.8870 -2.6457
   17CHL1  H26B 1253   5.203   2.201   8.714  0.7522 -0.2393  0.9751
   17CHL1  H26C 1254   5.139   2.025   8.732 -2.8483 -0.5333  0.8774
   17CHL1   C27 1255   5.311   2.053   8.943 -0.1982  0.0835 -0.5423
   17CHL1  H27A 1256   5.402   2.103   8.905  0.9681 -1.8909 -0.4656
   17CHL1  H27B 1257   5.334   2.037   9.050 -0.3914 -0.5566 -0.5901
   17CHL1  H27C 1258   5.296   1.955   8.891  1.5842  0.0207 -0.9929
   18CHL1    C3 1259   4.039   2.845  10.344  0.0240  0.0514 -0.0427
   18CHL1    H3 1260   4.140   2.799  10.333  0.4206  0.9997 -0.4886
   18CHL1    O3 1261   4.031   2.874  10.484  0.2695 -0.4975 -0.6724
   18CHL1   H3' 1262   3.979   2.953  10.500  0.8985 -0.3540  0.8093
   18CHL1    C4 1263   4.044   2.974  10.267 -0.3689 -0.0241  1.0705
   18CHL1   H4A 1264   3.958   3.039  10.292 -1.1207 -0.4037 -0.4142
   18CHL1   H4B 1265   4.134   3.031  10.297  0.6847 -0.8291 -0.4340
   18CHL1    C5 1266   4.037   2.945  10.117  0.4528 -0.2110  0.2217
   18CHL1    C6 1267   4.135   2.982  10.033 -0.0410 -0.3211  1.0459
   18CHL1    H6 1268   4.230   3.032  10.061  0.5504 -0.8701  0.0703
   18CHL1    C7 1269   4.125   2.963   9.883 -0.1847  0.2470 -0.0283
   18CHL1   H7A 1270   4.178   3.047   9.834  0.9397 -0.9754 -0.9603
   18CHL1   H7B 1271   4.185   2.872   9.864 -0.5663 -0.4921  2.0103
   18CHL1    C8 1272   3.974   2.945   9.839  0.2809 -0.1675  0.8361
   18CHL1    H8 1273   3.917   3.037   9.864 -0.4511 -0.8531  1.7622
   18CHL1   C14 1274   3.962   2.915   9.691 -0.1991  0.0593  0.2664
   18CHL1   H14 1275   4.005   2.814   9.675 -0.5184 -0.4687  2.3269
   18CHL1   C15 1276   4.045   3.015   9.603  0.1018 -0.0589 -0.4526
   18CHL1  H15A 1277   4.014   3.121   9.609  0.0519 -0.0070 -1.4045
   18CHL1  H15B 1278   4.155   3.002   9.611 -0.0750 -1.0785  0.6775
   18CHL1   C16 1279   3.996   2.969   9.464 -0.5333 -0.1083  0.0904
   18CHL1  H16A 1280   3.979   3.059   9.400 -0.3094 -0.2873 -0.2248
   18CHL1  H16B 1281   4.072   2.914   9.405  0.1896 -0.4707  1.3368
   18CHL1   C17 1282   3.862   2.885   9.477 -0.0131  0.3405 -0.9471
   18CHL1   H17 1283   3.889   2.779   9.457  0.2470  0.2721 -0.2809
   18CHL1   C13 1284   3.823   2.903   9.630  0.2652  0.5904 -0.4523
   18CHL1   C18 1285   3.739   3.023   9.654  0.1637 -0.5079  0.0610
   18CHL1  H18A 1286   3.788   3.107   9.601 -1.1831  0.7423  0.7287
   18CHL1  H18B 1287   3.633   3.011   9.623  0.0612 -1.8453  0.8396
   18CHL1  H18C 1288   3.751   3.051   9.761  0.4876  1.3987 -0.4410
   18CHL1   C12 1289   3.775   2.773   9.698 -0.4444 -0.4011  0.3147
   18CHL1  H12A 1290   3.674   2.748   9.661 -0.6448  0.2441  0.4190
   18CHL1  H12B 1291   3.833   2.685   9.664 -0.3349 -0.2706  0.1612
   18CHL1   C11 1292   3.777   2.788   9.853  0.2111 -0.1398 -0.3803
   18CHL1  H11A 1293   3.698   2.861   9.878  0.4144 -0.5277  1.5742
   18CHL1  H11B 1294   3.754   2.687   9.896 -0.3106  0.2535  0.2849
   18CHL1    C9 1295   3.909   2.835   9.918 -0.9536 -0.0538 -0.1955
   18CHL1    H9 1296   3.980   2.749   9.915 -0.9076 -0.2578  3.0491
   18CHL1   C10 1297   3.913   2.872  10.069  0.2129 -0.2247  0.1663
   18CHL1   C19 1298   3.784   2.953  10.099  0.4721  0.1507 -0.6427
   18CHL1  H19A 1299   3.696   2.888  10.081  0.1373 -0.0119  1.3303
   18CHL1  H19B 1300   3.773   2.990  10.203  0.6842 -1.3757 -0.0518
   18CHL1  H19C 1301   3.780   3.039  10.028 -0.2857 -1.8020 -3.1112
   18CHL1    C1 1302   3.908   2.740  10.158  0.4333  0.5866  0.7495
   18CHL1   H1A 1303   3.813   2.684  10.146  0.6370  0.5010 -0.7379
   18CHL1   H1B 1304   3.992   2.679  10.117 -0.3705  0.4371 -0.7487
   18CHL1    C2 1305   3.925   2.755  10.302  0.5529 -0.1212 -0.0412
   18CHL1   H2A 1306   3.929   2.654  10.350  0.4206 -0.7443 -1.3066
   18CHL1   H2B 1307   3.830   2.801  10.337 -1.4530 -3.6254 -0.3664
   18CHL1   C20 1308   3.755   2.924   9.372 -0.0575 -0.6152 -0.1626
   18CHL1   H20 1309   3.737   3.033   9.388  0.3511 -0.3613 -1.3234
   18CHL1   C21 1310   3.629   2.844   9.396  0.5121 -0.1684  0.1629
   18CHL1  H21A 1311   3.651   2.736   9.384 -0.1723 -0.1416 -1.5517
   18CHL1  H21B 1312   3.549   2.873   9.325  1.1745 -2.5777 -1.7102
   18CHL1  H21C 1313   3.581   2.851   9.496 -1.4841 -1.2174 -0.6624
   18CHL1   C22 1314   3.805   2.914   9.224  0.3101  0.4918 -0.2260
   18CHL1  H22A 1315   3.902   2.966   9.213  0.6586 -0.2378 -0.6401
   18CHL1  H22B 1316   3.829   2.806   9.215  2.6168  0.9082  0.3062
   18CHL1   C23 1317   3.700   2.954   9.117 -0.0803  0.5419 -0.5179
   18CHL1  H23A 1318   3.605   2.897   9.122 -0.4048  1.0885 -0.3591
   18CHL1  H23B 1319   3.662   3.056   9.140 -0.0312  0.2738  0.8797
   18CHL1   C24 1320   3.752   2.940   8.972 -0.3398 -0.6212 -0.8591
   18CHL1  H24A 1321   3.817   3.030   8.971 -0.5923 -0.3631  1.2122
   18CHL1  H24B 1322   3.821   2.853   8.976  1.0724  0.5012  0.7377
   18CHL1   C25 1323   3.651   2.929   8.856  1.0765 -0.3149  0.3739
   18CHL1   H25 1324   3.585   2.841   8.870  0.9066 -0.0406  1.4114
   18CHL1   C26 1325   3.558   3.046   8.866 -0.0867  0.2706 -0.3514
   18CHL1  H26A 1326   3.492   3.052   8.777  2.2307  0.0385 -2.1709
   18CHL1  H26B 1327   3.502   3.035   8.962  1.9133 -0.8205  0.7596
   18CHL1  H26C 1328   3.621   3.138   8.857  1.1981 -0.6660 -1.2677
   18CHL1   C27 1329   3.707   2.923   8.715  0.1746  0.0404 -0.2433
   18CHL1  H27A 1330   3.771   3.010   8.690 -0.9975  1.1244  0.4594
   18CHL1  H27B 1331   3.768   2.831   8.701  1.3694  0.2658  2.7924
   18CHL1  H27C 1332   3.625   2.928   8.639  1.7862  0.8255 -2.0194
   19CHL1    C3 1333   5.951   5.966  10.320  1.2002 -0.2285 -0.4701
   19CHL1    H3 1334   5.928   6.059  10.263 -0.0086 -0.2001  0.0171
   19CHL1    O3 1335   5.954   5.992  10.461 -0.2922  0.3819 -0.3614
   19CHL1   H3' 1336   5.990   6.080  10.469  1.8115 -0.5374  1.2785
   19CHL1    C4 1337   5.846   5.860  10.294  0.0911  0.0078  0.3660
   19CHL1   H4A 1338   5.882   5.772  10.352  0.5311  0.8757  1.4470
   19CHL1   H4B 1339   5.746   5.893  10.328 -0.8150 -0.4397 -1.7122
   19CHL1    C5 1340   5.849   5.816  10.151  0.4352  0.2003 -0.0590
   19CHL1    C6 1341   5.738   5.837  10.070  0.5086 -0.0692 -0.6037
   19CHL1    H6 1342   5.646   5.876  10.116  2.1541  2.9419  0.3966
   19CHL1    C7 1343   5.730   5.809   9.925  0.4291 -0.1765  0.5029
   19CHL1   H7A 1344   5.639   5.752   9.897  0.1867  0.2574  0.4106
   19CHL1   H7B 1345   5.722   5.907   9.875 -0.9653 -1.8550 -2.8146
   19CHL1    C8 1346   5.856   5.728   9.874  0.8095  0.1458 -0.0587
   19CHL1    H8 1347   5.842   5.623   9.908 -1.3874  0.2705 -0.4431
   19CHL1   C14 1348   5.867   5.745   9.721  0.6958 -0.7180  0.0426
   19CHL1   H14 1349   5.896   5.849   9.697  2.4575 -1.5997 -1.9210
   19CHL1   C15 1350   5.742   5.733   9.640  1.0470 -0.5262 -0.0262
   19CHL1  H15A 1351   5.677   5.645   9.660  0.7243 -0.2806  0.0178
   19CHL1  H15B 1352   5.669   5.816   9.648  0.2411 -1.3504  5.3019
   19CHL1   C16 1353   5.796   5.705   9.501 -0.5223  0.5464 -0.3811
   19CHL1  H16A 1354   5.745   5.617   9.456 -4.5048  1.4983  1.8068
   19CHL1  H16B 1355   5.768   5.789   9.434 -0.7939  1.0048  0.3047
   19CHL1   C17 1356   5.950   5.692   9.508  0.0619  0.6926  0.0620
   19CHL1   H17 1357   5.989   5.796   9.499  0.5294  0.5362  0.2437
   19CHL1   C13 1358   5.979   5.663   9.657 -0.1559 -0.0877  0.4262
   19CHL1   C18 1359   5.958   5.514   9.685 -0.4439 -0.0964 -1.2791
   19CHL1  H18A 1360   5.859   5.479   9.648 -1.0922  0.0512  0.2494
   19CHL1  H18B 1361   6.038   5.450   9.642  0.7630  0.7832 -0.3898
   19CHL1  H18C 1362   5.944   5.487   9.792 -1.9361  2.7977 -0.6411
   19CHL1   C12 1363   6.113   5.707   9.714 -0.5089 -0.1645 -0.0694
   19CHL1  H12A 1364   6.194   5.636   9.688 -1.7257 -1.2006 -1.2007
   19CHL1  H12B 1365   6.142   5.805   9.672  0.4408  0.2035  1.3530
   19CHL1   C11 1366   6.109   5.712   9.870 -0.2435  0.0984 -0.0147
   19CHL1  H11A 1367   6.099   5.605   9.899 -1.3068  0.1069 -0.2796
   19CHL1  H11B 1368   6.198   5.748   9.925 -1.7430 -0.2550  2.8712
   19CHL1    C9 1369   5.984   5.781   9.935  0.4305  0.0916  0.4030
   19CHL1    H9 1370   5.981   5.888   9.905  0.6215 -0.1932 -0.6746
   19CHL1   C10 1371   5.986   5.777  10.091  0.0998 -0.0494  0.7379
   19CHL1   C19 1372   6.021   5.642  10.140  0.2334 -0.5020 -0.0283
   19CHL1  H19A 1373   5.950   5.572  10.092 -0.2330 -1.0331  1.3694
   19CHL1  H19B 1374   6.129   5.626  10.119  0.7111  2.3954 -0.0745
   19CHL1  H19C 1375   5.998   5.630  10.248 -0.2150 -1.4992 -0.2219
   19CHL1    C1 1376   6.098   5.875  10.138 -0.1664  0.5140  0.4730
   19CHL1   H1A 1377   6.195   5.822  10.125 -1.0280 -1.0692  0.2644
   19CHL1   H1B 1378   6.102   5.966  10.075 -0.2694  0.1211 -0.1116
   19CHL1    C2 1379   6.090   5.915  10.284 -0.5646  0.3371 -0.7403
   19CHL1   H2A 1380   6.164   5.996  10.300 -1.2847  0.8215  0.3250
   19CHL1   H2B 1381   6.120   5.826  10.344  0.2966  0.7908 -0.4786
   19CHL1   C20 1382   6.022   5.600   9.400 -0.0761  0.3240  0.1090
   19CHL1   H20 1383   5.999   5.494   9.426  0.7870  0.3648  1.0807
   19CHL1   C21 1384   6.177   5.616   9.422  0.5309  0.1277  0.0558
   19CHL1  H21A 1385   6.242   5.571   9.344  0.5830 -2.2613  1.3743
   19CHL1  H21B 1386   6.216   5.572   9.516  1.1442  0.3725 -0.0777
   19CHL1  H21C 1387   6.209   5.722   9.417  1.8514 -0.2518 -0.1144
   19CHL1   C22 1388   5.980   5.631   9.258 -0.7275  0.1737  0.6167
   19CHL1  H22A 1389   5.871   5.622   9.241 -0.9701  3.5548 -0.2989
   19CHL1  H22B 1390   5.993   5.739   9.235  2.3447 -0.8603 -3.7240
   19CHL1   C23 1391   6.063   5.552   9.153 -0.1127 -0.7650 -0.5180
   19CHL1  H23A 1392   6.025   5.583   9.054 -0.4975 -2.8310 -1.0689
   19CHL1  H23B 1393   6.169   5.585   9.150 -1.1344  2.7994 -3.0093
   19CHL1   C24 1394   6.047   5.405   9.150  0.9331  0.5166 -0.3099
   19CHL1  H24A 1395   6.120   5.373   9.228  0.6137 -0.4422 -0.3997
   19CHL1  H24B 1396   5.945   5.371   9.177  0.1938  0.0529 -3.3617
   19CHL1   C25 1397   6.067   5.344   9.006 -0.3398 -0.4880  1.0529
   19CHL1   H25 1398   5.998   5.400   8.940  1.5911  2.8600  1.5784
   19CHL1   C26 1399   6.209   5.369   8.936 -0.3441  0.1912 -0.0971
   19CHL1  H26A 1400   6.298   5.323   8.983  1.4774  1.5380 -2.0648
   19CHL1  H26B 1401   6.207   5.342   8.828  0.2484  0.9069 -0.2946
   19CHL1  H26C 1402   6.223   5.479   8.932 -0.3457  0.1648 -1.0324
   19CHL1   C27 1403   6.049   5.192   9.007  0.1948  0.1577  0.4193
   19CHL1  H27A 1404   6.116   5.147   9.083  1.1095 -1.4903 -1.2741
   19CHL1  H27B 1405   5.941   5.175   9.028 -0.1186  1.0565 -0.3741
   19CHL1  H27C 1406   6.074   5.146   8.909 -0.7121  0.0140  0.2419
   20CHL1    C3 1407   0.308   6.603  10.185 -0.8521  0.4561 -0.0033
   20CHL1    H3 1408   0.232   6.522  10.180 -0.5063  0.2032 -3.3153
   20CHL1    O3 1409   0.377   6.629  10.306 -0.1900  0.6560 -0.1579
   20CHL1   H3' 1410   0.363   6.549  10.359 -0.5265  1.4442  0.9891
   20CHL1    C4 1411   0.416   6.575  10.078  0.2164  0.5389  0.3010
   20CHL1   H4A 1412   0.502   6.646  10.074  0.3052  0.5465  1.7524
   20CHL1   H4B 1413   0.453   6.482  10.126 -1.0246 -0.1524 -0.0462
   20CHL1    C5 1414   0.348   6.562   9.943  0.1468 -0.4668 -0.7760
   20CHL1    C6 1415   0.368   6.459   9.860 -0.1081 -0.6842  0.8397
   20CHL1    H6 1416   0.412   6.371   9.908 -0.6832 -0.2088  2.3229
   20CHL1    C7 1417   0.306   6.447   9.731 -0.2622 -0.1177  0.6624
   20CHL1   H7A 1418   0.373   6.391   9.663  0.8800  0.9223  0.9062
   20CHL1   H7B 1419   0.213   6.386   9.734 -2.0399  2.2577 -1.1310
   20CHL1    C8 1420   0.277   6.587   9.668  0.0178  0.1553  0.2215
   20CHL1    H8 1421   0.374   6.639   9.654  0.8880 -0.7360  2.5275
   20CHL1   C14 1422   0.204   6.571   9.532 -0.2280 -0.0913 -0.9381
   20CHL1   H14 1423   0.105   6.531   9.563 -0.0373 -0.6895 -1.0829
   20CHL1   C15 1424   0.262   6.477   9.424 -0.3967  0.3312  0.0278
   20CHL1  H15A 1425   0.372   6.490   9.415 -0.4800 -0.1920 -2.2045
   20CHL1  H15B 1426   0.245   6.369   9.443  0.7604 -0.0931 -1.2045
   20CHL1   C16 1427   0.208   6.526   9.289 -0.9840 -0.3166 -0.3741
   20CHL1  H16A 1428   0.291   6.546   9.218 -0.8719 -1.0062 -0.4424
   20CHL1  H16B 1429   0.155   6.441   9.241  0.3391 -0.7767 -1.0488
   20CHL1   C17 1430   0.116   6.654   9.322  0.0455 -0.3987 -0.1158
   20CHL1   H17 1431   0.013   6.616   9.341  0.2233 -0.6670  0.3287
   20CHL1   C13 1432   0.171   6.706   9.461  1.1065 -0.4225  0.0798
   20CHL1   C18 1433   0.300   6.779   9.426  0.2841 -0.3733  0.0800
   20CHL1  H18A 1434   0.347   6.813   9.521 -0.0191 -0.9785  0.4458
   20CHL1  H18B 1435   0.374   6.714   9.374 -0.9760 -2.5449  0.8972
   20CHL1  H18C 1436   0.283   6.874   9.370  0.6215 -0.3336  0.0439
   20CHL1   C12 1437   0.072   6.777   9.553 -0.0159  0.3136  0.1427
   20CHL1  H12A 1438   0.056   6.878   9.508  2.3002  0.5629 -0.2499
   20CHL1  H12B 1439  -0.021   6.719   9.565  0.5677 -0.7007 -0.1615
   20CHL1   C11 1440   0.129   6.800   9.697 -0.3193  1.1087 -0.3495
   20CHL1  H11A 1441   0.205   6.880   9.683 -0.1948  0.9803 -0.4104
   20CHL1  H11B 1442   0.045   6.837   9.759  0.4547  0.6757  1.0041
   20CHL1    C9 1443   0.191   6.673   9.763 -0.4458 -0.1446 -0.0190
   20CHL1    H9 1444   0.115   6.598   9.791  1.3359 -0.7893  3.8753
   20CHL1   C10 1445   0.265   6.693   9.903  0.9451 -0.2133  0.0914
   20CHL1   C19 1446   0.372   6.807   9.886  0.4984  0.2456 -0.4451
   20CHL1  H19A 1447   0.444   6.788   9.803  0.2390  0.9455 -0.8405
   20CHL1  H19B 1448   0.315   6.899   9.862  0.9893  0.9178  0.8868
   20CHL1  H19C 1449   0.428   6.836   9.977  1.5606  3.0000 -1.8771
   20CHL1    C1 1450   0.167   6.741  10.017 -0.3046 -0.3050  0.5022
   20CHL1   H1A 1451   0.132   6.845   9.999  1.1366 -0.2182 -2.3331
   20CHL1   H1B 1452   0.084   6.667  10.016  2.1309 -3.3758 -2.4044
   20CHL1    C2 1453   0.228   6.733  10.159  0.4136 -0.0107 -0.4375
   20CHL1   H2A 1454   0.150   6.733  10.238  0.9627 -1.0762  0.1201
   20CHL1   H2B 1455   0.296   6.818  10.180  1.3671 -0.9719  0.5111
   20CHL1   C20 1456   0.109   6.742   9.199 -0.0074 -0.7767  0.2785
   20CHL1   H20 1457   0.210   6.767   9.161  0.0435 -0.3231  0.6952
   20CHL1   C21 1458   0.033   6.875   9.230 -0.2232  0.3903 -0.1871
   20CHL1  H21A 1459  -0.062   6.856   9.284 -0.4700  1.1410 -0.3555
   20CHL1  H21B 1460   0.025   6.930   9.135 -0.9169  1.6667  0.5826
   20CHL1  H21C 1461   0.101   6.933   9.297  0.0617 -1.3451  1.1056
   20CHL1   C22 1462   0.043   6.656   9.089  0.1162 -0.1281  0.5802
   20CHL1  H22A 1463   0.105   6.565   9.073  1.3925  0.5975  1.2556
   20CHL1  H22B 1464  -0.059   6.625   9.121 -0.9268 -1.2496 -3.2581
   20CHL1   C23 1465   0.015   6.724   8.949 -0.6357  0.5244 -0.8888
   20CHL1  H23A 1466  -0.068   6.792   8.981 -0.4600 -0.0295  0.8970
   20CHL1  H23B 1467   0.106   6.783   8.926 -0.4260  1.1856  1.3580
   20CHL1   C24 1468  -0.012   6.631   8.837 -0.3862 -0.2133 -0.6370
   20CHL1  H24A 1469   0.076   6.563   8.836 -1.2982 -1.6649  2.6995
   20CHL1  H24B 1470  -0.104   6.571   8.857 -0.9172  0.3904 -1.2176
   20CHL1   C25 1471  -0.015   6.698   8.702  0.1124  0.3692  0.3028
   20CHL1   H25 1472   0.079   6.758   8.697  0.0167  0.5149  0.2289
   20CHL1   C26 1473  -0.011   6.600   8.586 -0.4500  0.2874  0.1450
   20CHL1  H26A 1474  -0.100   6.534   8.574 -2.7403  3.0663  0.6673
   20CHL1  H26B 1475   0.016   6.649   8.490  0.9876  0.7631  0.7560
   20CHL1  H26C 1476   0.075   6.534   8.609 -0.3758  0.9293  1.8519
   20CHL1   C27 1477  -0.133   6.788   8.690 -0.4807 -0.3627 -0.3288
   20CHL1  H27A 1478  -0.142   6.840   8.592 -2.2687  0.6745  0.3242
   20CHL1  H27B 1479  -0.224   6.725   8.702 -0.3313 -0.1439  2.4013
   20CHL1  H27C 1480  -0.137   6.871   8.764 -1.7297  1.2676 -2.1177
   21CHL1    C3 1481   0.918   1.746  10.135  0.3130  0.2465  0.0309
   21CHL1    H3 1482   0.995   1.667  10.124 -1.8192 -2.1855  1.5829
   21CHL1    O3 1483   0.900   1.772  10.272 -0.6060  0.0311 -0.4100
   21CHL1   H3' 1484   0.815   1.814  10.287 -1.0369 -0.3385 -1.6719
   21CHL1    C4 1485   0.969   1.875  10.067  0.4212 -0.9886 -0.1065
   21CHL1   H4A 1486   0.902   1.960  10.094  1.2401  0.0647 -1.2888
   21CHL1   H4B 1487   1.065   1.910  10.110  0.3042 -1.8351  0.8915
   21CHL1    C5 1488   0.983   1.862   9.916 -0.1705 -0.2196 -0.0232
   21CHL1    C6 1489   1.097   1.890   9.848 -0.0334 -0.2621 -0.4700
   21CHL1    H6 1490   1.183   1.927   9.906 -1.3665  2.7362 -0.2421
   21CHL1    C7 1491   1.114   1.895   9.700  0.0011  0.0857  0.3885
   21CHL1   H7A 1492   1.161   1.993   9.679 -0.0150  0.1387  0.5942
   21CHL1   H7B 1493   1.188   1.828   9.651 -0.0280 -1.7166  2.6376
   21CHL1    C8 1494   0.977   1.863   9.624 -0.1913 -0.5052  0.1751
   21CHL1    H8 1495   0.933   1.964   9.613  0.4657 -0.3089 -0.6859
   21CHL1   C14 1496   1.015   1.813   9.481 -0.5089 -0.1019  0.2902
   21CHL1   H14 1497   1.059   1.712   9.497  0.9019  0.0000 -2.2998
   21CHL1   C15 1498   1.114   1.891   9.393  0.3100 -0.1634 -0.5151
   21CHL1  H15A 1499   1.107   2.002   9.394  2.2714 -0.0168  0.4270
   21CHL1  H15B 1500   1.215   1.855   9.422 -0.5648 -1.3392  1.2598
   21CHL1   C16 1501   1.075   1.846   9.254  0.5086 -0.4086  0.1118
   21CHL1  H16A 1502   1.056   1.932   9.186 -0.1596 -0.3455  0.3647
   21CHL1  H16B 1503   1.151   1.783   9.203 -0.5736 -2.7325  1.2118
   21CHL1   C17 1504   0.949   1.752   9.261  0.7224 -0.1942  0.9248
   21CHL1   H17 1505   0.990   1.649   9.266 -2.1224 -1.3582  2.6804
   21CHL1   C13 1506   0.886   1.790   9.401 -0.1950 -0.6799  0.3926
   21CHL1   C18 1507   0.809   1.923   9.384 -0.2642  0.4632 -0.0651
   21CHL1  H18A 1508   0.777   1.967   9.481  0.7682  0.3474  0.3442
   21CHL1  H18B 1509   0.872   1.997   9.330  0.7085 -1.3838 -1.5695
   21CHL1  H18C 1510   0.716   1.907   9.327 -0.1004 -1.6056  0.1871
   21CHL1   C12 1511   0.802   1.685   9.471  0.4051 -0.0593 -1.1384
   21CHL1  H12A 1512   0.709   1.662   9.414 -2.3412 -0.5042  3.0279
   21CHL1  H12B 1513   0.874   1.601   9.484 -0.3519 -0.7636 -1.4036
   21CHL1   C11 1514   0.766   1.725   9.618  0.0638  0.2545  0.6137
   21CHL1  H11A 1515   0.700   1.814   9.605  1.2316  0.8714 -1.3320
   21CHL1  H11B 1516   0.699   1.648   9.663 -0.7217  1.1392  1.0038
   21CHL1    C9 1517   0.889   1.769   9.700 -0.1275  0.2686  0.5936
   21CHL1    H9 1518   0.950   1.677   9.710 -0.5848 -0.1123 -0.0214
   21CHL1   C10 1519   0.857   1.808   9.848 -0.6954  0.5953 -0.0647
   21CHL1   C19 1520   0.749   1.904   9.838  0.6243 -0.2330 -0.1049
   21CHL1  H19A 1521   0.773   1.987   9.768  0.0490  1.3190  1.4238
   21CHL1  H19B 1522   0.656   1.854   9.806  0.9774 -1.0659  0.1576
   21CHL1  H19C 1523   0.741   1.951   9.939 -1.7613 -0.8715  0.0595
   21CHL1    C1 1524   0.802   1.682   9.921 -0.0822 -0.8655  0.4756
   21CHL1   H1A 1525   0.704   1.660   9.876 -0.2428 -0.9761  0.8751
   21CHL1   H1B 1526   0.861   1.590   9.903 -0.1666 -0.5148 -1.8566
   21CHL1    C2 1527   0.784   1.705  10.077 -0.4429 -0.2048  0.0399
   21CHL1   H2A 1528   0.754   1.606  10.118 -0.5108  0.3143  1.3002
   21CHL1   H2B 1529   0.712   1.788  10.092 -1.4326 -1.4190  2.5014
   21CHL1   C20 1530   0.852   1.764   9.136  0.4855 -0.3955  0.6874
   21CHL1   H20 1531   0.818   1.868   9.118  2.1167 -0.2596 -2.3376
   21CHL1   C21 1532   0.722   1.689   9.166 -0.0950 -0.5410  1.0457
   21CHL1  H21A 1533   0.646   1.748   9.222 -4.2085 -2.4124 -2.0095
   21CHL1  H21B 1534   0.731   1.588   9.212  1.1144 -0.7440  0.4183
   21CHL1  H21C 1535   0.678   1.671   9.065  0.4664 -0.0218  0.7036
   21CHL1   C22 1536   0.913   1.724   9.002  0.1591 -0.3228 -0.5534
   21CHL1  H22A 1537   1.009   1.673   9.025  0.2613  0.3581  0.5968
   21CHL1  H22B 1538   0.853   1.653   8.941 -0.5474 -0.6651  0.5161
   21CHL1   C23 1539   0.919   1.836   8.900 -0.8605  0.4995  0.8907
   21CHL1  H23A 1540   0.812   1.860   8.885 -1.4034 -2.7403 -1.2341
   21CHL1  H23B 1541   0.974   1.925   8.938  0.5979 -0.3229  0.8060
   21CHL1   C24 1542   0.978   1.793   8.765  0.3727 -0.3558  0.2527
   21CHL1  H24A 1543   0.918   1.707   8.727  4.0977 -2.7724 -0.6904
   21CHL1  H24B 1544   0.978   1.883   8.700  0.4998  0.9573  2.0069
   21CHL1   C25 1545   1.121   1.737   8.759  0.6368  0.6768 -0.0275
   21CHL1   H25 1546   1.118   1.639   8.810 -2.0714 -0.3100 -1.8847
   21CHL1   C26 1547   1.171   1.708   8.615 -0.1336  0.1585 -0.5893
   21CHL1  H26A 1548   1.168   1.802   8.557 -2.6491  0.8588  0.5324
   21CHL1  H26B 1549   1.271   1.659   8.618 -0.4582 -0.5669 -1.1368
   21CHL1  H26C 1550   1.093   1.637   8.578  0.7797 -1.0656 -0.2201
   21CHL1   C27 1551   1.213   1.832   8.825  0.1303 -0.6310 -0.1681
   21CHL1  H27A 1552   1.201   1.829   8.935 -1.1319  0.3195 -0.2477
   21CHL1  H27B 1553   1.316   1.796   8.806 -0.1018 -1.0342 -0.6705
   21CHL1  H27C 1554   1.196   1.935   8.786 -0.7202 -0.5897  0.2865
   22CHL1    C3 1555   1.813   2.457  10.167 -0.2607  0.0498  0.2275
   22CHL1    H3 1556   1.904   2.423  10.222 -0.3302  0.1575  0.4103
   22CHL1    O3 1557   1.722   2.506  10.258  0.0915  0.0329 -0.7733
   22CHL1   H3' 1558   1.644   2.537  10.212 -1.6597 -0.4608  1.6757
   22CHL1    C4 1559   1.841   2.571  10.065  0.5260  0.3546  0.7563
   22CHL1   H4A 1560   1.744   2.605  10.022 -1.5417 -1.9518  3.2436
   22CHL1   H4B 1561   1.884   2.652  10.126  0.2311 -2.2107  4.7279
   22CHL1    C5 1562   1.934   2.527   9.953 -0.5291 -0.3271  0.7863
   22CHL1    C6 1563   2.047   2.588   9.927  0.0496  0.7632  0.5089
   22CHL1    H6 1564   2.075   2.673   9.991 -1.9971  1.7048  0.2025
   22CHL1    C7 1565   2.143   2.553   9.823 -0.2576  0.2800 -0.5825
   22CHL1   H7A 1566   2.183   2.634   9.758  1.5346  0.1118  0.2385
   22CHL1   H7B 1567   2.241   2.515   9.859 -1.0436 -2.0969 -0.7430
   22CHL1    C8 1568   2.083   2.456   9.718  0.2796  0.0304  0.2106
   22CHL1    H8 1569   2.008   2.511   9.657  0.8328 -0.9695 -1.4143
   22CHL1   C14 1570   2.196   2.399   9.632  0.5697  0.5811 -0.4553
   22CHL1   H14 1571   2.254   2.321   9.685 -1.6587  0.6408  2.3359
   22CHL1   C15 1572   2.303   2.492   9.581 -1.1203 -0.1944  0.5675
   22CHL1  H15A 1573   2.259   2.585   9.540 -0.9535 -0.6591 -0.7384
   22CHL1  H15B 1574   2.374   2.520   9.661 -1.5763  2.4237  0.1558
   22CHL1   C16 1575   2.377   2.409   9.472  1.0376  0.0437  0.1201
   22CHL1  H16A 1576   2.379   2.471   9.380 -0.9786 -1.5892 -1.1105
   22CHL1  H16B 1577   2.483   2.383   9.493  0.1980 -1.1432  3.5863
   22CHL1   C17 1578   2.290   2.284   9.454  0.1107 -0.8543 -0.7932
   22CHL1   H17 1579   2.333   2.208   9.523  0.6573  0.6790  0.6151
   22CHL1   C13 1580   2.152   2.320   9.510 -0.2597 -0.8247 -0.5304
   22CHL1   C18 1581   2.074   2.416   9.410 -0.1875  0.1011 -0.3510
   22CHL1  H18A 1582   2.142   2.500   9.382  2.0236 -2.3011 -2.8066
   22CHL1  H18B 1583   2.061   2.362   9.314  1.7117  0.7310 -1.0119
   22CHL1  H18C 1584   1.989   2.470   9.456  0.2641  1.0991 -0.6573
   22CHL1   C12 1585   2.055   2.208   9.555  0.1481  0.7389 -0.4184
   22CHL1  H12A 1586   1.997   2.158   9.475  0.0649 -1.2135  0.8090
   22CHL1  H12B 1587   2.116   2.131   9.607 -2.0657 -1.7588 -1.2784
   22CHL1   C11 1588   1.956   2.257   9.666 -0.0718 -0.3248 -0.4805
   22CHL1  H11A 1589   1.884   2.315   9.603  2.8617  1.0397 -2.8276
   22CHL1  H11B 1590   1.893   2.173   9.704 -0.8347  0.5785  0.3258
   22CHL1    C9 1591   2.007   2.342   9.784  0.0263  0.0791 -0.8693
   22CHL1    H9 1592   2.075   2.283   9.849 -1.2530 -1.4576 -0.8697
   22CHL1   C10 1593   1.885   2.396   9.876 -0.3233 -0.3249  0.6198
   22CHL1   C19 1594   1.753   2.429   9.790  0.6410 -0.1410 -0.0347
   22CHL1  H19A 1595   1.767   2.482   9.693 -1.4890  0.3166 -0.1338
   22CHL1  H19B 1596   1.694   2.341   9.757 -0.1229 -0.3919  1.9022
   22CHL1  H19C 1597   1.675   2.485   9.845  0.0068  0.1614 -1.2147
   22CHL1    C1 1598   1.849   2.290   9.982  0.4718 -0.3195  0.6243
   22CHL1   H1A 1599   1.806   2.200   9.932 -0.1938 -2.6293  4.9316
   22CHL1   H1B 1600   1.943   2.266  10.036 -0.0757  0.4179  1.9403
   22CHL1    C2 1601   1.752   2.334  10.095 -0.3196  0.0520  0.1584
   22CHL1   H2A 1602   1.727   2.245  10.157  2.4224  0.1381  1.5321
   22CHL1   H2B 1603   1.661   2.384  10.056  0.2122  1.8399  1.0918
   22CHL1   C20 1604   2.285   2.227   9.313 -0.5762 -0.1823  0.0259
   22CHL1   H20 1605   2.237   2.296   9.240 -0.3250 -0.5239 -0.4770
   22CHL1   C21 1606   2.193   2.107   9.301  0.2783 -0.0337 -0.4089
   22CHL1  H21A 1607   2.202   2.041   9.390 -1.4001 -1.0924 -0.9786
   22CHL1  H21B 1608   2.219   2.037   9.219 -0.9159 -2.5146  1.2013
   22CHL1  H21C 1609   2.085   2.131   9.290  0.5676  1.4487 -0.1563
   22CHL1   C22 1610   2.436   2.195   9.267  0.0693  0.3011  0.3348
   22CHL1  H22A 1611   2.497   2.287   9.283 -0.3557  0.6789 -0.1855
   22CHL1  H22B 1612   2.471   2.121   9.342 -1.2792 -0.9382 -0.2005
   22CHL1   C23 1613   2.454   2.163   9.120 -0.6573 -0.4097 -0.3366
   22CHL1  H23A 1614   2.368   2.097   9.095  0.0036 -1.4961  0.1745
   22CHL1  H23B 1615   2.449   2.245   9.046  1.6412 -0.8492 -1.0484
   22CHL1   C24 1616   2.578   2.080   9.079 -0.7337 -0.1057 -0.7582
   22CHL1  H24A 1617   2.653   2.162   9.076  0.0777 -0.6996  1.3750
   22CHL1  H24B 1618   2.611   2.001   9.150  1.7982  1.2771 -0.2888
   22CHL1   C25 1619   2.577   2.012   8.942  0.2385 -0.0149  0.4690
   22CHL1   H25 1620   2.537   2.086   8.870 -1.9847 -0.4284  1.1980
   22CHL1   C26 1621   2.719   1.969   8.900 -0.3968 -0.7672  0.3853
   22CHL1  H26A 1622   2.715   1.933   8.795  2.1474 -0.0163 -0.0535
   22CHL1  H26B 1623   2.791   2.054   8.895 -0.5876 -0.6133  0.1788
   22CHL1  H26C 1624   2.759   1.885   8.961  0.3614  0.3355  1.4500
   22CHL1   C27 1625   2.489   1.888   8.938  0.5905 -0.0985 -0.1336
   22CHL1  H27A 1626   2.489   1.855   8.832  1.8593 -0.1861 -0.1181
   22CHL1  H27B 1627   2.543   1.810   8.995 -0.4560 -0.1725  0.8019
   22CHL1  H27C 1628   2.385   1.903   8.974  0.8421 -0.8414  0.9442
   23CHL1    C3 1629   4.204   5.928  10.085  0.3428 -0.0294 -0.4196
   23CHL1    H3 1630   4.277   6.011  10.074 -1.5355  2.2024  2.4842
   23CHL1    O3 1631   4.166   5.941  10.221 -0.5185  0.5537  0.2438
   23CHL1   H3' 1632   4.233   5.898  10.275  1.1466  0.7219 -1.5560
   23CHL1    C4 1633   4.090   5.944   9.985  0.6355 -0.3068  0.0725
   23CHL1   H4A 1634   4.031   5.850   9.994  1.8913 -1.2873 -1.2386
   23CHL1   H4B 1635   4.020   6.026  10.008 -0.0473 -0.2377 -2.0292
   23CHL1    C5 1636   4.155   5.958   9.848  0.4807 -0.1635  0.3757
   23CHL1    C6 1637   4.144   6.080   9.786 -0.4731  0.7399 -0.3284
   23CHL1    H6 1638   4.093   6.163   9.837  1.6384  1.3140  0.9481
   23CHL1    C7 1639   4.198   6.100   9.647 -0.2425 -0.0545  0.2605
   23CHL1   H7A 1640   4.129   6.159   9.582  0.0785  0.2061  0.1569
   23CHL1   H7B 1641   4.284   6.169   9.659 -1.1296  0.5836  4.6939
   23CHL1    C8 1642   4.252   5.972   9.569 -0.5645 -0.0692 -0.0439
   23CHL1    H8 1643   4.164   5.919   9.526 -0.3930  1.2240 -2.0864
   23CHL1   C14 1644   4.352   6.010   9.464  0.2022 -0.3142 -0.8104
   23CHL1   H14 1645   4.432   6.058   9.526 -1.5399 -1.2372  2.3773
   23CHL1   C15 1646   4.297   6.104   9.363  0.6259 -0.3386  0.1706
   23CHL1  H15A 1647   4.195   6.081   9.326  0.8411 -0.4880 -0.3305
   23CHL1  H15B 1648   4.291   6.210   9.399 -1.7251 -0.6311  0.8410
   23CHL1   C16 1649   4.389   6.100   9.245  0.3759  0.9301 -0.0188
   23CHL1  H16A 1650   4.319   6.068   9.165 -0.5438 -1.2975  1.5732
   23CHL1  H16B 1651   4.439   6.198   9.227  2.8521  0.3362  2.7388
   23CHL1   C17 1652   4.492   5.988   9.282  0.3011 -0.3945 -0.2375
   23CHL1   H17 1653   4.571   6.046   9.335 -0.7539 -1.5652  2.8291
   23CHL1   C13 1654   4.420   5.900   9.385  0.8413  0.1601 -0.8725
   23CHL1   C18 1655   4.314   5.822   9.310  0.0797  0.8997 -0.2729
   23CHL1  H18A 1656   4.254   5.757   9.377  0.3247  1.4565  0.5036
   23CHL1  H18B 1657   4.245   5.885   9.248  2.3934  2.7697 -1.0913
   23CHL1  H18C 1658   4.377   5.759   9.245  0.8422 -0.7245  1.9314
   23CHL1   C12 1659   4.499   5.818   9.489  0.6101  0.2063  0.3635
   23CHL1  H12A 1660   4.562   5.749   9.430  1.7894  2.0708 -0.6870
   23CHL1  H12B 1661   4.562   5.894   9.540  1.7543 -0.6861  0.2908
   23CHL1   C11 1662   4.410   5.760   9.605  0.5404 -0.4715  0.7088
   23CHL1  H11A 1663   4.334   5.691   9.562 -0.3108 -0.2453  1.8069
   23CHL1  H11B 1664   4.487   5.715   9.670  0.6358 -1.4477 -0.0666
   23CHL1    C9 1665   4.332   5.880   9.667  0.2420 -0.0035  0.1608
   23CHL1    H9 1666   4.413   5.945   9.706 -1.6883  3.2384 -0.7717
   23CHL1   C10 1667   4.247   5.843   9.795 -0.8037 -0.6243  0.5617
   23CHL1   C19 1668   4.142   5.729   9.754 -0.3227 -0.2774 -0.0125
   23CHL1  H19A 1669   4.077   5.713   9.842  0.9938  1.8920  1.4681
   23CHL1  H19B 1670   4.086   5.772   9.668  0.4626  1.6537  0.3828
   23CHL1  H19C 1671   4.185   5.634   9.715 -1.6717 -1.2519  0.7978
   23CHL1    C1 1672   4.344   5.803   9.914  0.4467 -0.4358 -0.5251
   23CHL1   H1A 1673   4.381   5.699   9.904  1.6101  0.0014 -0.8971
   23CHL1   H1B 1674   4.419   5.884   9.924 -2.6794  2.7434 -0.6379
   23CHL1    C2 1675   4.283   5.798  10.060  0.4947  0.0310 -0.4611
   23CHL1   H2A 1676   4.358   5.787  10.140  0.5723 -2.3692 -0.7800
   23CHL1   H2B 1677   4.222   5.705  10.066  1.8054 -0.7446  1.9403
   23CHL1   C20 1678   4.562   5.917   9.160  0.2966 -0.6836 -0.3252
   23CHL1   H20 1679   4.488   5.861   9.099  1.4991 -0.8594 -1.6738
   23CHL1   C21 1680   4.668   5.817   9.202  0.7499 -0.0236 -1.1297
   23CHL1  H21A 1681   4.725   5.862   9.286  1.5338  0.2585 -1.7968
   23CHL1  H21B 1682   4.734   5.789   9.117  0.9287 -0.7888 -0.7510
   23CHL1  H21C 1683   4.618   5.726   9.241 -2.0221  1.7349 -0.3165
   23CHL1   C22 1684   4.625   6.018   9.062 -0.1299 -0.0699 -0.7934
   23CHL1  H22A 1685   4.547   6.096   9.046  0.1051  0.6145  1.1929
   23CHL1  H22B 1686   4.719   6.069   9.092  0.5900 -2.7583  1.9662
   23CHL1   C23 1687   4.651   5.951   8.924  0.4888 -0.4496 -0.7672
   23CHL1  H23A 1688   4.755   5.912   8.933  1.3786  1.4365 -2.1270
   23CHL1  H23B 1689   4.572   5.877   8.902 -1.3498  1.6033 -1.4311
   23CHL1   C24 1690   4.673   6.061   8.814 -0.1558 -0.7898 -0.1660
   23CHL1  H24A 1691   4.581   6.122   8.830 -0.4684 -1.0102 -1.0307
   23CHL1  H24B 1692   4.761   6.126   8.834  0.1764 -1.5607  0.9413
   23CHL1   C25 1693   4.676   6.028   8.664 -0.0046 -0.3111 -0.3751
   23CHL1   H25 1694   4.585   5.968   8.644 -0.9971  1.1428 -0.3417
   23CHL1   C26 1695   4.655   6.167   8.588 -0.3776  0.0522 -0.0193
   23CHL1  H26A 1696   4.726   6.247   8.618  0.6682 -1.1761  0.8600
   23CHL1  H26B 1697   4.685   6.148   8.483  0.3629  2.1066 -0.2340
   23CHL1  H26C 1698   4.550   6.204   8.591 -1.0818 -1.8767  0.7383
   23CHL1   C27 1699   4.801   5.953   8.620 -0.1600  0.2392  0.9293
   23CHL1  H27A 1700   4.791   5.937   8.510  2.4779  2.3681  0.2612
   23CHL1  H27B 1701   4.893   6.014   8.628  2.3535 -2.8883 -1.6143
   23CHL1  H27C 1702   4.808   5.865   8.686 -0.8343  0.2579  1.0373
   24CHL1    C3 1703   0.083   4.818  10.399  0.2347  0.2046 -0.3467
   24CHL1    H3 1704   0.162   4.743  10.376 -0.8488 -0.5035 -1.8924
   24CHL1    O3 1705   0.083   4.847  10.543 -0.1369  0.2703  0.1364
   24CHL1   H3' 1706   0.006   4.903  10.557 -0.2864 -0.3593  2.1321
   24CHL1    C4 1707   0.122   4.939  10.317 -0.4483 -0.8101  1.1591
   24CHL1   H4A 1708   0.061   5.029  10.342  0.4811  0.2317 -0.1506
   24CHL1   H4B 1709   0.223   4.973  10.349 -0.3644 -1.2356  1.3583
   24CHL1    C5 1710   0.111   4.919  10.166  0.0580  0.1859 -0.2960
   24CHL1    C6 1711   0.209   4.951  10.084  0.2094 -0.1000  0.5427
   24CHL1    H6 1712   0.298   4.992  10.134 -0.9889  0.2678  2.4891
   24CHL1    C7 1713   0.200   4.923   9.935  0.1018  0.1658 -0.0132
   24CHL1   H7A 1714   0.233   5.015   9.881  0.7433  0.7741  1.3657
   24CHL1   H7B 1715   0.280   4.849   9.914  1.9907  1.8165  1.0238
   24CHL1    C8 1716   0.060   4.891   9.877  0.1634  0.3332 -0.2018
   24CHL1    H8 1717   0.007   4.988   9.875  0.6536  0.6258  0.6410
   24CHL1   C14 1718   0.055   4.825   9.739 -0.1977 -0.2736 -1.0745
   24CHL1   H14 1719   0.100   4.725   9.753  0.8963  0.5117  1.8254
   24CHL1   C15 1720   0.139   4.891   9.624 -0.0527  0.6011 -0.7351
   24CHL1  H15A 1721   0.130   5.000   9.641 -0.2234  0.0132  4.3006
   24CHL1  H15B 1722   0.248   4.869   9.624 -0.3688 -1.1936 -1.9528
   24CHL1   C16 1723   0.073   4.853   9.496 -0.4006  0.3516  0.5059
   24CHL1  H16A 1724   0.035   4.949   9.456  2.5744  2.1701  1.6753
   24CHL1  H16B 1725   0.131   4.806   9.413 -2.4805 -0.7149 -0.4191
   24CHL1   C17 1726  -0.046   4.762   9.534 -0.2090 -0.7239  0.4692
   24CHL1   H17 1727  -0.003   4.661   9.553  0.4508 -0.5253  0.0898
   24CHL1   C13 1728  -0.086   4.812   9.677 -0.2936  0.1259 -0.1494
   24CHL1   C18 1729  -0.158   4.947   9.660  0.2742  0.2421 -0.2548
   24CHL1  H18A 1730  -0.178   4.990   9.761  0.4263  0.7600 -0.4436
   24CHL1  H18B 1731  -0.098   5.018   9.599  1.1251 -1.0900 -0.9955
   24CHL1  H18C 1732  -0.260   4.925   9.621  0.5037 -1.5687  0.0950
   24CHL1   C12 1733  -0.165   4.717   9.773  1.0909  0.0620  0.8141
   24CHL1  H12A 1734  -0.273   4.714   9.750  1.0177  1.5807  0.8987
   24CHL1  H12B 1735  -0.128   4.612   9.769 -1.7553 -0.9777 -0.5106
   24CHL1   C11 1736  -0.164   4.759   9.919  0.0201  0.7340 -0.2092
   24CHL1  H11A 1737  -0.236   4.841   9.939 -0.7200  0.2485 -0.8235
   24CHL1  H11B 1738  -0.192   4.674   9.985  2.0992  0.6130  0.6064
   24CHL1    C9 1739  -0.019   4.804   9.970 -0.1306  0.1996  0.3648
   24CHL1    H9 1740   0.048   4.716   9.979  0.7609  1.1159  4.6294
   24CHL1   C10 1741  -0.020   4.857  10.117  0.6610  0.0764 -0.2310
   24CHL1   C19 1742  -0.120   4.976  10.130  0.0481 -0.1698 -0.1529
   24CHL1  H19A 1743  -0.222   4.933  10.127 -2.1406  4.3078  1.2665
   24CHL1  H19B 1744  -0.111   5.035  10.224  0.8396 -1.5926  0.6820
   24CHL1  H19C 1745  -0.107   5.042  10.041 -0.6020  0.1157 -0.0453
   24CHL1    C1 1746  -0.061   4.743  10.215  0.3405 -0.0175 -0.1360
   24CHL1   H1A 1747  -0.166   4.722  10.186  0.8645 -2.4764 -0.5170
   24CHL1   H1B 1748  -0.000   4.657  10.178  1.5742 -0.8854  3.4870
   24CHL1    C2 1749  -0.059   4.769  10.356 -0.5319 -0.3778 -0.3399
   24CHL1   H2A 1750  -0.080   4.681  10.420  0.7277 -0.1632  0.3923
   24CHL1   H2B 1751  -0.131   4.851  10.378  1.0605  1.0929 -0.4044
   24CHL1   C20 1752  -0.151   4.761   9.425  0.2536 -0.4071 -0.2470
   24CHL1   H20 1753  -0.206   4.857   9.429  0.4964 -0.3014  0.6695
   24CHL1   C21 1754  -0.245   4.649   9.457  0.2359 -0.2384 -0.7615
   24CHL1  H21A 1755  -0.318   4.682   9.534  2.1873 -0.3533  1.2678
   24CHL1  H21B 1756  -0.184   4.562   9.492  1.0909  0.2837 -0.9198
   24CHL1  H21C 1757  -0.304   4.609   9.372  0.2232  0.1303 -0.9274
   24CHL1   C22 1758  -0.098   4.735   9.283 -0.0633  0.1379 -0.0789
   24CHL1  H22A 1759  -0.018   4.808   9.256  0.1220 -1.4587 -4.7037
   24CHL1  H22B 1760  -0.039   4.641   9.276 -0.5137 -0.0420 -2.1407
   24CHL1   C23 1761  -0.196   4.733   9.165 -0.4679 -0.5904  0.3051
   24CHL1  H23A 1762  -0.234   4.629   9.155 -0.3521 -0.4951 -1.3907
   24CHL1  H23B 1763  -0.287   4.789   9.196  1.5967  3.4717 -0.3769
   24CHL1   C24 1764  -0.145   4.778   9.029  0.4309 -0.0681  0.6377
   24CHL1  H24A 1765  -0.126   4.887   9.033  3.0466 -0.3608 -0.9761
   24CHL1  H24B 1766  -0.042   4.738   9.015  0.4870  0.7848 -1.9124
   24CHL1   C25 1767  -0.242   4.744   8.913  0.0950  0.0565 -0.7134
   24CHL1   H25 1768  -0.278   4.639   8.909  1.1572 -0.2887 -3.2873
   24CHL1   C26 1769  -0.368   4.836   8.918  0.1809  0.1223 -0.3936
   24CHL1  H26A 1770  -0.348   4.945   8.908 -0.3787  0.2645 -0.0236
   24CHL1  H26B 1771  -0.447   4.801   8.847 -1.8958  1.7868  0.9484
   24CHL1  H26C 1772  -0.419   4.823   9.016  0.8848  1.9702  0.2533
   24CHL1   C27 1773  -0.164   4.762   8.778 -0.0397  0.1991  0.1822
   24CHL1  H27A 1774  -0.226   4.735   8.690  0.3695 -0.2857  0.0292
   24CHL1  H27B 1775  -0.141   4.869   8.762  2.6808 -0.3204  0.0009
   24CHL1  H27C 1776  -0.076   4.694   8.766 -2.0843 -2.1709 -2.9193
   25CHL1    C3 1777   5.681   6.250  10.349 -0.0165 -0.3067 -0.0665
   25CHL1    H3 1778   5.735   6.153  10.352  0.0648 -0.2432  2.3331
   25CHL1    O3 1779   5.674   6.301  10.483  0.5178  0.5268  0.4154
   25CHL1   H3' 1780   5.626   6.384  10.486 -0.3778 -0.0002  1.7799
   25CHL1    C4 1781   5.754   6.360  10.263  0.2892  0.0207  1.4756
   25CHL1   H4A 1782   5.694   6.452  10.276  0.6835  0.6275 -0.5800
   25CHL1   H4B 1783   5.851   6.374  10.316  1.2272 -3.4489  0.9634
   25CHL1    C5 1784   5.762   6.314  10.121  0.4257  0.4896  0.5376
   25CHL1    C6 1785   5.877   6.289  10.058 -0.3168 -0.5243 -0.5566
   25CHL1    H6 1786   5.971   6.310  10.111  0.0805 -2.0258 -0.6056
   25CHL1    C7 1787   5.890   6.231   9.919  0.1949  0.1129  0.4224
   25CHL1   H7A 1788   5.973   6.268   9.855  1.3484 -0.4580  1.5447
   25CHL1   H7B 1789   5.889   6.120   9.921 -1.4511  0.0381 -1.3520
   25CHL1    C8 1790   5.763   6.262   9.836  0.4253  0.4883 -0.6464
   25CHL1    H8 1791   5.752   6.371   9.817  0.7074  0.7311  0.4941
   25CHL1   C14 1792   5.761   6.178   9.711  0.2944 -0.5075  0.9025
   25CHL1   H14 1793   5.766   6.072   9.743  1.6898 -0.6880  0.1691
   25CHL1   C15 1794   5.895   6.188   9.627  0.4884  0.1720  0.0810
   25CHL1  H15A 1795   5.925   6.294   9.641 -3.1729  1.1524  1.5695
   25CHL1  H15B 1796   5.977   6.127   9.673  0.6177  0.4461  0.2153
   25CHL1   C16 1797   5.854   6.150   9.487 -0.1949  0.3351 -0.1133
   25CHL1  H16A 1798   5.874   6.237   9.421 -1.6133 -0.2724 -1.4075
   25CHL1  H16B 1799   5.904   6.058   9.449  1.8969  0.4358  2.1381
   25CHL1   C17 1800   5.699   6.126   9.490 -0.0717 -0.0894 -0.4184
   25CHL1   H17 1801   5.692   6.019   9.517 -1.0187  0.3469  1.2193
   25CHL1   C13 1802   5.645   6.196   9.613  0.0977  0.3632  0.0838
   25CHL1   C18 1803   5.629   6.347   9.585 -0.2872 -0.1547  0.3707
   25CHL1  H18A 1804   5.729   6.379   9.549  0.3600 -1.5115  0.8859
   25CHL1  H18B 1805   5.555   6.358   9.503 -0.5640 -0.9000  0.5061
   25CHL1  H18C 1806   5.604   6.414   9.670  2.1216 -0.5909  1.5099
   25CHL1   C12 1807   5.523   6.142   9.690  0.6330 -0.4610 -0.1481
   25CHL1  H12A 1808   5.437   6.163   9.623  0.2802 -0.8426  0.1820
   25CHL1  H12B 1809   5.536   6.037   9.725  2.1642 -0.8223 -1.6339
   25CHL1   C11 1810   5.504   6.220   9.816  0.2459  0.4064  0.0449
   25CHL1  H11A 1811   5.471   6.324   9.798  3.2022  1.7761  1.7990
   25CHL1  H11B 1812   5.418   6.170   9.866 -0.5544 -0.5105 -2.1090
   25CHL1    C9 1813   5.633   6.221   9.910 -0.1479  0.0572 -0.7913
   25CHL1    H9 1814   5.646   6.113   9.933  0.5505  0.3782  0.4007
   25CHL1   C10 1815   5.620   6.287  10.056  0.2809  0.0761 -0.0989
   25CHL1   C19 1816   5.559   6.424  10.027  0.2362  0.2424 -0.1523
   25CHL1  H19A 1817   5.538   6.479  10.121 -1.1363 -0.4765 -0.0091
   25CHL1  H19B 1818   5.615   6.490   9.957 -0.5172  1.5434  0.4298
   25CHL1  H19C 1819   5.459   6.421   9.977  0.3508  0.6453 -0.4135
   25CHL1    C1 1820   5.533   6.184  10.153 -0.3823 -0.4626 -0.1007
   25CHL1   H1A 1821   5.430   6.200  10.115  0.4616  1.3307 -1.7837
   25CHL1   H1B 1822   5.562   6.077  10.149  0.9227 -0.4164  3.8749
   25CHL1    C2 1823   5.539   6.233  10.299 -0.1210 -0.1158 -0.1741
   25CHL1   H2A 1824   5.486   6.156  10.359 -0.6529  1.3249  1.2862
   25CHL1   H2B 1825   5.478   6.325  10.313 -1.7109 -0.9727 -1.1723
   25CHL1   C20 1826   5.635   6.151   9.355 -0.9668  0.4735 -0.7270
   25CHL1   H20 1827   5.635   6.260   9.333  1.4193  0.7517  0.3505
   25CHL1   C21 1828   5.490   6.103   9.362  0.2363 -0.1368 -0.5448
   25CHL1  H21A 1829   5.431   6.177   9.419  0.2153 -2.0441  2.0847
   25CHL1  H21B 1830   5.469   6.008   9.415  2.0819 -0.6994 -0.7630
   25CHL1  H21C 1831   5.437   6.096   9.264  0.6612 -0.0143 -0.7843
   25CHL1   C22 1832   5.707   6.076   9.247 -0.1574 -0.3898 -0.4919
   25CHL1  H22A 1833   5.818   6.077   9.256 -0.1792 -2.1903  0.5238
   25CHL1  H22B 1834   5.678   5.970   9.262  0.0356 -0.4909 -0.8265
   25CHL1   C23 1835   5.672   6.116   9.100 -0.2232  0.4556 -0.5508
   25CHL1  H23A 1836   5.564   6.094   9.090 -0.0348 -0.5418 -0.4688
   25CHL1  H23B 1837   5.672   6.226   9.083  3.4050  0.3159 -2.2742
   25CHL1   C24 1838   5.771   6.046   9.005 -0.1413 -0.0006 -0.3018
   25CHL1  H24A 1839   5.877   6.071   9.026 -0.4001  0.3235  0.6423
   25CHL1  H24B 1840   5.749   5.939   9.025 -0.5223  0.5536  2.7695
   25CHL1   C25 1841   5.739   6.071   8.853 -0.6367  0.1734  0.5132
   25CHL1   H25 1842   5.745   6.180   8.831 -0.4635 -0.0297 -0.5269
   25CHL1   C26 1843   5.843   5.999   8.765  0.9444  0.4753  0.8905
   25CHL1  H26A 1844   5.812   6.012   8.659  0.9292 -1.3512  0.6419
   25CHL1  H26B 1845   5.949   6.032   8.774  1.4862 -1.2597  1.3267
   25CHL1  H26C 1846   5.838   5.890   8.786  0.6299  0.1554 -0.7420
   25CHL1   C27 1847   5.594   6.026   8.821 -0.3848  0.1622 -0.3767
   25CHL1  H27A 1848   5.573   5.919   8.844 -1.7295  0.7520  1.4331
   25CHL1  H27B 1849   5.524   6.087   8.882 -0.5232  0.9589 -1.3114
   25CHL1  H27C 1850   5.583   6.055   8.715  1.0185  0.1847 -0.5411
   26CHL1    C3 1851   1.375   3.315  10.021  0.2972  0.1205  0.3873
   26CHL1    H3 1852   1.335   3.418  10.036 -1.4880 -0.6538  1.2864
   26CHL1    O3 1853   1.441   3.287  10.142 -0.2160  0.7333 -0.0078
   26CHL1   H3' 1854   1.468   3.372  10.177  1.3801 -0.0964  0.8906
   26CHL1    C4 1855   1.254   3.218   9.992  0.0291  0.0393  0.2960
   26CHL1   H4A 1856   1.282   3.111  10.008  0.7065  0.1456 -0.1134
   26CHL1   H4B 1857   1.179   3.232  10.072 -0.4800 -1.1692  0.0546
   26CHL1    C5 1858   1.192   3.246   9.852 -0.3468 -0.0432 -0.1385
   26CHL1    C6 1859   1.060   3.255   9.841  0.3549 -0.5732 -0.0055
   26CHL1    H6 1860   1.000   3.240   9.932  0.4851 -1.1997 -0.0134
   26CHL1    C7 1861   1.001   3.260   9.705  0.0146 -0.0852  0.4939
   26CHL1   H7A 1862   0.915   3.192   9.691  1.3659 -1.8925  0.7266
   26CHL1   H7B 1863   0.964   3.364   9.692  1.6487  0.6919  1.6652
   26CHL1    C8 1864   1.090   3.238   9.581 -0.1651 -0.2232 -0.5780
   26CHL1    H8 1865   1.096   3.127   9.575  0.0978 -0.2210 -0.3728
   26CHL1   C14 1866   1.028   3.298   9.458  0.5369  0.4383 -0.1379
   26CHL1   H14 1867   1.017   3.406   9.483 -0.1962  0.1090  1.0556
   26CHL1   C15 1868   0.888   3.245   9.414  0.1475  0.0614 -0.2708
   26CHL1  H15A 1869   0.887   3.135   9.426 -1.2312  0.0091 -0.6857
   26CHL1  H15B 1870   0.803   3.287   9.473  0.1146  2.1369 -1.6875
   26CHL1   C16 1871   0.884   3.281   9.268  0.4512  0.3290 -0.1484
   26CHL1  H16A 1872   0.884   3.190   9.205  0.2980  0.7369 -0.7388
   26CHL1  H16B 1873   0.804   3.350   9.234  1.5785  2.2821  0.8956
   26CHL1   C17 1874   1.019   3.339   9.226 -0.2958 -0.2771 -0.2114
   26CHL1   H17 1875   1.004   3.448   9.237  2.2756  0.1302  0.0752
   26CHL1   C13 1876   1.122   3.286   9.331  0.2744  0.6689 -0.0309
   26CHL1   C18 1877   1.154   3.136   9.300  0.9634 -0.3197 -0.1328
   26CHL1  H18A 1878   1.057   3.086   9.277  0.3201  0.3943  0.9586
   26CHL1  H18B 1879   1.229   3.136   9.218  1.3289 -0.2379  0.2012
   26CHL1  H18C 1880   1.185   3.088   9.396 -1.4862  0.6859  1.2414
   26CHL1   C12 1881   1.250   3.361   9.360 -0.1434  0.1905  0.7879
   26CHL1  H12A 1882   1.321   3.348   9.276 -1.5429  1.8752 -0.7437
   26CHL1  H12B 1883   1.238   3.471   9.371  2.7517  0.6371  0.0966
   26CHL1   C11 1884   1.318   3.299   9.481 -0.0487  0.7741 -0.8377
   26CHL1  H11A 1885   1.359   3.199   9.458 -1.6114 -0.0489 -0.1931
   26CHL1  H11B 1886   1.401   3.371   9.498  1.3125 -0.5751 -1.5073
   26CHL1    C9 1887   1.221   3.304   9.604 -1.5036  0.3531 -0.2080
   26CHL1    H9 1888   1.205   3.412   9.623  1.7001  0.8244  0.5148
   26CHL1   C10 1889   1.288   3.257   9.741  0.1943  0.3466  0.5755
   26CHL1   C19 1890   1.346   3.113   9.726 -0.0958 -0.9311  0.0521
   26CHL1  H19A 1891   1.432   3.119   9.656  0.5750 -1.5523  0.8076
   26CHL1  H19B 1892   1.390   3.064   9.815  0.4986 -0.2557  0.1384
   26CHL1  H19C 1893   1.267   3.048   9.683  0.5916 -1.1596 -0.8901
   26CHL1    C1 1894   1.404   3.359   9.780  0.0267 -0.1481 -0.0397
   26CHL1   H1A 1895   1.478   3.350   9.698 -0.9042 -2.5914 -0.7039
   26CHL1   H1B 1896   1.377   3.467   9.786  2.6783  0.6600 -1.1380
   26CHL1    C2 1897   1.473   3.315   9.904 -0.2878  1.2101 -0.3641
   26CHL1   H2A 1898   1.554   3.387   9.926  0.6310 -0.0447  0.4672
   26CHL1   H2B 1899   1.526   3.219   9.891  1.0861  1.7204  1.2301
   26CHL1   C20 1900   1.064   3.311   9.078 -0.0712 -0.3541 -0.1284
   26CHL1   H20 1901   1.084   3.203   9.064  0.1832 -0.2151 -0.8945
   26CHL1   C21 1902   1.191   3.397   9.046  0.3032 -0.1667  0.5376
   26CHL1  H21A 1903   1.168   3.498   9.088 -1.3679 -0.2374 -0.1380
   26CHL1  H21B 1904   1.193   3.395   8.935 -0.9979  0.2649  0.4937
   26CHL1  H21C 1905   1.292   3.360   9.074  0.1635  0.4749  1.9527
   26CHL1   C22 1906   0.947   3.345   8.984  0.2474  0.2543 -0.1906
   26CHL1  H22A 1907   0.853   3.302   9.024  0.3750  0.7971  0.7191
   26CHL1  H22B 1908   0.923   3.453   8.969 -2.4178 -0.4130 -1.2489
   26CHL1   C23 1909   0.960   3.289   8.843  0.9457  0.2741  0.5303
   26CHL1  H23A 1910   1.045   3.344   8.796 -0.7529  1.8981 -0.8144
   26CHL1  H23B 1911   0.982   3.181   8.853 -3.0956 -0.5872  2.0291
   26CHL1   C24 1912   0.829   3.315   8.772  0.0942 -0.9365  0.6512
   26CHL1  H24A 1913   0.748   3.263   8.827 -1.1560  0.4223  0.1544
   26CHL1  H24B 1914   0.793   3.419   8.784 -3.5273 -1.7781 -1.3973
   26CHL1   C25 1915   0.822   3.261   8.632  0.3413  0.3218 -0.5448
   26CHL1   H25 1916   0.901   3.305   8.567  1.2379  1.1836  1.0536
   26CHL1   C26 1917   0.834   3.113   8.632 -0.2263  0.4263  0.1486
   26CHL1  H26A 1918   0.933   3.070   8.659 -0.6259 -1.4878 -1.2332
   26CHL1  H26B 1919   0.756   3.069   8.697  0.0751  0.0363  0.2510
   26CHL1  H26C 1920   0.813   3.081   8.527  0.4666  0.9864 -0.1676
   26CHL1   C27 1921   0.683   3.301   8.571 -0.5665 -0.0810 -0.0189
   26CHL1  H27A 1922   0.676   3.411   8.558 -0.1400 -0.1930 -1.3771
   26CHL1  H27B 1923   0.681   3.252   8.472 -1.8205  1.7416 -0.9542
   26CHL1  H27C 1924   0.599   3.279   8.641 -1.9085 -1.0608 -1.8625
   27CHL1    C3 1925   0.015   2.083  10.332  0.3501  0.7140 -1.1741
   27CHL1    H3 1926   0.119   2.107  10.302  0.4876  0.8110 -0.6240
   27CHL1    O3 1927   0.016   2.037  10.466  0.2307  0.6901  0.9351
   27CHL1   H3' 1928  -0.073   2.005  10.484  0.9553 -1.6714  0.7495
   27CHL1    C4 1929  -0.066   2.211  10.326  0.5713 -0.5281 -0.8304
   27CHL1   H4A 1930  -0.168   2.193  10.369 -0.2829 -0.1951 -2.6333
   27CHL1   H4B 1931  -0.021   2.284  10.396 -1.8325  0.1403  0.1540
   27CHL1    C5 1932  -0.071   2.262  10.184 -0.0976  1.2121 -0.4545
   27CHL1    C6 1933  -0.038   2.384  10.155  0.6365  0.1931  0.0983
   27CHL1    H6 1934   0.007   2.447  10.234  1.6908  0.1480 -0.4429
   27CHL1    C7 1935  -0.040   2.446  10.015  0.2433 -0.5278  0.8250
   27CHL1   H7A 1936  -0.094   2.543  10.008 -2.5657 -1.8408  2.8047
   27CHL1   H7B 1937   0.065   2.465   9.982 -0.0078  1.6768  1.1072
   27CHL1    C8 1938  -0.124   2.357   9.915 -0.4795 -0.0831 -0.2956
   27CHL1    H8 1939  -0.228   2.388   9.938  0.2029  2.4443 -0.3158
   27CHL1   C14 1940  -0.088   2.397   9.771 -0.3919  0.3204  0.6336
   27CHL1   H14 1941   0.017   2.373   9.744 -0.5016  2.1286 -1.7017
   27CHL1   C15 1942  -0.106   2.544   9.734 -0.3731 -1.3670 -0.0854
   27CHL1  H15A 1943  -0.205   2.582   9.767 -1.1630 -1.4824 -2.1648
   27CHL1  H15B 1944  -0.023   2.602   9.778 -1.0774  1.2871 -1.9871
   27CHL1   C16 1945  -0.100   2.539   9.576  0.8385  0.1053 -0.1511
   27CHL1  H16A 1946  -0.188   2.604   9.556  0.3697 -0.4606  0.0664
   27CHL1  H16B 1947  -0.010   2.583   9.527  1.0398 -0.5640 -0.3925
   27CHL1   C17 1948  -0.125   2.397   9.531 -0.4968 -0.3828  0.4699
   27CHL1   H17 1949  -0.028   2.347   9.509 -0.5736 -1.3124  2.0799
   27CHL1   C13 1950  -0.158   2.319   9.658 -0.1758  0.4743  0.4017
   27CHL1   C18 1951  -0.311   2.336   9.673 -0.6572 -0.0125 -0.8880
   27CHL1  H18A 1952  -0.342   2.326   9.779 -0.6169  0.6278 -0.8104
   27CHL1  H18B 1953  -0.341   2.438   9.638 -0.8318 -0.0606 -0.8784
   27CHL1  H18C 1954  -0.364   2.264   9.608 -0.3127 -1.6496  0.5778
   27CHL1   C12 1955  -0.128   2.170   9.675 -0.1033 -0.1922 -0.7323
   27CHL1  H12A 1956  -0.196   2.105   9.615 -0.6128 -0.5525  0.2024
   27CHL1  H12B 1957  -0.023   2.140   9.655 -0.2078 -0.0287 -1.5564
   27CHL1   C11 1958  -0.156   2.117   9.823  0.0438 -0.8919  0.4067
   27CHL1  H11A 1959  -0.266   2.114   9.832 -0.1198 -0.8001 -1.2887
   27CHL1  H11B 1960  -0.111   2.016   9.831  1.5742 -0.5126 -2.3091
   27CHL1    C9 1961  -0.101   2.210   9.934  0.0714 -0.0799  0.1540
   27CHL1    H9 1962   0.007   2.199   9.910 -0.2885 -1.5124 -1.0059
   27CHL1   C10 1963  -0.124   2.153  10.085 -0.0002 -0.3012  0.8245
   27CHL1   C19 1964  -0.272   2.119  10.097  0.1484  0.0973 -0.1398
   27CHL1  H19A 1965  -0.342   2.193  10.053 -1.0273 -0.7016  0.3404
   27CHL1  H19B 1966  -0.283   2.024  10.040 -1.9560 -0.1669  0.6080
   27CHL1  H19C 1967  -0.310   2.096  10.198  0.5530 -1.6187 -0.3551
   27CHL1    C1 1968  -0.031   2.023  10.095  0.1370 -0.9883  0.2175
   27CHL1   H1A 1969  -0.063   1.946  10.022 -1.6993  0.6320 -0.7888
   27CHL1   H1B 1970   0.071   2.057  10.064 -0.8375  0.6994 -1.3686
   27CHL1    C2 1971  -0.031   1.973  10.238  0.4887  0.2822 -0.0094
   27CHL1   H2A 1972   0.037   1.886  10.248  1.6906  1.2935  0.9080
   27CHL1   H2B 1973  -0.135   1.941  10.262  0.5199 -0.6256 -1.0210
   27CHL1   C20 1974  -0.214   2.385   9.407 -0.3048 -0.0803 -0.0704
   27CHL1   H20 1975  -0.315   2.413   9.444  0.7249  1.6647  1.6307
   27CHL1   C21 1976  -0.227   2.239   9.369  0.0063  0.2213 -0.1232
   27CHL1  H21A 1977  -0.286   2.176   9.440 -2.4718  0.0699 -2.1662
   27CHL1  H21B 1978  -0.124   2.199   9.361  0.9844  2.2621  1.3393
   27CHL1  H21C 1979  -0.284   2.234   9.274 -0.7163  1.8423  0.1942
   27CHL1   C22 1980  -0.163   2.478   9.292  0.0334 -0.0685 -0.4047
   27CHL1  H22A 1981  -0.143   2.583   9.323 -0.2809  0.1666 -0.9674
   27CHL1  H22B 1982  -0.070   2.437   9.248  0.7300 -0.3511  1.2832
   27CHL1   C23 1983  -0.273   2.500   9.182 -0.5784  0.3865 -1.0042
   27CHL1  H23A 1984  -0.299   2.401   9.139 -0.7711  0.1603 -0.3751
   27CHL1  H23B 1985  -0.363   2.529   9.240  1.0222 -0.1249  1.9147
   27CHL1   C24 1986  -0.247   2.605   9.073  0.5712  0.7293  0.3521
   27CHL1  H24A 1987  -0.333   2.614   9.003  4.0008 -0.2642 -4.4943
   27CHL1  H24B 1988  -0.225   2.708   9.110  1.6441  1.3465 -1.8728
   27CHL1   C25 1989  -0.124   2.573   8.984  0.0417 -0.0879  0.0451
   27CHL1   H25 1990  -0.042   2.577   9.059  0.1961 -0.5761 -0.0892
   27CHL1   C26 1991  -0.125   2.436   8.914 -0.5598  0.5652  0.2829
   27CHL1  H26A 1992  -0.212   2.432   8.844  0.0718 -1.2999 -0.4726
   27CHL1  H26B 1993  -0.036   2.409   8.853 -2.3757 -1.1678 -1.7811
   27CHL1  H26C 1994  -0.140   2.354   8.987 -0.6593 -0.6797 -1.0951
   27CHL1   C27 1995  -0.108   2.683   8.872  0.1339 -0.0042 -0.0685
   27CHL1  H27A 1996  -0.066   2.771   8.924  0.8988 -0.1528 -0.4135
   27CHL1  H27B 1997  -0.037   2.657   8.791 -0.2801 -2.1880  0.1936
   27CHL1  H27C 1998  -0.204   2.704   8.820  1.2867 -0.4162 -2.5172
   28CHL1    C3 1999   2.237   4.099   9.881 -0.1960 -0.7314  0.2121
   28CHL1    H3 2000   2.318   4.029   9.852 -0.3791 -1.8051  2.0900
   28CHL1    O3 2001   2.220   4.092  10.020 -0.1531  0.2141 -0.3719
   28CHL1   H3' 2002   2.125   4.094  10.036 -0.2641 -1.1598 -0.7119
   28CHL1    C4 2003   2.283   4.245   9.835  0.4293  0.0678 -0.2187
   28CHL1   H4A 2004   2.201   4.316   9.859  0.5693  0.8222 -1.8499
   28CHL1   H4B 2005   2.379   4.268   9.885 -1.1477  1.5927  2.3372
   28CHL1    C5 2006   2.294   4.250   9.688  0.9054  1.0079  0.0308
   28CHL1    C6 2007   2.411   4.283   9.632  0.4455 -0.6714 -0.2441
   28CHL1    H6 2008   2.496   4.307   9.698 -0.0057 -0.5750  0.3121
   28CHL1    C7 2009   2.435   4.291   9.488  0.0526  0.2654  0.4373
   28CHL1   H7A 2010   2.500   4.371   9.446 -1.3678  1.5804  0.6748
   28CHL1   H7B 2011   2.497   4.204   9.456  1.4710  1.3933 -0.0170
   28CHL1    C8 2012   2.311   4.282   9.392  0.0322 -0.4329  0.1621
   28CHL1    H8 2013   2.257   4.379   9.404  1.3960  0.2805  0.7841
   28CHL1   C14 2014   2.347   4.264   9.248  0.1836 -0.3333 -0.7781
   28CHL1   H14 2015   2.394   4.163   9.247  0.1895 -0.3399 -0.2312
   28CHL1   C15 2016   2.450   4.355   9.181 -0.5029 -0.8498 -0.9881
   28CHL1  H15A 2017   2.412   4.458   9.197 -1.5846 -1.0855 -1.8739
   28CHL1  H15B 2018   2.548   4.347   9.233 -0.8154  2.2773  0.2722
   28CHL1   C16 2019   2.444   4.326   9.031  0.0374 -0.5826  0.4835
   28CHL1  H16A 2020   2.446   4.424   8.977 -0.4213 -0.9427 -0.2055
   28CHL1  H16B 2021   2.541   4.279   9.004  1.4296  0.8128  2.7831
   28CHL1   C17 2022   2.310   4.234   9.018 -0.2331 -0.2668 -0.8427
   28CHL1   H17 2023   2.342   4.128   9.015 -1.0203 -0.5244 -0.5351
   28CHL1   C13 2024   2.228   4.245   9.153 -0.3490  0.2560 -0.1997
   28CHL1   C18 2025   2.136   4.368   9.140 -0.4179 -0.5208  0.5876
   28CHL1  H18A 2026   2.163   4.444   9.064 -2.9741  0.9764  1.0453
   28CHL1  H18B 2027   2.036   4.340   9.101 -0.4278 -1.5218  1.3010
   28CHL1  H18C 2028   2.119   4.428   9.232 -1.2193 -0.2601  0.2868
   28CHL1   C12 2029   2.141   4.125   9.200  0.1808 -0.0888 -0.4566
   28CHL1  H12A 2030   2.054   4.123   9.131 -1.1420 -0.8483  1.1657
   28CHL1  H12B 2031   2.196   4.029   9.191 -0.3802 -0.2409 -2.7894
   28CHL1   C11 2032   2.094   4.148   9.348  0.0220  0.3835 -0.9767
   28CHL1  H11A 2033   2.028   4.236   9.336  1.7339  1.7284 -0.8824
   28CHL1  H11B 2034   2.027   4.063   9.374  1.8222 -1.1628 -1.1666
   28CHL1    C9 2035   2.216   4.175   9.449 -0.6018  0.1850 -0.3230
   28CHL1    H9 2036   2.277   4.082   9.446  0.7573  0.9767  1.3590
   28CHL1   C10 2037   2.178   4.196   9.600 -0.9050 -0.4237 -0.1404
   28CHL1   C19 2038   2.068   4.302   9.605  0.1875 -0.5387 -1.0880
   28CHL1  H19A 2039   1.976   4.264   9.555 -0.4507  0.0902 -0.4271
   28CHL1  H19B 2040   2.045   4.322   9.712  0.1988 -3.4850 -0.4448
   28CHL1  H19C 2041   2.108   4.396   9.561 -1.1233 -0.1427 -1.4819
   28CHL1    C1 2042   2.124   4.070   9.661  0.4344  0.1027 -0.9853
   28CHL1   H1A 2043   2.024   4.048   9.619 -0.7845  1.5070  1.0297
   28CHL1   H1B 2044   2.187   3.979   9.648  0.3114 -0.3913  1.3913
   28CHL1    C2 2045   2.106   4.065   9.814  0.3197 -0.7017 -0.2941
   28CHL1   H2A 2046   2.066   3.963   9.826 -2.4760 -0.0519 -2.7314
   28CHL1   H2B 2047   2.036   4.146   9.843  0.6010 -0.7571  0.5568
   28CHL1   C20 2048   2.231   4.255   8.887  0.4664 -0.0607  0.6917
   28CHL1   H20 2049   2.174   4.350   8.891  0.7084  0.0576  1.5349
   28CHL1   C21 2050   2.124   4.142   8.868 -0.7578  0.0397 -0.9820
   28CHL1  H21A 2051   2.035   4.142   8.935 -0.6324  1.9011 -0.7707
   28CHL1  H21B 2052   2.172   4.042   8.879  1.8770  1.1909 -1.2230
   28CHL1  H21C 2053   2.079   4.153   8.767  0.1962  1.3804 -1.2897
   28CHL1   C22 2054   2.326   4.251   8.762  0.2803  0.2691  0.2351
   28CHL1  H22A 2055   2.416   4.313   8.784 -0.5614  1.7379 -0.3498
   28CHL1  H22B 2056   2.359   4.146   8.745 -0.8113 -0.1664  0.7467
   28CHL1   C23 2057   2.271   4.311   8.633  0.3151  0.4022  0.7016
   28CHL1  H23A 2058   2.357   4.322   8.563 -0.4527  1.5506 -0.0977
   28CHL1  H23B 2059   2.192   4.246   8.589  0.7611 -0.0064  0.4971
   28CHL1   C24 2060   2.199   4.451   8.642 -0.1571  0.3418 -0.1262
   28CHL1  H24A 2061   2.099   4.423   8.681  0.3051 -0.4266  0.5332
   28CHL1  H24B 2062   2.257   4.504   8.721  0.2305 -1.6392  0.9781
   28CHL1   C25 2063   2.176   4.530   8.511 -0.0342  0.8032  0.0874
   28CHL1   H25 2064   2.268   4.530   8.449 -0.1294 -0.2717 -0.0794
   28CHL1   C26 2065   2.073   4.450   8.430 -0.4694  0.0152 -0.6165
   28CHL1  H26A 2066   2.055   4.505   8.335 -0.6441 -0.7867 -1.0549
   28CHL1  H26B 2067   2.103   4.345   8.410 -2.1000 -0.0943 -2.8996
   28CHL1  H26C 2068   1.978   4.450   8.488  0.8088 -1.1798  1.5816
   28CHL1   C27 2069   2.117   4.665   8.538  0.3760  0.2892 -0.1535
   28CHL1  H27A 2070   2.172   4.715   8.620  0.7834  1.6945 -1.2470
   28CHL1  H27B 2071   2.104   4.729   8.448 -3.7114  1.6832  1.1926
   28CHL1  H27C 2072   2.012   4.639   8.565 -0.0728  1.0461 -1.0909
   29CHL1    C3 2073   2.764   5.142   6.825  0.1208  0.0024  0.3037
   29CHL1    H3 2074   2.675   5.077   6.837  0.6959 -0.6566  1.1600
   29CHL1    O3 2075   2.796   5.172   6.688 -0.5195  0.7352  0.0247
   29CHL1   H3' 2076   2.865   5.237   6.701 -1.1085  0.8550  3.1798
   29CHL1    C4 2077   2.733   5.275   6.887  0.3004 -0.1227 -0.0315
   29CHL1   H4A 2078   2.827   5.334   6.877  0.8466 -0.4777  2.3804
   29CHL1   H4B 2079   2.663   5.338   6.828  2.0620  2.4828  0.4938
   29CHL1    C5 2080   2.704   5.264   7.033 -0.0358 -0.3731  0.0371
   29CHL1    C6 2081   2.591   5.322   7.071  0.2293 -0.2060 -0.7333
   29CHL1    H6 2082   2.519   5.371   7.004  1.2591  1.7471 -0.4761
   29CHL1    C7 2083   2.548   5.316   7.218  0.0036  0.1487  0.8567
   29CHL1   H7A 2084   2.523   5.419   7.252  0.6464  0.7928 -0.5464
   29CHL1   H7B 2085   2.463   5.247   7.235  0.2840  0.1611  2.4685
   29CHL1    C8 2086   2.670   5.269   7.309  0.5676 -0.2599  0.1188
   29CHL1    H8 2087   2.743   5.352   7.306 -1.3424  1.4732 -0.1417
   29CHL1   C14 2088   2.623   5.241   7.450 -0.0300  0.9133 -0.3362
   29CHL1   H14 2089   2.544   5.163   7.446 -0.1643  1.0955 -1.5033
   29CHL1   C15 2090   2.539   5.350   7.524 -0.1298 -0.2033 -0.2030
   29CHL1  H15A 2091   2.573   5.452   7.496 -0.3146 -0.1956 -0.4067
   29CHL1  H15B 2092   2.433   5.345   7.491  0.0861  1.6490 -1.2986
   29CHL1   C16 2093   2.557   5.314   7.672  0.1818  0.3675  0.0928
   29CHL1  H16A 2094   2.604   5.406   7.714 -2.3933  1.8149 -0.0103
   29CHL1  H16B 2095   2.459   5.295   7.722  0.8505  0.6278  1.5700
   29CHL1   C17 2096   2.651   5.181   7.677 -0.6522 -0.2857 -0.1868
   29CHL1   H17 2097   2.581   5.095   7.667 -0.5822 -0.6057  1.6692
   29CHL1   C13 2098   2.731   5.185   7.546  0.5187  0.8093  0.1573
   29CHL1   C18 2099   2.839   5.295   7.563  0.5865 -0.0084 -0.0831
   29CHL1  H18A 2100   2.801   5.394   7.599  0.6732  0.5889 -1.5651
   29CHL1  H18B 2101   2.931   5.269   7.620 -0.8967 -0.7984  2.1070
   29CHL1  H18C 2102   2.884   5.311   7.463 -1.4433  2.0458 -0.7887
   29CHL1   C12 2103   2.791   5.057   7.498  0.2588  0.0160 -0.2395
   29CHL1  H12A 2104   2.874   5.017   7.560 -1.3244 -3.0267  0.1389
   29CHL1  H12B 2105   2.722   4.971   7.513  3.1485 -2.4518 -0.0107
   29CHL1   C11 2106   2.839   5.067   7.353 -0.0415  0.0090  0.1115
   29CHL1  H11A 2107   2.942   5.109   7.349  0.0546 -0.2624 -3.4859
   29CHL1  H11B 2108   2.851   4.966   7.307  1.3360  1.1568 -2.2476
   29CHL1    C9 2109   2.746   5.150   7.255  0.3647 -0.0815 -0.8297
   29CHL1    H9 2110   2.662   5.080   7.236 -0.9516  0.9026  1.0783
   29CHL1   C10 2111   2.806   5.192   7.118 -1.0175  1.2208 -0.5493
   29CHL1   C19 2112   2.932   5.283   7.139  0.1060  0.5468  0.3109
   29CHL1  H19A 2113   2.969   5.320   7.041 -1.9494  0.3887 -0.5779
   29CHL1  H19B 2114   2.898   5.375   7.191 -0.6948  0.8254 -0.6687
   29CHL1  H19C 2115   3.013   5.225   7.190 -0.5212  1.1767  2.0710
   29CHL1    C1 2116   2.844   5.052   7.049 -0.2310  0.0393  0.7382
   29CHL1   H1A 2117   2.931   5.007   7.100 -0.1565  0.1521  0.7121
   29CHL1   H1B 2118   2.763   4.977   7.058  0.0091 -0.1766  1.1192
   29CHL1    C2 2119   2.881   5.072   6.905 -0.3052 -0.3180  0.0658
   29CHL1   H2A 2120   2.895   4.975   6.852  1.0314  0.0987 -0.3749
   29CHL1   H2B 2121   2.972   5.134   6.892 -1.0944  1.0921  0.9756
   29CHL1   C20 2122   2.721   5.173   7.813 -0.3578  0.2229  0.1337
   29CHL1   H20 2123   2.791   5.259   7.816 -0.5770  0.5625 -2.4710
   29CHL1   C21 2124   2.799   5.040   7.814  0.3194 -0.5556  0.3416
   29CHL1  H21A 2125   2.825   5.011   7.919  0.3018  0.9520  0.7871
   29CHL1  H21B 2126   2.900   5.057   7.772  1.6048 -1.3566  2.8716
   29CHL1  H21C 2127   2.729   4.968   7.767 -1.9238  1.2401  0.7279
   29CHL1   C22 2128   2.637   5.183   7.944  0.2626  0.2657 -0.4724
   29CHL1  H22A 2129   2.578   5.276   7.944  2.9087  2.0893  1.0470
   29CHL1  H22B 2130   2.561   5.102   7.945 -0.2918  0.7715  1.0945
   29CHL1   C23 2131   2.713   5.187   8.080  0.0857  0.2620  0.2068
   29CHL1  H23A 2132   2.758   5.086   8.089  1.1888  0.7350  0.1399
   29CHL1  H23B 2133   2.794   5.262   8.072  1.1932 -0.9745 -0.5593
   29CHL1   C24 2134   2.629   5.233   8.195 -0.1668 -0.0818 -0.1267
   29CHL1  H24A 2135   2.593   5.334   8.166 -0.2546 -0.9237 -3.2473
   29CHL1  H24B 2136   2.549   5.158   8.215  1.3954 -1.6198  0.6081
   29CHL1   C25 2137   2.701   5.236   8.329  0.3955  0.4139  0.4145
   29CHL1   H25 2138   2.748   5.138   8.351 -0.5403 -1.0309 -3.2274
   29CHL1   C26 2139   2.807   5.339   8.346 -0.0394 -0.0425  0.2410
   29CHL1  H26A 2140   2.849   5.350   8.448  0.1896  1.0843  0.0338
   29CHL1  H26B 2141   2.890   5.312   8.277  0.5903 -2.2989  1.7585
   29CHL1  H26C 2142   2.765   5.439   8.322 -1.8684 -0.5319  1.2314
   29CHL1   C27 2143   2.589   5.273   8.428 -0.5155  0.0503 -0.5541
   29CHL1  H27A 2144   2.499   5.208   8.426 -0.9183  0.2679  3.1566
   29CHL1  H27B 2145   2.623   5.255   8.532 -1.4502  0.3830 -0.1734
   29CHL1  H27C 2146   2.563   5.380   8.416 -1.3897 -0.0540  0.1910
   30CHL1    C3 2147   4.194   2.767   7.246  0.0598 -0.2378  0.2113
   30CHL1    H3 2148   4.092   2.776   7.202 -0.4750 -4.6570  0.1103
   30CHL1    O3 2149   4.280   2.687   7.165  0.1619  0.3188  0.1314
   30CHL1   H3' 2150   4.272   2.729   7.079  0.3986  0.6686  0.2730
   30CHL1    C4 2151   4.257   2.909   7.251  0.1432 -0.0412 -0.7491
   30CHL1   H4A 2152   4.366   2.903   7.272  0.0118  1.8569  0.7908
   30CHL1   H4B 2153   4.247   2.958   7.152 -1.6006 -0.5634 -0.8566
   30CHL1    C5 2154   4.193   2.993   7.359 -0.2505 -0.3284  0.6942
   30CHL1    C6 2155   4.147   3.115   7.325 -0.9074  1.2585  0.1559
   30CHL1    H6 2156   4.150   3.154   7.222  0.9350  0.5213 -0.1164
   30CHL1    C7 2157   4.072   3.203   7.421 -0.2805 -0.0680 -0.0256
   30CHL1   H7A 2158   4.104   3.308   7.407 -0.0265 -0.3772 -2.1837
   30CHL1   H7B 2159   3.961   3.189   7.420 -0.1973 -0.7350 -0.4606
   30CHL1    C8 2160   4.105   3.164   7.566 -0.8749  0.3675 -0.4766
   30CHL1    H8 2161   4.214   3.176   7.583 -0.6164 -3.4948  1.7786
   30CHL1   C14 2162   4.039   3.260   7.664  0.2454  0.3737 -0.3579
   30CHL1   H14 2163   3.928   3.253   7.656  0.0818  0.3117  1.5542
   30CHL1   C15 2164   4.059   3.417   7.653 -0.6414  0.5074 -0.4608
   30CHL1  H15A 2165   4.165   3.429   7.623 -1.0912  2.9870 -1.3007
   30CHL1  H15B 2166   3.989   3.465   7.581 -0.3053  1.4560 -0.1739
   30CHL1   C16 2167   4.031   3.464   7.797 -0.1309 -0.6705 -0.0967
   30CHL1  H16A 2168   4.123   3.511   7.837  0.8664  0.0663 -3.0334
   30CHL1  H16B 2169   3.953   3.542   7.805 -0.9957 -1.5189 -0.0437
   30CHL1   C17 2170   3.981   3.335   7.877  0.1270  0.0802 -1.3018
   30CHL1   H17 2171   3.877   3.309   7.848 -0.8259  0.4748  1.4396
   30CHL1   C13 2172   4.055   3.219   7.809 -0.2186  0.2687  0.4338
   30CHL1   C18 2173   4.199   3.222   7.847 -1.1642  0.8366  0.2894
   30CHL1  H18A 2174   4.233   3.328   7.847 -1.7840  1.0715  2.3032
   30CHL1  H18B 2175   4.203   3.178   7.949  0.0737 -0.7200 -0.3835
   30CHL1  H18C 2176   4.259   3.149   7.788  1.5458  2.4179  0.9480
   30CHL1   C12 2177   3.995   3.078   7.830  0.6303 -0.2637 -0.2700
   30CHL1  H12A 2178   4.022   3.034   7.929  0.9842  0.9372  0.1883
   30CHL1  H12B 2179   3.885   3.091   7.823  0.8075  0.7007 -1.5568
   30CHL1   C11 2180   4.054   2.971   7.737  0.5688  0.2415 -0.8805
   30CHL1  H11A 2181   4.152   2.951   7.785 -0.7837 -0.7198  1.7129
   30CHL1  H11B 2182   3.997   2.876   7.747 -0.4302  0.8493 -0.6837
   30CHL1    C9 2183   4.073   3.013   7.588 -0.0591 -0.1775  0.0771
   30CHL1    H9 2184   3.971   2.991   7.549  0.2252 -0.8161 -0.3239
   30CHL1   C10 2185   4.170   2.933   7.495  0.0887  0.2429  0.4493
   30CHL1   C19 2186   4.297   2.907   7.578 -0.1500  0.1526 -0.3797
   30CHL1  H19A 2187   4.282   2.827   7.653  0.0555  0.0330 -0.4647
   30CHL1  H19B 2188   4.373   2.866   7.508 -0.6656  0.1493 -0.9504
   30CHL1  H19C 2189   4.337   2.997   7.629 -0.3840  0.4931 -0.7840
   30CHL1    C1 2190   4.100   2.798   7.471 -0.2983 -0.5163 -0.2951
   30CHL1   H1A 2191   4.078   2.746   7.567 -0.2561 -1.6061 -0.8579
   30CHL1   H1B 2192   4.000   2.826   7.431  0.0201 -0.5477 -1.1295
   30CHL1    C2 2193   4.179   2.702   7.382 -0.6331  0.7929  0.4072
   30CHL1   H2A 2194   4.122   2.609   7.364  1.4772 -0.1008 -2.3747
   30CHL1   H2B 2195   4.275   2.671   7.429 -0.3084 -1.9066 -1.8415
   30CHL1   C20 2196   3.991   3.349   8.034  0.0503  1.0974  0.3689
   30CHL1   H20 2197   4.093   3.334   8.076  0.0187  0.1552  0.1321
   30CHL1   C21 2198   3.911   3.237   8.107  0.4538  0.2300  0.9459
   30CHL1  H21A 2199   3.806   3.231   8.072  1.3245 -0.5020 -1.8018
   30CHL1  H21B 2200   3.911   3.239   8.218  1.2226  1.4662  0.9449
   30CHL1  H21C 2201   3.970   3.145   8.090  0.8675  0.6835 -0.1233
   30CHL1   C22 2202   3.951   3.493   8.091  0.0223  0.1574 -0.1066
   30CHL1  H22A 2203   4.015   3.568   8.040  0.2128  0.3394  0.3980
   30CHL1  H22B 2204   3.844   3.511   8.067 -0.8554 -2.5411  1.4119
   30CHL1   C23 2205   3.991   3.516   8.237  0.1106  0.1176  0.8864
   30CHL1  H23A 2206   3.910   3.463   8.293  0.2199 -1.1745 -0.1317
   30CHL1  H23B 2207   4.083   3.455   8.243 -1.1563 -1.9679  0.4170
   30CHL1   C24 2208   4.006   3.670   8.267 -0.0047  0.0668  0.1354
   30CHL1  H24A 2209   4.098   3.703   8.215 -1.4785  1.5101 -1.7118
   30CHL1  H24B 2210   3.919   3.723   8.222 -0.1130  0.9538  1.3299
   30CHL1   C25 2211   4.017   3.698   8.417  0.0443 -0.1919  0.7472
   30CHL1   H25 2212   3.928   3.654   8.467 -0.9631 -1.4932 -2.0338
   30CHL1   C26 2213   4.140   3.644   8.487 -0.4410 -0.9182  0.2207
   30CHL1  H26A 2214   4.227   3.682   8.428 -0.1971 -0.4488  0.8708
   30CHL1  H26B 2215   4.144   3.679   8.593 -0.6931  2.3359 -0.7355
   30CHL1  H26C 2216   4.131   3.533   8.493 -1.6597 -0.9474 -1.4967
   30CHL1   C27 2217   4.012   3.850   8.443 -0.1927  0.3551  0.2145
   30CHL1  H27A 2218   3.925   3.894   8.496  0.3157  1.3070  0.2854
   30CHL1  H27B 2219   4.101   3.858   8.510  0.1378 -3.3072  0.3873
   30CHL1  H27C 2220   4.035   3.914   8.356  1.4493 -0.1398  0.2448
   31CHL1    C3 2221   1.230   5.093   6.693  0.1807 -0.9219 -0.3707
   31CHL1    H3 2222   1.267   5.198   6.692 -0.8151 -0.5402  0.6554
   31CHL1    O3 2223   1.226   5.041   6.563 -0.0968  0.7339 -0.1823
   31CHL1   H3' 2224   1.263   4.954   6.578 -0.9055  0.8796  3.3639
   31CHL1    C4 2225   1.331   5.014   6.783  0.2243 -0.1484 -0.2125
   31CHL1   H4A 2226   1.301   4.908   6.795 -1.4327  0.4729  1.6913
   31CHL1   H4B 2227   1.429   5.007   6.731  0.5062 -1.6685  0.4648
   31CHL1    C5 2228   1.350   5.079   6.913 -0.8526  0.1240 -0.0944
   31CHL1    C6 2229   1.475   5.118   6.955  0.0515 -0.6305 -0.6206
   31CHL1    H6 2230   1.565   5.100   6.894 -0.2078  1.2678 -1.6270
   31CHL1    C7 2231   1.496   5.176   7.095 -0.4602 -0.0966 -0.4995
   31CHL1   H7A 2232   1.585   5.129   7.143  0.1334  0.2485 -1.2453
   31CHL1   H7B 2233   1.518   5.284   7.089 -0.4071 -0.1999 -3.0304
   31CHL1    C8 2234   1.377   5.148   7.192 -0.2689  0.3590  0.2726
   31CHL1    H8 2235   1.367   5.039   7.215 -1.6785  0.2400 -0.7875
   31CHL1   C14 2236   1.408   5.231   7.316 -0.4578  0.3047  0.6252
   31CHL1   H14 2237   1.415   5.337   7.281 -1.4243  0.0053 -0.5562
   31CHL1   C15 2238   1.536   5.203   7.400  0.0888 -0.0154 -0.3034
   31CHL1  H15A 2239   1.527   5.100   7.442  3.0059  0.2300  1.1283
   31CHL1  H15B 2240   1.638   5.224   7.363  1.3162  2.0556  3.7428
   31CHL1   C16 2241   1.517   5.290   7.531  0.1416  0.3388 -0.2574
   31CHL1  H16A 2242   1.538   5.222   7.617 -2.2409 -0.1641  0.0083
   31CHL1  H16B 2243   1.573   5.385   7.530 -0.7493  0.9382 -3.6702
   31CHL1   C17 2244   1.370   5.327   7.525  0.7263 -0.2895 -0.1128
   31CHL1   H17 2245   1.369   5.425   7.472  0.0742 -0.6044 -0.6943
   31CHL1   C13 2246   1.297   5.237   7.419  0.5314  0.6572 -0.6296
   31CHL1   C18 2247   1.266   5.097   7.482 -0.2217 -0.4677  0.4014
   31CHL1  H18A 2248   1.242   5.029   7.397  0.5130  0.7061 -0.8023
   31CHL1  H18B 2249   1.352   5.052   7.536  0.0213 -2.4653 -1.4691
   31CHL1  H18C 2250   1.175   5.106   7.544 -0.7297 -0.4336 -0.3416
   31CHL1   C12 2251   1.170   5.288   7.345 -0.7169  0.5426 -0.6431
   31CHL1  H12A 2252   1.084   5.283   7.416  0.9832 -1.5736  1.4626
   31CHL1  H12B 2253   1.172   5.390   7.302 -1.8091  1.2675  0.9131
   31CHL1   C11 2254   1.131   5.192   7.231  1.1029  0.3832  0.1501
   31CHL1  H11A 2255   1.104   5.093   7.272  1.2275 -0.7625 -2.3457
   31CHL1  H11B 2256   1.037   5.225   7.181  1.5415  0.6626 -0.5002
   31CHL1    C9 2257   1.245   5.185   7.126  0.2248 -0.2840 -0.3213
   31CHL1    H9 2258   1.251   5.291   7.094  2.4676  0.5376  2.3352
   31CHL1   C10 2259   1.216   5.099   6.999  0.1664 -0.9307  0.6658
   31CHL1   C19 2260   1.162   4.961   7.047  1.1644 -0.2913  0.1095
   31CHL1  H19A 2261   1.225   4.943   7.137 -0.1948  1.2149  1.4196
   31CHL1  H19B 2262   1.055   4.968   7.075  0.2854 -0.3684 -2.9543
   31CHL1  H19C 2263   1.170   4.881   6.971 -0.9011  0.8317 -1.3674
   31CHL1    C1 2264   1.108   5.158   6.905 -0.1454  0.1722 -0.3070
   31CHL1   H1A 2265   1.011   5.154   6.959  0.7351 -1.3146  1.2854
   31CHL1   H1B 2266   1.134   5.262   6.877  0.5462 -0.5897 -2.7119
   31CHL1    C2 2267   1.090   5.096   6.762 -0.4402  0.1145  0.0338
   31CHL1   H2A 2268   1.004   5.142   6.709 -0.3752 -0.2063 -0.3547
   31CHL1   H2B 2269   1.065   4.991   6.790  0.0682 -0.1555 -0.5238
   31CHL1   C20 2270   1.302   5.337   7.660 -0.0311 -0.4975  0.0459
   31CHL1   H20 2271   1.267   5.243   7.707 -2.3476 -0.6288 -1.7090
   31CHL1   C21 2272   1.173   5.414   7.646  0.2487  0.2564  1.0056
   31CHL1  H21A 2273   1.111   5.416   7.739 -2.6973  2.5309 -0.8136
   31CHL1  H21B 2274   1.095   5.360   7.587 -1.9466  0.3943  3.5466
   31CHL1  H21C 2275   1.189   5.516   7.605  1.6316  0.1491  1.2577
   31CHL1   C22 2276   1.399   5.410   7.761 -0.0380  0.4559 -0.1714
   31CHL1  H22A 2277   1.485   5.341   7.779 -0.2982  0.2327  0.2224
   31CHL1  H22B 2278   1.432   5.506   7.715  2.5560  0.3180  1.2046
   31CHL1   C23 2279   1.344   5.431   7.903 -0.4895 -0.1930 -0.0616
   31CHL1  H23A 2280   1.262   5.506   7.895 -1.6257 -1.3820  0.1356
   31CHL1  H23B 2281   1.309   5.336   7.947 -1.0580  0.2004  0.3488
   31CHL1   C24 2282   1.452   5.503   7.990 -0.1537  0.5875 -0.0326
   31CHL1  H24A 2283   1.540   5.437   8.001 -0.2966  0.1918 -1.1140
   31CHL1  H24B 2284   1.500   5.588   7.937  1.0662 -0.9805 -1.5746
   31CHL1   C25 2285   1.412   5.522   8.141  0.1293 -0.4179  0.1014
   31CHL1   H25 2286   1.360   5.430   8.174  1.4779 -1.3353 -0.2177
   31CHL1   C26 2287   1.540   5.542   8.229  0.0061 -0.4427 -0.2958
   31CHL1  H26A 2288   1.613   5.459   8.219 -0.3999 -1.0973  1.7401
   31CHL1  H26B 2289   1.599   5.630   8.193  0.3593 -1.1093 -1.3882
   31CHL1  H26C 2290   1.521   5.556   8.337 -2.2180 -2.4485 -0.3660
   31CHL1   C27 2291   1.312   5.643   8.162  0.7081 -0.2352 -0.1127
   31CHL1  H27A 2292   1.307   5.666   8.271  1.4779  0.8133 -0.2790
   31CHL1  H27B 2293   1.213   5.608   8.126  0.8142 -0.2530 -0.3897
   31CHL1  H27C 2294   1.351   5.729   8.103 -1.8027 -0.4487 -2.2498
   32CHL1    C3 2295   1.452   3.805   6.918  0.1583 -0.2086 -0.3181
   32CHL1    H3 2296   1.343   3.813   6.896 -0.0458 -2.4065 -0.2657
   32CHL1    O3 2297   1.531   3.806   6.800  0.3873  0.4998  0.1570
   32CHL1   H3' 2298   1.620   3.799   6.835  1.8113 -0.3728 -3.2102
   32CHL1    C4 2299   1.503   3.930   6.993  0.0014  0.7786 -1.0126
   32CHL1   H4A 2300   1.613   3.921   6.998 -0.0895 -0.1783 -0.3752
   32CHL1   H4B 2301   1.479   4.020   6.932  0.8540  2.0830  0.5013
   32CHL1    C5 2302   1.439   3.937   7.134 -0.5811 -0.1088 -0.6883
   32CHL1    C6 2303   1.368   4.041   7.180  0.0789 -0.5753  0.3916
   32CHL1    H6 2304   1.347   4.132   7.122  0.3296  0.9308  2.5626
   32CHL1    C7 2305   1.305   4.052   7.313 -0.2783  0.1279  0.1424
   32CHL1   H7A 2306   1.321   4.151   7.361  0.3122 -0.9413  2.3065
   32CHL1   H7B 2307   1.196   4.034   7.305 -0.3676 -0.3222  1.9234
   32CHL1    C8 2308   1.355   3.943   7.412  0.6667 -0.1073 -0.1230
   32CHL1    H8 2309   1.457   3.970   7.446  1.3322 -2.4365 -0.1524
   32CHL1   C14 2310   1.273   3.936   7.539 -0.2533  0.3496 -0.9216
   32CHL1   H14 2311   1.172   3.900   7.510 -0.8901  2.0513 -0.9603
   32CHL1   C15 2312   1.229   4.063   7.609  0.5065 -0.7008  0.0022
   32CHL1  H15A 2313   1.307   4.143   7.607 -0.5634  0.5134  2.7400
   32CHL1  H15B 2314   1.142   4.107   7.556  0.9116  0.8193  0.5558
   32CHL1   C16 2315   1.194   4.020   7.752 -0.2959 -0.1111  0.0498
   32CHL1  H16A 2316   1.268   4.065   7.822 -0.0830 -0.7473  0.2464
   32CHL1  H16B 2317   1.090   4.050   7.777 -0.4518 -1.2556  0.8718
   32CHL1   C17 2318   1.209   3.866   7.753 -0.3326  0.5831 -0.6897
   32CHL1   H17 2319   1.111   3.825   7.721  0.4358 -1.5044 -0.4937
   32CHL1   C13 2320   1.311   3.834   7.645 -0.1382  0.1734  0.2794
   32CHL1   C18 2321   1.455   3.869   7.700  0.3852  0.0551  0.2766
   32CHL1  H18A 2322   1.533   3.841   7.626  0.6661  0.4626  0.4147
   32CHL1  H18B 2323   1.469   3.979   7.712 -0.2512  0.3431 -1.3871
   32CHL1  H18C 2324   1.475   3.810   7.792 -3.6629 -1.1089  0.5952
   32CHL1   C12 2325   1.313   3.700   7.581 -0.2961  0.5357  0.6350
   32CHL1  H12A 2326   1.357   3.628   7.653  1.9357  0.1141 -1.0288
   32CHL1  H12B 2327   1.210   3.666   7.557  0.3528  0.3115 -2.2610
   32CHL1   C11 2328   1.397   3.705   7.448 -0.4600 -0.0270  0.0625
   32CHL1  H11A 2329   1.501   3.714   7.485  0.1432  1.1152 -1.7981
   32CHL1  H11B 2330   1.388   3.601   7.409 -1.1090 -0.7871  2.0589
   32CHL1    C9 2331   1.360   3.807   7.341  0.3388 -0.2712 -0.3926
   32CHL1    H9 2332   1.259   3.783   7.302  0.6346 -0.3482 -1.1240
   32CHL1   C10 2333   1.454   3.804   7.217  0.0397 -0.1242  0.2987
   32CHL1   C19 2334   1.603   3.801   7.258 -0.6567  0.2548  0.3181
   32CHL1  H19A 2335   1.674   3.799   7.173  0.6441  2.0294  1.2926
   32CHL1  H19B 2336   1.625   3.894   7.314  0.6323 -0.1178  0.4614
   32CHL1  H19C 2337   1.623   3.710   7.320 -0.4046 -0.3006 -0.5673
   32CHL1    C1 2338   1.428   3.672   7.137 -0.1172 -0.0770  0.0584
   32CHL1   H1A 2339   1.460   3.582   7.194 -0.8490  0.4356  1.3175
   32CHL1   H1B 2340   1.321   3.666   7.106 -0.0541  1.8627 -0.6708
   32CHL1    C2 2341   1.480   3.674   6.991  0.5266  0.5084  0.1019
   32CHL1   H2A 2342   1.453   3.593   6.919  1.0752  1.1905 -0.9021
   32CHL1   H2B 2343   1.590   3.660   7.002  0.1753 -1.6275  1.4895
   32CHL1   C20 2344   1.228   3.821   7.901  1.0485  0.5063 -0.8743
   32CHL1   H20 2345   1.321   3.872   7.931  2.1646 -1.0422 -1.5463
   32CHL1   C21 2346   1.263   3.673   7.902 -0.6183 -0.5816  0.9481
   32CHL1  H21A 2347   1.362   3.655   7.855 -1.2571  0.2642 -0.7998
   32CHL1  H21B 2348   1.175   3.624   7.856 -1.6617  1.8580  0.1601
   32CHL1  H21C 2349   1.266   3.640   8.008 -3.2360  0.6506  1.4730
   32CHL1   C22 2350   1.115   3.869   7.997  0.3456  0.6585  0.2715
   32CHL1  H22A 2351   1.124   3.815   8.094 -0.4742 -2.6300 -1.3233
   32CHL1  H22B 2352   1.122   3.979   8.011 -0.8295  0.8873 -0.7151
   32CHL1   C23 2353   0.972   3.852   7.939  0.2727 -0.1667  0.7865
   32CHL1  H23A 2354   0.953   3.913   7.848  1.6010  0.5059  0.9348
   32CHL1  H23B 2355   0.952   3.745   7.916 -0.3337 -0.4933  2.7006
   32CHL1   C24 2356   0.873   3.880   8.057  0.1716  1.0427 -0.0588
   32CHL1  H24A 2357   0.774   3.836   8.031  0.4259 -0.0878  0.7989
   32CHL1  H24B 2358   0.910   3.827   8.148  0.4373  1.8726  0.3211
   32CHL1   C25 2359   0.857   4.026   8.097  0.4678 -0.3527 -0.6400
   32CHL1   H25 2360   0.945   4.075   8.049  0.0951 -0.9636 -1.9992
   32CHL1   C26 2361   0.735   4.094   8.034 -0.4468 -0.1921 -0.2267
   32CHL1  H26A 2362   0.747   4.087   7.924 -1.8934 -1.4919 -0.3346
   32CHL1  H26B 2363   0.650   4.038   8.078  0.9484 -2.6086 -0.4351
   32CHL1  H26C 2364   0.724   4.203   8.058 -0.2476  0.5619 -3.1866
   32CHL1   C27 2365   0.852   4.039   8.248 -0.1129  0.6454  0.3938
   32CHL1  H27A 2366   0.950   4.001   8.283  0.6000 -0.2498 -2.3489
   32CHL1  H27B 2367   0.844   4.142   8.289  1.1673  0.3369  1.4840
   32CHL1  H27C 2368   0.766   3.974   8.277  1.6104 -1.6930  0.5478
   33CHL1    C3 2369   1.070   3.622   6.644  0.0234  0.2607  0.3989
   33CHL1    H3 2370   1.026   3.521   6.658 -0.8670  0.4475 -0.8613
   33CHL1    O3 2371   1.146   3.616   6.526 -0.0879  0.3129  0.1992
   33CHL1   H3' 2372   1.234   3.610   6.562  0.2942  1.7913 -0.4034
   33CHL1    C4 2373   0.958   3.729   6.627 -0.2032 -0.4645  0.7611
   33CHL1   H4A 2374   1.014   3.821   6.598  1.0802 -1.1367  1.0446
   33CHL1   H4B 2375   0.895   3.708   6.538 -2.4245  3.4257  1.1839
   33CHL1    C5 2376   0.886   3.762   6.757  0.0213  0.1256 -1.0315
   33CHL1    C6 2377   0.753   3.768   6.765 -0.6932 -0.5731 -0.6778
   33CHL1    H6 2378   0.690   3.754   6.676 -2.3400  1.2064  0.1448
   33CHL1    C7 2379   0.674   3.807   6.893  0.1134  0.0770  0.0734
   33CHL1   H7A 2380   0.589   3.874   6.867 -0.7710 -1.3665 -0.9277
   33CHL1   H7B 2381   0.624   3.717   6.934  1.3169 -0.4799  0.3570
   33CHL1    C8 2382   0.764   3.882   6.995  0.4009 -0.3515  0.3036
   33CHL1    H8 2383   0.783   3.984   6.954 -2.1486 -0.5552 -1.5682
   33CHL1   C14 2384   0.688   3.895   7.125  0.2670 -0.1756 -1.0676
   33CHL1   H14 2385   0.671   3.790   7.155  1.1920  0.1764  0.7949
   33CHL1   C15 2386   0.560   3.973   7.120  0.0962  0.0317 -1.0725
   33CHL1  H15A 2387   0.568   4.073   7.073 -0.9994  0.6394 -0.0325
   33CHL1  H15B 2388   0.482   3.908   7.074 -0.4694  1.4815 -2.2396
   33CHL1   C16 2389   0.542   3.991   7.276  0.5530  0.5185 -0.0674
   33CHL1  H16A 2390   0.533   4.102   7.280 -1.0521  0.3544  2.4970
   33CHL1  H16B 2391   0.450   3.951   7.322  1.4646  0.2311  1.5937
   33CHL1   C17 2392   0.665   3.934   7.344  0.1532 -0.4001 -0.5139
   33CHL1   H17 2393   0.641   3.826   7.349 -1.2473 -0.2912 -2.9127
   33CHL1   C13 2394   0.777   3.943   7.239  0.0339  0.6572  0.3905
   33CHL1   C18 2395   0.817   4.090   7.220 -0.3937  0.2547 -0.0169
   33CHL1  H18A 2396   0.739   4.170   7.215  0.9289  1.5776  0.0098
   33CHL1  H18B 2397   0.887   4.124   7.300 -0.6365 -1.4027  0.9457
   33CHL1  H18C 2398   0.869   4.105   7.123 -0.9939  1.4139 -0.1811
   33CHL1   C12 2399   0.901   3.853   7.254 -0.3288 -0.0609 -0.8749
   33CHL1  H12A 2400   0.965   3.870   7.344  1.7822 -2.2173 -1.8821
   33CHL1  H12B 2401   0.847   3.757   7.268 -1.8929  0.8102 -0.6478
   33CHL1   C11 2402   0.989   3.841   7.127 -0.1674  0.4016 -0.3329
   33CHL1  H11A 2403   1.015   3.948   7.117  1.2351  0.0099 -1.1324
   33CHL1  H11B 2404   1.084   3.785   7.139  0.4911  1.5882  0.0633
   33CHL1    C9 2405   0.899   3.803   7.003 -0.3562 -0.2604  0.5146
   33CHL1    H9 2406   0.871   3.701   7.038 -1.9289 -0.1501 -0.3238
   33CHL1   C10 2407   0.980   3.801   6.873  0.1408 -0.4375  0.2597
   33CHL1   C19 2408   1.019   3.951   6.852 -0.2291  0.0385  0.0211
   33CHL1  H19A 2409   1.062   3.967   6.751  1.3504  0.7301  0.7732
   33CHL1  H19B 2410   0.942   4.029   6.868 -0.1327  0.1237  0.0691
   33CHL1  H19C 2411   1.101   3.968   6.925  1.8651 -0.8503 -2.0007
   33CHL1    C1 2412   1.095   3.693   6.888  0.3971 -0.0196 -0.9158
   33CHL1   H1A 2413   1.175   3.741   6.949 -1.9094  3.1727 -0.1310
   33CHL1   H1B 2414   1.057   3.600   6.935  1.9542  0.3006  1.1174
   33CHL1    C2 2415   1.165   3.663   6.754 -0.2934  0.7691 -0.8942
   33CHL1   H2A 2416   1.234   3.577   6.770 -2.6992 -1.1490 -0.2455
   33CHL1   H2B 2417   1.216   3.757   6.724  0.8524 -0.0774 -1.7013
   33CHL1   C20 2418   0.696   4.008   7.485  0.9716 -0.4122 -0.7869
   33CHL1   H20 2419   0.720   4.115   7.468  2.9264 -0.9730 -2.0027
   33CHL1   C21 2420   0.822   3.953   7.553  0.0243  0.3133 -0.0216
   33CHL1  H21A 2421   0.828   3.952   7.664 -0.1268  1.2929  0.0052
   33CHL1  H21B 2422   0.908   4.019   7.529  1.8027 -2.3840 -1.4785
   33CHL1  H21C 2423   0.838   3.848   7.524  0.7246  0.0100  1.3833
   33CHL1   C22 2424   0.578   4.003   7.585  0.1909  0.9220 -0.3131
   33CHL1  H22A 2425   0.603   4.030   7.690 -1.6688  0.4434  0.2917
   33CHL1  H22B 2426   0.507   4.079   7.547 -0.4716 -0.4820 -2.0783
   33CHL1   C23 2427   0.515   3.865   7.611  0.9861 -0.1977  0.4262
   33CHL1  H23A 2428   0.455   3.836   7.522 -0.4711 -0.9649  1.6132
   33CHL1  H23B 2429   0.609   3.808   7.625  0.9610 -0.0689  1.1462
   33CHL1   C24 2430   0.423   3.851   7.731  0.2804 -0.3478  0.1288
   33CHL1  H24A 2431   0.482   3.856   7.825  2.6789  0.3201 -1.3023
   33CHL1  H24B 2432   0.350   3.934   7.739  1.2547  0.3818  2.1207
   33CHL1   C25 2433   0.335   3.728   7.719 -0.0524  0.2505 -0.2789
   33CHL1   H25 2434   0.262   3.729   7.803 -1.6820 -2.3686 -1.5498
   33CHL1   C26 2435   0.238   3.721   7.598  0.2801 -0.2223 -0.4043
   33CHL1  H26A 2436   0.284   3.698   7.500  1.4916 -1.2255  0.3668
   33CHL1  H26B 2437   0.165   3.644   7.630  2.3838 -2.6881 -1.2589
   33CHL1  H26C 2438   0.185   3.819   7.594 -0.4747 -0.2578  3.8210
   33CHL1   C27 2439   0.424   3.598   7.738  0.6704  0.6871  1.1116
   33CHL1  H27A 2440   0.514   3.593   7.673 -1.4327  0.5723 -2.0148
   33CHL1  H27B 2441   0.457   3.578   7.842  0.6509 -1.2838  0.7786
   33CHL1  H27C 2442   0.371   3.503   7.711  0.5158  1.1114 -0.1644
   34CHL1    C3 2443   5.138   2.541   7.030  0.3759 -0.0996 -0.9460
   34CHL1    H3 2444   5.117   2.649   7.044  1.4633  0.1748 -1.3412
   34CHL1    O3 2445   5.147   2.523   6.896  0.1896 -0.1354 -0.3892
   34CHL1   H3' 2446   5.063   2.555   6.864 -0.4684  0.0582  1.4290
   34CHL1    C4 2447   5.265   2.503   7.110 -0.3794 -0.3468  0.2777
   34CHL1   H4A 2448   5.300   2.398   7.095 -0.9975 -0.6030  0.6126
   34CHL1   H4B 2449   5.350   2.561   7.067 -0.6939 -0.6126 -0.7186
   34CHL1    C5 2450   5.260   2.527   7.260  0.2796  0.8499 -0.6045
   34CHL1    C6 2451   5.346   2.603   7.330 -0.7358  0.1297  0.3792
   34CHL1    H6 2452   5.424   2.654   7.273 -1.2469 -0.7036 -1.1173
   34CHL1    C7 2453   5.325   2.645   7.476  0.1540 -0.0419  0.3711
   34CHL1   H7A 2454   5.419   2.663   7.532 -0.6376 -1.1921  2.1649
   34CHL1   H7B 2455   5.265   2.738   7.487  0.3446 -0.1175  2.4878
   34CHL1    C8 2456   5.246   2.526   7.554 -0.0528  0.6497  0.2249
   34CHL1    H8 2457   5.309   2.435   7.555 -1.2754 -0.3490 -2.5727
   34CHL1   C14 2458   5.220   2.568   7.691 -0.5132 -0.6297 -0.3947
   34CHL1   H14 2459   5.161   2.661   7.679  1.1412  0.8312  1.9773
   34CHL1   C15 2460   5.333   2.614   7.781  0.8702 -0.3009  0.6517
   34CHL1  H15A 2461   5.428   2.558   7.765  1.6663  0.2198  3.1294
   34CHL1  H15B 2462   5.359   2.715   7.745 -1.8551  0.3658  0.3519
   34CHL1   C16 2463   5.273   2.605   7.926  0.2865 -0.0056  0.1726
   34CHL1  H16A 2464   5.327   2.540   7.997  1.1916 -0.4811 -0.9164
   34CHL1  H16B 2465   5.277   2.704   7.976  0.9688  0.2072 -0.2927
   34CHL1   C17 2466   5.123   2.558   7.912 -0.0140  0.0369  0.0033
   34CHL1   H17 2467   5.067   2.651   7.890 -2.2640 -1.3590 -0.4866
   34CHL1   C13 2468   5.118   2.485   7.774 -0.5210  0.2131  0.6429
   34CHL1   C18 2469   5.193   2.341   7.798 -0.3050  0.0036  0.3063
   34CHL1  H18A 2470   5.115   2.273   7.838 -0.8483 -0.0060 -0.7414
   34CHL1  H18B 2471   5.222   2.286   7.706 -0.2607  1.8218 -0.8331
   34CHL1  H18C 2472   5.278   2.354   7.867  2.0414 -0.6278 -2.2682
   34CHL1   C12 2473   4.988   2.485   7.690  0.1420 -0.8469 -0.2634
   34CHL1  H12A 2474   4.917   2.424   7.750 -1.7096  1.5181  0.1263
   34CHL1  H12B 2475   4.942   2.586   7.686 -1.7790 -1.5459  1.9061
   34CHL1   C11 2476   5.005   2.420   7.556  0.6684  0.0321  0.1301
   34CHL1  H11A 2477   5.037   2.317   7.583  1.0950  0.1651  0.1302
   34CHL1  H11B 2478   4.910   2.419   7.498  0.2086 -1.3165  0.8523
   34CHL1    C9 2479   5.119   2.502   7.476  0.2284  0.6214 -0.4618
   34CHL1    H9 2480   5.072   2.603   7.471 -0.1930  0.4564  0.0819
   34CHL1   C10 2481   5.140   2.454   7.328 -0.3303 -0.2531  0.3432
   34CHL1   C19 2482   5.183   2.302   7.335 -0.3172  0.1775 -0.7204
   34CHL1  H19A 2483   5.092   2.250   7.370  0.4209 -0.4772  0.3009
   34CHL1  H19B 2484   5.213   2.254   7.240  1.4999 -1.4531  0.5759
   34CHL1  H19C 2485   5.262   2.291   7.413 -0.1883 -2.5230 -1.1670
   34CHL1    C1 2486   5.009   2.477   7.241  0.0085 -0.1915 -0.2180
   34CHL1   H1A 2487   4.932   2.407   7.281  0.7727 -0.4346  0.8621
   34CHL1   H1B 2488   4.986   2.585   7.255  1.7236  0.4622 -2.0118
   34CHL1    C2 2489   5.022   2.458   7.087  1.3216  0.5282  0.1033
   34CHL1   H2A 2490   4.924   2.462   7.034  1.3953  1.3114  0.0159
   34CHL1   H2B 2491   5.054   2.352   7.080  1.7250  0.7724 -2.3318
   34CHL1   C20 2492   5.066   2.488   8.037  0.0704 -0.2434 -0.1047
   34CHL1   H20 2493   5.083   2.378   8.027  0.3661 -0.0882 -1.4866
   34CHL1   C21 2494   4.910   2.517   8.029 -0.2600  0.2916 -0.8939
   34CHL1  H21A 2495   4.859   2.421   8.048 -1.5788  0.9322 -1.0903
   34CHL1  H21B 2496   4.870   2.560   7.935 -1.1943  0.3165 -0.4896
   34CHL1  H21C 2497   4.874   2.586   8.108 -0.5109 -0.1864 -0.5857
   34CHL1   C22 2498   5.116   2.525   8.176 -0.2306 -0.2943  0.3289
   34CHL1  H22A 2499   5.224   2.502   8.190 -0.0102  1.4647  1.9431
   34CHL1  H22B 2500   5.104   2.634   8.193  0.1756 -0.4541  1.7207
   34CHL1   C23 2501   5.044   2.448   8.295  0.6592 -0.0092  0.1719
   34CHL1  H23A 2502   5.085   2.473   8.395 -0.0870 -1.1942  0.8001
   34CHL1  H23B 2503   4.935   2.469   8.289  0.2047 -2.4071 -1.5779
   34CHL1   C24 2504   5.064   2.287   8.278 -0.0965 -0.3394 -0.2962
   34CHL1  H24A 2505   4.993   2.243   8.205  0.6664 -1.8553 -0.1469
   34CHL1  H24B 2506   5.171   2.275   8.254  0.0794  2.8058 -1.6317
   34CHL1   C25 2507   5.039   2.212   8.409 -0.1738  0.1414  0.5410
   34CHL1   H25 2508   5.102   2.257   8.490  1.8484 -1.1131 -0.2452
   34CHL1   C26 2509   4.894   2.216   8.462 -0.1459 -0.8580  0.0035
   34CHL1  H26A 2510   4.822   2.171   8.389 -2.3504 -0.6109  1.8922
   34CHL1  H26B 2511   4.882   2.177   8.565 -0.8493  0.4874  0.4649
   34CHL1  H26C 2512   4.866   2.324   8.470  0.4891 -0.6728 -0.2656
   34CHL1   C27 2513   5.080   2.066   8.379  1.4772 -1.1248 -0.0911
   34CHL1  H27A 2514   5.177   2.070   8.326  1.0099  0.5179 -0.8899
   34CHL1  H27B 2515   5.085   2.004   8.471 -0.6244 -0.2083  0.7048
   34CHL1  H27C 2516   5.000   2.022   8.316 -0.5561 -2.6087  3.2751
   35CHL1    C3 2517   3.623   3.922   7.315  0.6134  0.9414 -0.9133
   35CHL1    H3 2518   3.595   4.030   7.314  0.2259  0.9185  1.2582
   35CHL1    O3 2519   3.591   3.865   7.193  0.1421  0.0064  0.1240
   35CHL1   H3' 2520   3.599   3.771   7.211  0.1438  0.0730  0.4750
   35CHL1    C4 2521   3.775   3.917   7.336  0.1782  0.1067  0.2791
   35CHL1   H4A 2522   3.809   3.812   7.322 -1.4184 -0.3681 -0.2748
   35CHL1   H4B 2523   3.825   3.972   7.254  1.1793 -2.5104 -0.9650
   35CHL1    C5 2524   3.811   3.971   7.471 -0.1943 -0.7691 -0.2230
   35CHL1    C6 2525   3.897   4.072   7.490  0.7687  0.0273  0.6884
   35CHL1    H6 2526   3.952   4.121   7.408  3.3643  2.5808  3.6627
   35CHL1    C7 2527   3.935   4.130   7.620  0.0020 -0.7833 -0.6252
   35CHL1   H7A 2528   4.044   4.130   7.639 -0.3499  3.0612  2.8346
   35CHL1   H7B 2529   3.901   4.234   7.640  0.1535 -0.9594  0.6124
   35CHL1    C8 2530   3.876   4.051   7.737 -0.4875  0.3302 -0.2902
   35CHL1    H8 2531   3.943   3.963   7.747 -0.7924 -0.0576 -1.4368
   35CHL1   C14 2532   3.887   4.126   7.871  0.3929  0.3859 -0.0578
   35CHL1   H14 2533   3.819   4.213   7.857  1.8849  1.5868 -0.1900
   35CHL1   C15 2534   4.022   4.189   7.893 -0.0055  0.0226  1.2476
   35CHL1  H15A 2535   4.098   4.109   7.880 -0.5388  0.0147 -3.0036
   35CHL1  H15B 2536   4.060   4.269   7.825 -1.8260 -1.2348 -1.4198
   35CHL1   C16 2537   4.021   4.233   8.038  0.7181  0.0701  0.0161
   35CHL1  H16A 2538   4.107   4.182   8.087 -0.3788  0.6138  2.6733
   35CHL1  H16B 2539   4.023   4.343   8.051  2.2968 -0.0464  0.9389
   35CHL1   C17 2540   3.884   4.177   8.093 -0.0634  0.1214  0.3915
   35CHL1   H17 2541   3.807   4.253   8.069  0.2313 -0.0944 -1.3534
   35CHL1   C13 2542   3.847   4.062   7.993  0.7037 -0.2525 -0.1348
   35CHL1   C18 2543   3.933   3.937   8.035 -0.0722 -0.0821 -0.0614
   35CHL1  H18A 2544   3.887   3.906   8.131 -1.0524 -0.8882 -0.7700
   35CHL1  H18B 2545   3.912   3.861   7.956 -2.1133  0.0820  0.2917
   35CHL1  H18C 2546   4.042   3.959   8.045 -0.2109  1.0971 -0.9996
   35CHL1   C12 2547   3.691   4.028   7.978  0.1746 -0.3310 -0.0976
   35CHL1  H12A 2548   3.655   3.978   8.071 -0.0366  0.0339  0.0165
   35CHL1  H12B 2549   3.630   4.121   7.974 -0.6300 -0.8738 -1.6178
   35CHL1   C11 2550   3.679   3.943   7.848 -0.2800 -0.7410  0.1802
   35CHL1  H11A 2551   3.726   3.846   7.872 -0.4212 -1.1778 -1.2119
   35CHL1  H11B 2552   3.569   3.933   7.831 -0.7084 -1.0207  2.6723
   35CHL1    C9 2553   3.736   4.003   7.715 -0.0174  0.9120  0.1723
   35CHL1    H9 2554   3.680   4.096   7.691 -1.2340 -0.5463 -3.1635
   35CHL1   C10 2555   3.724   3.917   7.588 -0.1536 -0.5172 -0.2102
   35CHL1   C19 2556   3.771   3.770   7.619 -0.6658 -0.1792 -0.5509
   35CHL1  H19A 2557   3.706   3.722   7.694  1.1780 -3.1824 -0.6779
   35CHL1  H19B 2558   3.787   3.704   7.530  1.1460  2.5362 -2.4078
   35CHL1  H19C 2559   3.871   3.759   7.666 -0.3625 -0.9334 -1.3315
   35CHL1    C1 2560   3.573   3.907   7.564  0.1831 -0.0719  0.5179
   35CHL1   H1A 2561   3.516   3.850   7.641 -2.5569 -0.7305 -1.8502
   35CHL1   H1B 2562   3.524   4.007   7.564  0.6358  0.1532  0.9216
   35CHL1    C2 2563   3.544   3.847   7.423  1.0003  0.7321 -0.2185
   35CHL1   H2A 2564   3.436   3.851   7.396  0.5946 -0.3659  1.1557
   35CHL1   H2B 2565   3.580   3.742   7.426 -0.3419  0.2544 -0.1644
   35CHL1   C20 2566   3.889   4.158   8.250 -0.2636  0.2652 -0.4655
   35CHL1   H20 2567   3.970   4.082   8.257 -0.4391 -0.2702 -3.2882
   35CHL1   C21 2568   3.754   4.115   8.305  0.3700 -0.5287 -0.4047
   35CHL1  H21A 2569   3.742   4.121   8.416 -4.4727 -1.2399 -0.6653
   35CHL1  H21B 2570   3.724   4.016   8.265 -1.2964 -0.4987  0.6617
   35CHL1  H21C 2571   3.680   4.183   8.258 -0.8776 -1.9494 -0.5836
   35CHL1   C22 2572   3.946   4.281   8.323 -0.0616  0.6657 -0.4181
   35CHL1  H22A 2573   4.013   4.345   8.261  0.5975 -0.5085 -0.9581
   35CHL1  H22B 2574   3.865   4.344   8.364 -1.2854 -2.2036  1.8774
   35CHL1   C23 2575   4.020   4.247   8.449 -0.3082  0.2548  0.0601
   35CHL1  H23A 2576   3.939   4.215   8.519  0.6368 -0.8979  0.6614
   35CHL1  H23B 2577   4.092   4.166   8.425  0.9408  2.1998 -3.4241
   35CHL1   C24 2578   4.100   4.363   8.514 -0.2781 -1.0372  0.3308
   35CHL1  H24A 2579   4.155   4.336   8.607  0.5984 -2.3496 -0.5467
   35CHL1  H24B 2580   4.178   4.390   8.440 -1.1039  2.3173  0.4952
   35CHL1   C25 2581   4.032   4.490   8.555  0.2800 -0.0577  0.5282
   35CHL1   H25 2582   3.980   4.540   8.470 -1.5641 -0.1731  1.5318
   35CHL1   C26 2583   3.928   4.449   8.662 -0.0507  0.2105  0.2931
   35CHL1  H26A 2584   3.861   4.373   8.618 -0.3015  1.3050 -1.3021
   35CHL1  H26B 2585   3.974   4.406   8.753 -0.3719 -0.2072  0.2601
   35CHL1  H26C 2586   3.876   4.541   8.694  0.3809  0.5829 -0.0527
   35CHL1   C27 2587   4.120   4.593   8.623  0.1073 -0.5110  0.5636
   35CHL1  H27A 2588   4.060   4.680   8.659  0.2408 -0.2633  0.1897
   35CHL1  H27B 2589   4.199   4.637   8.559 -1.9177  1.7763 -0.5539
   35CHL1  H27C 2590   4.172   4.550   8.711  2.0564 -1.8829 -1.1649
   36CHL1    C3 2591   1.684   1.825   6.966 -0.4343  0.1825  0.0894
   36CHL1    H3 2592   1.695   1.724   6.921  0.3163  1.1326 -1.9695
   36CHL1    O3 2593   1.750   1.921   6.884 -0.8062 -0.3268 -0.7894
   36CHL1   H3' 2594   1.725   2.012   6.902 -1.3206 -0.6334  0.0658
   36CHL1    C4 2595   1.534   1.856   6.980  0.1439  0.3131  0.0353
   36CHL1   H4A 2596   1.526   1.963   7.009 -1.1571  0.3213 -0.2936
   36CHL1   H4B 2597   1.484   1.845   6.881 -0.9569  2.6465  0.2483
   36CHL1    C5 2598   1.462   1.766   7.076 -0.1321 -0.5620 -0.2589
   36CHL1    C6 2599   1.365   1.680   7.032  0.5582 -0.1575  0.3428
   36CHL1    H6 2600   1.329   1.682   6.928 -1.5757 -0.1247  1.0462
   36CHL1    C7 2601   1.291   1.583   7.124  0.3320  0.1335 -0.7371
   36CHL1   H7A 2602   1.182   1.595   7.105  0.3094  0.5998 -0.3345
   36CHL1   H7B 2603   1.318   1.478   7.100 -1.3794 -0.3710 -0.6056
   36CHL1    C8 2604   1.330   1.607   7.274 -0.0094  0.3007 -0.1978
   36CHL1    H8 2605   1.275   1.700   7.296 -0.0598 -0.0010  0.9924
   36CHL1   C14 2606   1.284   1.488   7.354  0.4039 -0.5422  0.3493
   36CHL1   H14 2607   1.349   1.402   7.326 -0.4764 -1.2446  0.3912
   36CHL1   C15 2608   1.142   1.437   7.341  0.7323  0.2732 -0.0471
   36CHL1  H15A 2609   1.072   1.522   7.356  0.0128 -0.8192  3.6770
   36CHL1  H15B 2610   1.127   1.389   7.241  1.9194  1.8979 -1.0660
   36CHL1   C16 2611   1.124   1.340   7.454  0.1921 -0.3204 -0.5435
   36CHL1  H16A 2612   1.033   1.376   7.508  0.5236  1.3567 -1.0588
   36CHL1  H16B 2613   1.114   1.237   7.413  1.8663 -0.0188 -1.7762
   36CHL1   C17 2614   1.244   1.360   7.547 -0.6210  0.1000 -0.4829
   36CHL1   H17 2615   1.318   1.281   7.521  0.6275  1.0578  0.0493
   36CHL1   C13 2616   1.304   1.494   7.502  0.2485 -0.9130  0.0036
   36CHL1   C18 2617   1.233   1.612   7.563 -0.0861 -0.6133  0.0589
   36CHL1  H18A 2618   1.123   1.594   7.566 -0.2965 -0.5887 -3.2137
   36CHL1  H18B 2619   1.262   1.610   7.670 -0.7196  1.9937  0.3451
   36CHL1  H18C 2620   1.251   1.711   7.515 -0.9395 -0.0328  0.8897
   36CHL1   C12 2621   1.455   1.516   7.523 -0.3546  0.4444 -0.3779
   36CHL1  H12A 2622   1.474   1.508   7.633 -0.7241  0.6082 -0.3034
   36CHL1  H12B 2623   1.499   1.420   7.486 -1.7381 -0.9731  1.4344
   36CHL1   C11 2624   1.517   1.638   7.449 -0.1028  0.4426  0.7202
   36CHL1  H11A 2625   1.486   1.732   7.501  0.4293  1.4906 -0.7759
   36CHL1  H11B 2626   1.626   1.635   7.468 -0.3463 -1.8239  2.0487
   36CHL1    C9 2627   1.474   1.634   7.298 -0.1620  0.3463 -0.5854
   36CHL1    H9 2628   1.516   1.535   7.267 -2.2769 -1.5077  1.9462
   36CHL1   C10 2629   1.529   1.754   7.219 -0.4253  0.3882  0.1595
   36CHL1   C19 2630   1.513   1.877   7.304 -0.0324  0.1336 -0.0332
   36CHL1  H19A 2631   1.408   1.882   7.338 -0.8274  1.1736 -2.4693
   36CHL1  H19B 2632   1.582   1.877   7.391  0.0147  1.6117 -0.0543
   36CHL1  H19C 2633   1.523   1.966   7.238 -2.9217  1.5221  1.2441
   36CHL1    C1 2634   1.679   1.712   7.196  0.1098 -0.2916 -0.0450
   36CHL1   H1A 2635   1.724   1.699   7.297 -0.8491 -0.5547  0.3711
   36CHL1   H1B 2636   1.674   1.611   7.151  0.3516 -1.3057  2.0537
   36CHL1    C2 2637   1.746   1.821   7.110  0.1424  0.0800  0.0825
   36CHL1   H2A 2638   1.852   1.790   7.098 -0.7275 -2.5488 -1.5622
   36CHL1   H2B 2639   1.729   1.918   7.162  1.4161 -0.1338  0.9307
   36CHL1   C20 2640   1.221   1.334   7.700 -0.0491  0.5215  0.1204
   36CHL1   H20 2641   1.145   1.401   7.744 -1.3585 -0.2116 -0.9617
   36CHL1   C21 2642   1.353   1.337   7.779 -0.6912  0.2068 -0.0894
   36CHL1  H21A 2643   1.342   1.274   7.869 -3.9273  1.0304  0.2232
   36CHL1  H21B 2644   1.376   1.438   7.820 -0.9202  0.1977  0.0651
   36CHL1  H21C 2645   1.439   1.304   7.718 -1.3838 -0.4497 -0.7229
   36CHL1   C22 2646   1.145   1.195   7.711  0.5098  0.3804 -0.5949
   36CHL1  H22A 2647   1.055   1.198   7.645  0.6391  0.7896 -0.7542
   36CHL1  H22B 2648   1.219   1.120   7.673  0.4969 -1.0946  2.0817
   36CHL1   C23 2649   1.105   1.155   7.854 -0.6897  0.5848  0.0293
   36CHL1  H23A 2650   1.203   1.151   7.908 -0.8809 -0.6113  0.3196
   36CHL1  H23B 2651   1.040   1.240   7.883 -0.4763  0.2068  1.7216
   36CHL1   C24 2652   1.034   1.021   7.856  0.0877 -0.5342 -0.4567
   36CHL1  H24A 2653   0.930   1.051   7.831 -0.0971 -0.0890  0.7635
   36CHL1  H24B 2654   1.084   0.950   7.788  0.6288 -0.0510 -0.5709
   36CHL1   C25 2655   1.026   0.964   8.006  0.0383 -0.1584  0.4808
   36CHL1   H25 2656   1.125   0.976   8.055 -0.1072 -2.5641  1.5160
   36CHL1   C26 2657   0.922   1.035   8.090 -0.6694 -1.0297 -0.4470
   36CHL1  H26A 2658   0.954   1.141   8.083 -2.8434 -0.3984 -2.1111
   36CHL1  H26B 2659   0.816   1.039   8.055 -0.7337  1.3515 -0.1618
   36CHL1  H26C 2660   0.931   1.003   8.196  0.4614  0.4168 -0.0614
   36CHL1   C27 2661   0.997   0.815   8.004 -0.1513 -0.0457 -0.4441
   36CHL1  H27A 2662   0.910   0.785   7.942  1.0279 -0.5165 -1.9199
   36CHL1  H27B 2663   1.087   0.754   7.984 -0.8967 -2.1672  1.9894
   36CHL1  H27C 2664   0.962   0.788   8.107  0.1509 -1.5856 -0.7168
   37CHL1    C3 2665   2.015   5.510   6.930 -0.5207  0.4402 -0.1724
   37CHL1    H3 2666   2.042   5.618   6.927 -0.5388  0.4253 -2.4199
   37CHL1    O3 2667   2.026   5.459   6.799 -0.4115 -0.1425  0.4146
   37CHL1   H3' 2668   1.972   5.380   6.795  1.4824 -1.4659 -1.5970
   37CHL1    C4 2669   2.117   5.424   7.003  0.0782  0.0418 -0.4061
   37CHL1   H4A 2670   2.095   5.316   6.988 -0.9274  0.1182  0.3418
   37CHL1   H4B 2671   2.217   5.447   6.961  0.3875 -1.1586 -0.3537
   37CHL1    C5 2672   2.109   5.458   7.148 -0.0050 -0.1897 -0.4833
   37CHL1    C6 2673   2.217   5.508   7.209  0.0652 -0.0346  0.0406
   37CHL1    H6 2674   2.306   5.539   7.153  1.9339 -0.6127  2.5281
   37CHL1    C7 2675   2.217   5.538   7.349  0.0389 -0.8824 -0.4245
   37CHL1   H7A 2676   2.317   5.514   7.393 -0.7044 -1.6164  0.9317
   37CHL1   H7B 2677   2.201   5.648   7.360  2.6007 -0.3275 -1.4762
   37CHL1    C8 2678   2.105   5.466   7.432  0.6554  0.2506  0.2285
   37CHL1    H8 2679   2.131   5.358   7.429  1.5060  0.4588  0.0849
   37CHL1   C14 2680   2.090   5.524   7.570 -0.6086  0.0381 -0.4904
   37CHL1   H14 2681   2.069   5.632   7.559  0.4906  0.4059  0.6760
   37CHL1   C15 2682   2.223   5.525   7.659  0.3719  0.6377  0.2672
   37CHL1  H15A 2683   2.273   5.427   7.640  0.8559  1.3032 -2.2537
   37CHL1  H15B 2684   2.289   5.611   7.635  0.5897  1.3352  3.0665
   37CHL1   C16 2685   2.169   5.550   7.802  0.2117  0.0705 -0.2711
   37CHL1  H16A 2686   2.204   5.479   7.880 -1.3594  0.9957  1.3424
   37CHL1  H16B 2687   2.196   5.653   7.836  2.5563  0.2499 -2.3404
   37CHL1   C17 2688   2.011   5.520   7.793 -0.4273  0.8281 -0.2633
   37CHL1   H17 2689   1.966   5.621   7.782 -2.3080 -0.0058 -0.6686
   37CHL1   C13 2690   1.978   5.461   7.654  0.7431 -0.8858 -0.7501
   37CHL1   C18 2691   2.005   5.304   7.670 -0.6050 -0.8366  0.0083
   37CHL1  H18A 2692   1.920   5.266   7.731 -0.4873  0.9164  1.3576
   37CHL1  H18B 2693   1.990   5.253   7.573 -1.7216 -0.9518  0.2319
   37CHL1  H18C 2694   2.102   5.275   7.718 -0.8264 -0.5855  0.6276
   37CHL1   C12 2695   1.839   5.493   7.593 -0.2951 -0.0572  0.0725
   37CHL1  H12A 2696   1.759   5.441   7.650 -1.7959  1.6971 -0.3032
   37CHL1  H12B 2697   1.817   5.601   7.610  0.2418 -0.0467  0.7498
   37CHL1   C11 2698   1.840   5.445   7.447  0.1287 -0.6231 -0.2133
   37CHL1  H11A 2699   1.836   5.334   7.448  0.1978 -0.6459 -1.3263
   37CHL1  H11B 2700   1.758   5.477   7.379  2.2448  0.6851 -2.3050
   37CHL1    C9 2701   1.968   5.484   7.358 -0.5791  0.1266 -0.1203
   37CHL1    H9 2702   1.958   5.595   7.351 -1.3132  0.1290  0.7984
   37CHL1   C10 2703   1.972   5.427   7.219 -0.2620  0.1463 -0.4021
   37CHL1   C19 2704   1.947   5.277   7.220 -0.8556  0.1224 -0.1428
   37CHL1  H19A 2705   1.957   5.235   7.118 -0.4460  0.7105 -0.3443
   37CHL1  H19B 2706   2.030   5.226   7.273 -0.7024  0.0968 -0.4046
   37CHL1  H19C 2707   1.847   5.238   7.248 -0.8571  0.3941  0.2466
   37CHL1    C1 2708   1.859   5.500   7.138  0.1534 -0.1639  0.2346
   37CHL1   H1A 2709   1.759   5.466   7.171 -0.0065  0.3245  0.2564
   37CHL1   H1B 2710   1.867   5.609   7.159  1.4852 -0.4852  1.5219
   37CHL1    C2 2711   1.868   5.497   6.981  0.7486 -0.2941 -0.1050
   37CHL1   H2A 2712   1.801   5.573   6.936  0.7255  1.1654  2.1949
   37CHL1   H2B 2713   1.838   5.394   6.952  1.0696 -0.6532  0.8102
   37CHL1   C20 2714   1.957   5.461   7.926  0.0594  0.0339 -0.7463
   37CHL1   H20 2715   1.976   5.354   7.947 -0.7125  0.2166  1.1319
   37CHL1   C21 2716   1.802   5.456   7.927 -0.2032 -0.5316 -0.1320
   37CHL1  H21A 2717   1.760   5.447   8.030 -0.8478  0.2151 -0.3203
   37CHL1  H21B 2718   1.763   5.374   7.863  1.7572 -1.6994  0.0736
   37CHL1  H21C 2719   1.764   5.555   7.894  0.5449  0.0317  0.6334
   37CHL1   C22 2720   2.000   5.531   8.060 -0.2443 -0.1169 -0.1396
   37CHL1  H22A 2721   1.937   5.477   8.135 -0.2699  0.1316  0.0196
   37CHL1  H22B 2722   2.107   5.509   8.078  0.4132  1.1545 -2.2665
   37CHL1   C23 2723   1.971   5.681   8.077  0.7885  0.2976  0.5257
   37CHL1  H23A 2724   2.057   5.741   8.039  0.6220  0.0161 -0.3121
   37CHL1  H23B 2725   1.886   5.706   8.010  3.0038  0.3221 -2.4401
   37CHL1   C24 2726   1.940   5.725   8.221 -0.0034  0.4691 -0.1543
   37CHL1  H24A 2727   1.852   5.680   8.271  0.5177 -0.3372  0.0528
   37CHL1  H24B 2728   2.026   5.704   8.288 -1.8560 -1.2399  1.8289
   37CHL1   C25 2729   1.938   5.877   8.245  0.5059 -0.1643 -0.0925
   37CHL1   H25 2730   2.035   5.919   8.211 -0.0384 -1.4636 -3.6657
   37CHL1   C26 2731   1.834   5.953   8.166  0.1912 -0.2378 -0.8921
   37CHL1  H26A 2732   1.732   5.913   8.183  0.1046 -0.5079 -2.0251
   37CHL1  H26B 2733   1.845   6.061   8.193  0.7190 -0.4746 -0.1131
   37CHL1  H26C 2734   1.863   5.961   8.059 -0.9697  1.4944 -1.1212
   37CHL1   C27 2735   1.912   5.902   8.392  0.0603  0.4480 -0.3989
   37CHL1  H27A 2736   1.921   6.011   8.414 -1.8894  0.6521 -0.4815
   37CHL1  H27B 2737   1.815   5.859   8.424  0.5311  0.0293  0.5297
   37CHL1  H27C 2738   1.981   5.852   8.464 -0.7859  0.6056  0.5458
   38CHL1    C3 2739   6.238   5.682   6.811  0.0207 -0.2035 -0.2129
   38CHL1    H3 2740   6.239   5.783   6.857 -1.9369  0.4258 -1.4114
   38CHL1    O3 2741   6.242   5.699   6.666 -0.2068  0.0783  0.6412
   38CHL1   H3' 2742   6.219   5.611   6.635  0.4258  0.9009 -2.4648
   38CHL1    C4 2743   6.358   5.595   6.850 -0.5774  0.2923 -0.5128
   38CHL1   H4A 2744   6.357   5.506   6.784  2.6353  0.1275 -0.5023
   38CHL1   H4B 2745   6.446   5.652   6.814  0.0565 -0.9284 -0.9403
   38CHL1    C5 2746   6.368   5.561   7.000  0.0197 -0.5181 -0.5244
   38CHL1    C6 2747   6.472   5.614   7.080 -0.0976 -0.5536  0.7399
   38CHL1    H6 2748   6.555   5.663   7.027 -0.4589 -1.1537 -0.4176
   38CHL1    C7 2749   6.483   5.613   7.224 -0.4147 -0.2933  0.5305
   38CHL1   H7A 2750   6.582   5.586   7.269 -1.0125  0.2855  2.2978
   38CHL1   H7B 2751   6.453   5.712   7.265  2.1154  0.4622  0.7826
   38CHL1    C8 2752   6.390   5.507   7.275  0.0256 -0.1081 -0.7728
   38CHL1    H8 2753   6.438   5.407   7.265 -0.4306 -0.5706  1.1013
   38CHL1   C14 2754   6.378   5.520   7.430  0.6925 -0.5043 -0.1398
   38CHL1   H14 2755   6.330   5.618   7.451  0.0313 -1.1755  1.5990
   38CHL1   C15 2756   6.506   5.528   7.515  0.1707 -0.9019  0.7098
   38CHL1  H15A 2757   6.577   5.449   7.483 -0.6510 -1.6074  0.5939
   38CHL1  H15B 2758   6.559   5.624   7.500  0.6589 -0.9812  1.8406
   38CHL1   C16 2759   6.461   5.509   7.659 -0.0237 -0.1909 -0.1854
   38CHL1  H16A 2760   6.528   5.444   7.719 -1.9627  0.7547  3.2833
   38CHL1  H16B 2761   6.453   5.609   7.706 -2.3854 -1.5830  2.7293
   38CHL1   C17 2762   6.313   5.450   7.656  0.0215  0.3023  0.0900
   38CHL1   H17 2763   6.244   5.534   7.678 -2.5005 -1.8694  1.0295
   38CHL1   C13 2764   6.290   5.424   7.502  0.7800  0.2140  0.5491
   38CHL1   C18 2765   6.337   5.276   7.470  0.5167 -0.1007  0.0696
   38CHL1  H18A 2766   6.347   5.255   7.361  1.3382 -0.1900  0.1608
   38CHL1  H18B 2767   6.432   5.256   7.523  0.0847 -2.0088  0.1813
   38CHL1  H18C 2768   6.259   5.208   7.511  1.2845  0.5479  2.7971
   38CHL1   C12 2769   6.143   5.450   7.451  0.0364  0.0953  0.4417
   38CHL1  H12A 2770   6.059   5.392   7.496  1.1979 -2.4633 -0.4958
   38CHL1  H12B 2771   6.121   5.558   7.463 -0.7804 -0.1478  1.2537
   38CHL1   C11 2772   6.134   5.427   7.293 -0.0089 -0.0845 -0.4350
   38CHL1  H11A 2773   6.132   5.317   7.273 -1.7518 -0.2861  0.5726
   38CHL1  H11B 2774   6.037   5.460   7.249  0.2865 -1.2153 -2.0266
   38CHL1    C9 2775   6.248   5.513   7.212  0.2309 -0.5760  0.2084
   38CHL1    H9 2776   6.213   5.617   7.226 -3.6448 -1.5496 -0.8678
   38CHL1   C10 2777   6.241   5.499   7.054 -0.2822 -0.3251 -0.4082
   38CHL1   C19 2778   6.242   5.345   7.025  0.1580 -0.1376  0.4757
   38CHL1  H19A 2779   6.323   5.291   7.080  0.5633 -0.4460 -0.4053
   38CHL1  H19B 2780   6.153   5.286   7.055  1.3753 -2.2691  0.1557
   38CHL1  H19C 2781   6.254   5.333   6.915  0.0083  1.2512  0.2986
   38CHL1    C1 2782   6.117   5.574   7.006  0.7087  0.4719 -0.2666
   38CHL1   H1A 2783   6.030   5.505   7.018  1.4718 -0.1135  2.7793
   38CHL1   H1B 2784   6.109   5.672   7.058 -1.2306  0.1768  0.0887
   38CHL1    C2 2785   6.110   5.605   6.855  0.0160  0.0213 -0.3102
   38CHL1   H2A 2786   6.022   5.662   6.817 -0.2691 -2.4626 -3.7979
   38CHL1   H2B 2787   6.106   5.508   6.801 -1.7049 -1.1613  1.7839
   38CHL1   C20 2788   6.285   5.344   7.760 -0.2301  1.3130 -0.8706
   38CHL1   H20 2789   6.334   5.250   7.728 -0.6478  0.6951  0.2643
   38CHL1   C21 2790   6.137   5.319   7.766 -0.7374 -0.4992  0.6003
   38CHL1  H21A 2791   6.088   5.309   7.667  0.0832 -1.0271  0.2292
   38CHL1  H21B 2792   6.084   5.413   7.792 -0.6016 -0.1410 -0.3572
   38CHL1  H21C 2793   6.116   5.235   7.835  2.8319 -1.9853  0.1061
   38CHL1   C22 2794   6.342   5.368   7.907 -0.2837 -0.4395 -0.1446
   38CHL1  H22A 2795   6.290   5.286   7.960  0.7736 -1.8133 -1.1391
   38CHL1  H22B 2796   6.446   5.332   7.920 -0.9337 -2.0101  1.0748
   38CHL1   C23 2797   6.305   5.503   7.960  0.3032 -0.1384 -0.4412
   38CHL1  H23A 2798   6.333   5.580   7.885  1.2623 -0.0306  0.0080
   38CHL1  H23B 2799   6.195   5.518   7.965  0.3540  1.7519 -3.0091
   38CHL1   C24 2800   6.371   5.522   8.099  0.2606  0.1874 -0.3824
   38CHL1  H24A 2801   6.323   5.460   8.178 -0.3633  2.2575  0.9461
   38CHL1  H24B 2802   6.476   5.488   8.091  0.1735  0.0519 -0.9953
   38CHL1   C25 2803   6.370   5.670   8.143  0.7694 -0.0188  0.0527
   38CHL1   H25 2804   6.266   5.708   8.134 -0.4761 -2.8572  1.2188
   38CHL1   C26 2805   6.407   5.673   8.293  0.7256 -0.6666 -0.2402
   38CHL1  H26A 2806   6.392   5.779   8.324 -0.9479 -0.2972 -2.1010
   38CHL1  H26B 2807   6.343   5.599   8.345  0.0661 -2.0552 -2.8483
   38CHL1  H26C 2808   6.513   5.640   8.293  1.8449  2.5309 -0.5923
   38CHL1   C27 2809   6.469   5.757   8.066  0.4175 -0.2562  0.9290
   38CHL1  H27A 2810   6.572   5.717   8.069  0.2244 -0.8304  0.1591
   38CHL1  H27B 2811   6.428   5.766   7.963  1.5728 -1.7215  0.3090
   38CHL1  H27C 2812   6.479   5.861   8.107 -0.1433 -0.7587  2.4222
   39CHL1    C3 2813   6.066   4.906   7.004  0.3066 -0.8738  0.1924
   39CHL1    H3 2814   6.166   4.952   6.993  0.3940 -1.1623 -0.2603
   39CHL1    O3 2815   5.985   4.904   6.887 -0.2618 -0.3386  0.0074
   39CHL1   H3' 2816   5.988   4.987   6.839  4.4333 -0.9662 -1.2720
   39CHL1    C4 2817   6.087   4.768   7.067 -0.1975  0.0287  0.1742
   39CHL1   H4A 2818   5.986   4.722   7.076 -1.1354  1.3252 -2.4871
   39CHL1   H4B 2819   6.148   4.715   6.990  1.9895  1.0867  1.0840
   39CHL1    C5 2820   6.154   4.763   7.203  0.0459  0.1704  0.6693
   39CHL1    C6 2821   6.270   4.707   7.227  0.1452  0.9796  0.0928
   39CHL1    H6 2822   6.308   4.645   7.145 -1.8792  0.4173 -0.4739
   39CHL1    C7 2823   6.340   4.702   7.361 -0.4348 -0.3148 -0.2224
   39CHL1   H7A 2824   6.376   4.601   7.390  1.3009  0.0742 -0.9518
   39CHL1   H7B 2825   6.429   4.768   7.364 -0.0217 -0.8370 -0.8448
   39CHL1    C8 2826   6.245   4.744   7.478  0.4893 -0.5779 -0.5162
   39CHL1    H8 2827   6.166   4.668   7.498 -1.0006  1.3259  1.2763
   39CHL1   C14 2828   6.325   4.764   7.607  0.7284  0.4836 -0.4189
   39CHL1   H14 2829   6.399   4.841   7.578 -1.2266  2.5445 -0.2829
   39CHL1   C15 2830   6.405   4.651   7.670  0.7155 -0.1802 -0.1285
   39CHL1  H15A 2831   6.348   4.556   7.662  0.8565 -0.1087 -3.4917
   39CHL1  H15B 2832   6.504   4.638   7.622  0.7926 -2.6197  0.5718
   39CHL1   C16 2833   6.431   4.689   7.818 -0.1575  0.4552  0.2291
   39CHL1  H16A 2834   6.387   4.620   7.893  1.5614 -1.5877 -0.5211
   39CHL1  H16B 2835   6.542   4.687   7.829  0.2057 -0.9131 -2.7537
   39CHL1   C17 2836   6.363   4.829   7.832 -0.9889  0.3228  0.9562
   39CHL1   H17 2837   6.441   4.903   7.802  0.5855 -2.0896 -1.3420
   39CHL1   C13 2838   6.245   4.831   7.724 -0.4867  0.1709  0.4979
   39CHL1   C18 2839   6.133   4.745   7.773  0.4534  0.0842 -0.7932
   39CHL1  H18A 2840   6.064   4.715   7.691 -0.0445  1.8601 -1.0556
   39CHL1  H18B 2841   6.182   4.653   7.811  0.0849  0.2760  0.1507
   39CHL1  H18C 2842   6.071   4.789   7.853  0.6180  2.6557 -1.9892
   39CHL1   C12 2843   6.187   4.966   7.683  0.4178  0.3974 -0.3629
   39CHL1  H12A 2844   6.124   5.003   7.767 -0.4671  2.0486 -1.6926
   39CHL1  H12B 2845   6.272   5.035   7.662  0.8041  0.7126  1.9553
   39CHL1   C11 2846   6.103   4.950   7.560  0.2508 -0.0441 -0.4305
   39CHL1  H11A 2847   6.005   4.902   7.579 -1.3145  1.9443 -2.7751
   39CHL1  H11B 2848   6.086   5.051   7.516  0.5708 -0.8696 -2.5784
   39CHL1    C9 2849   6.174   4.874   7.442 -0.0453  0.5095 -0.2613
   39CHL1    H9 2850   6.255   4.944   7.414  0.3966  1.9481  3.9752
   39CHL1   C10 2851   6.085   4.848   7.314 -0.2352 -0.7718  0.1004
   39CHL1   C19 2852   5.949   4.772   7.357 -0.6841 -0.6560  0.1212
   39CHL1  H19A 2853   5.891   4.823   7.437 -2.3633 -1.9170 -0.2551
   39CHL1  H19B 2854   5.888   4.753   7.266 -2.8720  1.1114  1.1049
   39CHL1  H19C 2855   5.987   4.671   7.385 -0.3787 -1.1454 -1.9240
   39CHL1    C1 2856   6.056   4.986   7.252 -0.2382 -0.7026  0.6974
   39CHL1   H1A 2857   5.985   5.038   7.321 -0.1101  0.7162 -0.1924
   39CHL1   H1B 2858   6.149   5.045   7.237 -1.5951  1.4247  0.1285
   39CHL1    C2 2859   5.988   4.987   7.111 -0.8953  0.2303 -0.8875
   39CHL1   H2A 2860   5.981   5.093   7.078 -0.1303  0.4071 -0.4998
   39CHL1   H2B 2861   5.883   4.951   7.114 -1.5044  1.5362 -3.6634
   39CHL1   C20 2862   6.339   4.856   7.985 -0.2406 -0.3745  0.2445
   39CHL1   H20 2863   6.243   4.807   8.010 -1.4687  1.5605 -0.4339
   39CHL1   C21 2864   6.336   5.015   7.990  0.6103  0.7705  0.3961
   39CHL1  H21A 2865   6.351   5.038   8.098 -1.1528  1.9818  0.4135
   39CHL1  H21B 2866   6.236   5.056   7.964  0.7681 -0.1460 -1.8092
   39CHL1  H21C 2867   6.417   5.062   7.930  0.4259 -0.1773 -0.6252
   39CHL1   C22 2868   6.449   4.820   8.086  0.2851 -0.4376  0.1976
   39CHL1  H22A 2869   6.524   4.744   8.056  0.0751  0.0128 -1.6070
   39CHL1  H22B 2870   6.503   4.914   8.110 -2.0813  0.5942  1.8644
   39CHL1   C23 2871   6.389   4.766   8.217  0.0821  0.3435 -0.4554
   39CHL1  H23A 2872   6.303   4.826   8.252 -0.8214 -1.1494 -0.0376
   39CHL1  H23B 2873   6.366   4.657   8.208  1.8729 -0.0798 -0.4186
   39CHL1   C24 2874   6.487   4.774   8.336  0.4802  0.1114  0.8101
   39CHL1  H24A 2875   6.503   4.879   8.368 -1.1802  0.3585  0.9367
   39CHL1  H24B 2876   6.440   4.725   8.424  0.0294  1.5040  1.3725
   39CHL1   C25 2877   6.616   4.695   8.308  0.1004 -0.0806 -0.2665
   39CHL1   H25 2878   6.668   4.744   8.223  2.2327 -1.3329  0.2494
   39CHL1   C26 2879   6.705   4.695   8.438 -0.2172  0.0113  0.1986
   39CHL1  H26A 2880   6.807   4.651   8.431  0.4570  1.6132 -0.4726
   39CHL1  H26B 2881   6.708   4.797   8.481  1.9689  0.6468 -1.2973
   39CHL1  H26C 2882   6.645   4.636   8.511 -2.8714 -0.5012 -2.2376
   39CHL1   C27 2883   6.606   4.538   8.273 -0.2492  0.0880 -0.0930
   39CHL1  H27A 2884   6.533   4.479   8.333 -0.6525  1.4093  0.7847
   39CHL1  H27B 2885   6.584   4.514   8.167  1.7171 -2.0899 -0.0928
   39CHL1  H27C 2886   6.707   4.492   8.271  1.3281  3.1594  1.2398
   40CHL1    C3 2887   1.920   3.422   7.086  0.1574 -0.1489  0.1454
   40CHL1    H3 2888   1.906   3.320   7.045  3.3856 -0.6850  0.1137
   40CHL1    O3 2889   1.975   3.496   6.977 -0.3540 -0.1806 -0.0339
   40CHL1   H3' 2890   1.911   3.497   6.905  0.9552 -1.0986 -1.2502
   40CHL1    C4 2891   1.777   3.480   7.121  0.0651  0.1020 -0.6150
   40CHL1   H4A 2892   1.793   3.587   7.145  2.1711 -0.3154  0.0634
   40CHL1   H4B 2893   1.715   3.470   7.029  0.2512 -0.7888 -0.6529
   40CHL1    C5 2894   1.724   3.409   7.241 -0.6354 -0.5109 -0.3503
   40CHL1    C6 2895   1.603   3.349   7.234  0.1362  0.6275  0.3044
   40CHL1    H6 2896   1.534   3.363   7.150  1.2024  1.7520 -0.4178
   40CHL1    C7 2897   1.540   3.281   7.353 -0.6523  0.0656 -0.4997
   40CHL1   H7A 2898   1.433   3.308   7.353 -0.7434 -0.1603  1.5360
   40CHL1   H7B 2899   1.550   3.171   7.336 -1.4564 -0.1793  0.5654
   40CHL1    C8 2900   1.608   3.323   7.493 -0.6124  0.6719  0.0294
   40CHL1    H8 2901   1.587   3.432   7.495  2.6649  1.5531 -2.9386
   40CHL1   C14 2902   1.553   3.237   7.612 -0.1185  0.2475 -0.1188
   40CHL1   H14 2903   1.577   3.132   7.584 -1.0769  0.5450 -2.3266
   40CHL1   C15 2904   1.398   3.222   7.627  0.0505  0.1883 -0.1917
   40CHL1  H15A 2905   1.353   3.323   7.621 -1.1882 -0.2100  1.6247
   40CHL1  H15B 2906   1.369   3.151   7.547 -1.0714  0.3437  0.0568
   40CHL1   C16 2907   1.381   3.163   7.764  0.1475 -0.2177 -0.4614
   40CHL1  H16A 2908   1.320   3.229   7.830 -0.2289  0.0639 -1.0855
   40CHL1  H16B 2909   1.331   3.065   7.777  0.2227 -0.1906  0.0534
   40CHL1   C17 2910   1.524   3.165   7.833  0.3471 -0.5875  0.3625
   40CHL1   H17 2911   1.573   3.066   7.826  0.5036 -0.6057  1.6228
   40CHL1   C13 2912   1.617   3.261   7.750  0.4958 -0.8697 -0.2693
   40CHL1   C18 2913   1.586   3.410   7.795 -0.2201 -0.4480  0.7170
   40CHL1  H18A 2914   1.481   3.433   7.826  0.1325  0.8715  1.0059
   40CHL1  H18B 2915   1.654   3.443   7.876 -0.2908 -1.8479  1.3737
   40CHL1  H18C 2916   1.617   3.478   7.713 -0.7821  0.6473  1.3797
   40CHL1   C12 2917   1.764   3.233   7.735 -0.7772  0.6566 -0.3674
   40CHL1  H12A 2918   1.812   3.261   7.831 -1.3762 -0.9307  0.4246
   40CHL1  H12B 2919   1.788   3.125   7.722  0.7660  0.8214  0.8514
   40CHL1   C11 2920   1.836   3.320   7.626  0.2551  0.3381 -0.0829
   40CHL1  H11A 2921   1.857   3.424   7.659 -0.8326  0.8414 -0.9310
   40CHL1  H11B 2922   1.935   3.272   7.607 -0.0290 -0.4817  0.4579
   40CHL1    C9 2923   1.759   3.311   7.483 -0.3173 -0.4199 -0.8801
   40CHL1    H9 2924   1.771   3.204   7.459  2.8897 -0.7219  1.3913
   40CHL1   C10 2925   1.818   3.397   7.370  0.0391 -0.5969 -0.7739
   40CHL1   C19 2926   1.839   3.533   7.434  0.5864 -0.2543  0.5542
   40CHL1  H19A 2927   1.931   3.536   7.496 -0.3845 -1.9924  2.1677
   40CHL1  H19B 2928   1.868   3.615   7.364  0.8113 -0.7475  0.0615
   40CHL1  H19C 2929   1.754   3.578   7.489  0.1531  0.3151 -0.5306
   40CHL1    C1 2930   1.961   3.336   7.324 -0.0839 -0.4794  0.3659
   40CHL1   H1A 2931   2.040   3.337   7.402  0.9754 -1.4030 -0.6513
   40CHL1   H1B 2932   1.955   3.231   7.289 -0.4346  0.1660 -1.6249
   40CHL1    C2 2933   2.015   3.418   7.201 -0.3597  0.1966 -0.1039
   40CHL1   H2A 2934   2.116   3.384   7.168 -0.8949 -1.0586 -0.5003
   40CHL1   H2B 2935   2.035   3.527   7.216  0.2790  0.0308  0.3247
   40CHL1   C20 2936   1.509   3.184   7.989  0.1243 -0.7163 -0.1870
   40CHL1   H20 2937   1.474   3.285   8.019 -2.0781 -1.2102 -0.8828
   40CHL1   C21 2938   1.648   3.154   8.054  0.2610  0.4677  0.1745
   40CHL1  H21A 2939   1.727   3.226   8.022 -0.1846  0.9523  0.1483
   40CHL1  H21B 2940   1.685   3.053   8.024  0.4394  0.8614 -0.9816
   40CHL1  H21C 2941   1.636   3.161   8.165 -0.9031  0.1478  0.0771
   40CHL1   C22 2942   1.406   3.089   8.047 -0.6788  0.1359 -0.5894
   40CHL1  H22A 2943   1.310   3.119   8.000  0.2772 -1.0773 -3.5364
   40CHL1  H22B 2944   1.424   2.984   8.016  1.3488 -0.1881  1.3836
   40CHL1   C23 2945   1.399   3.097   8.199  0.2204 -0.0258 -1.0030
   40CHL1  H23A 2946   1.483   3.038   8.243 -0.7407 -0.0716  0.8817
   40CHL1  H23B 2947   1.407   3.200   8.240  1.0795  0.5816 -2.6090
   40CHL1   C24 2948   1.270   3.023   8.256  0.0500 -0.2772  0.3383
   40CHL1  H24A 2949   1.184   3.077   8.211  0.1423 -0.2279  0.2226
   40CHL1  H24B 2950   1.270   2.923   8.208 -2.0289  0.2064 -0.8120
   40CHL1   C25 2951   1.262   3.001   8.408  0.5886 -0.0532 -0.2654
   40CHL1   H25 2952   1.362   2.957   8.424  1.6548  0.5782 -4.1494
   40CHL1   C26 2953   1.243   3.141   8.468 -0.1759 -0.4276 -0.4865
   40CHL1  H26A 2954   1.330   3.205   8.444  0.8539 -2.3392 -2.2499
   40CHL1  H26B 2955   1.143   3.181   8.441 -0.7823  0.4876  2.7289
   40CHL1  H26C 2956   1.235   3.122   8.577  1.8028 -0.1360 -0.2536
   40CHL1   C27 2957   1.154   2.907   8.465 -0.3139 -0.1522 -0.3230
   40CHL1  H27A 2958   1.058   2.958   8.447 -0.4935 -0.7089 -1.0076
   40CHL1  H27B 2959   1.167   2.809   8.415  2.0399 -0.3546  0.5528
   40CHL1  H27C 2960   1.174   2.902   8.575  2.1250 -1.6654 -0.7495
   41CHL1    C3 2961   2.386   2.479   6.941  0.1985 -0.0300  0.2854
   41CHL1    H3 2962   2.300   2.539   6.977  0.4213  0.6068 -0.2295
   41CHL1    O3 2963   2.395   2.469   6.795 -0.5683  0.3978  0.0695
   41CHL1   H3' 2964   2.346   2.389   6.775 -0.8356  0.3605  0.8360
   41CHL1    C4 2965   2.512   2.555   7.001 -0.8675  0.0624 -0.5981
   41CHL1   H4A 2966   2.606   2.509   6.964 -1.6799 -1.8532 -0.4402
   41CHL1   H4B 2967   2.511   2.656   6.956 -1.5309  0.7562  0.8890
   41CHL1    C5 2968   2.502   2.559   7.151 -0.1337 -0.3588 -0.2769
   41CHL1    C6 2969   2.497   2.679   7.210 -0.6548  0.3662  0.4938
   41CHL1    H6 2970   2.501   2.778   7.163  2.5806 -0.3764 -1.0219
   41CHL1    C7 2971   2.489   2.701   7.355 -0.2159  0.2780 -0.2542
   41CHL1   H7A 2972   2.585   2.746   7.389 -0.1919 -0.1417  0.2555
   41CHL1   H7B 2973   2.410   2.773   7.388  0.6072  0.9747  0.2311
   41CHL1    C8 2974   2.485   2.570   7.448 -0.3590 -0.2019  0.8382
   41CHL1    H8 2975   2.585   2.521   7.449  0.1964  0.6875 -2.0844
   41CHL1   C14 2976   2.429   2.592   7.593 -0.5077 -0.5094 -0.0800
   41CHL1   H14 2977   2.327   2.630   7.572 -0.3024 -0.7511 -1.6003
   41CHL1   C15 2978   2.488   2.705   7.681 -0.2267 -0.4412  0.0219
   41CHL1  H15A 2979   2.596   2.728   7.666 -0.1454  0.6268  1.8650
   41CHL1  H15B 2980   2.429   2.797   7.664 -0.6070 -0.7426 -0.2962
   41CHL1   C16 2981   2.470   2.649   7.824  0.2232 -0.1464  0.4418
   41CHL1  H16A 2982   2.570   2.611   7.853  0.5358  0.5473  0.2870
   41CHL1  H16B 2983   2.431   2.720   7.901 -0.8140  0.7181 -0.8331
   41CHL1   C17 2984   2.385   2.521   7.805 -0.2659  0.5301 -0.0107
   41CHL1   H17 2985   2.280   2.553   7.788 -0.0169  1.2487 -0.2413
   41CHL1   C13 2986   2.427   2.457   7.673  0.4646 -0.2216 -0.1210
   41CHL1   C18 2987   2.573   2.393   7.684 -0.0665  0.8724 -0.0427
   41CHL1  H18A 2988   2.638   2.460   7.745 -0.3979  0.2403  1.0415
   41CHL1  H18B 2989   2.571   2.292   7.731  0.4766  1.3813  1.1074
   41CHL1  H18C 2990   2.619   2.386   7.583 -1.6108 -0.5534 -0.6874
   41CHL1   C12 2991   2.328   2.367   7.601 -0.5171  0.0488  0.8315
   41CHL1  H12A 2992   2.307   2.279   7.665 -0.6475 -1.2476 -0.9259
   41CHL1  H12B 2993   2.235   2.426   7.582 -0.2927  0.2811  0.4178
   41CHL1   C11 2994   2.377   2.334   7.452 -0.1541 -0.4030  0.4201
   41CHL1  H11A 2995   2.474   2.281   7.462  0.0143 -0.5023 -1.4282
   41CHL1  H11B 2996   2.306   2.281   7.385  1.9167 -0.7993 -1.5811
   41CHL1    C9 2997   2.409   2.464   7.369  0.3994 -0.5485  0.2804
   41CHL1    H9 2998   2.314   2.512   7.337  0.6208 -2.0202 -2.9702
   41CHL1   C10 2999   2.467   2.434   7.229 -0.5227 -0.5203  0.2753
   41CHL1   C19 3000   2.609   2.363   7.237  0.2857 -0.6199  0.4957
   41CHL1  H19A 3001   2.653   2.349   7.136 -0.1365  1.0313  0.0589
   41CHL1  H19B 3002   2.684   2.422   7.294 -2.1711  4.1845 -0.7409
   41CHL1  H19C 3003   2.600   2.262   7.283 -0.5621 -0.0437  1.6631
   41CHL1    C1 3004   2.360   2.352   7.147  0.1634 -0.0569 -0.2410
   41CHL1   H1A 3005   2.372   2.252   7.193  3.0588  0.4058  0.2106
   41CHL1   H1B 3006   2.261   2.398   7.162 -0.0937 -0.9294  0.8673
   41CHL1    C2 3007   2.390   2.342   6.998 -0.3555  1.0156  0.1057
   41CHL1   H2A 3008   2.310   2.280   6.954 -0.4250  1.3549 -0.2624
   41CHL1   H2B 3009   2.492   2.309   6.969  0.1077  2.8878 -0.5831
   41CHL1   C20 3010   2.378   2.431   7.930  0.8051 -0.0356 -0.2805
   41CHL1   H20 3011   2.455   2.352   7.918 -0.9422 -1.5794 -2.0300
   41CHL1   C21 3012   2.238   2.371   7.941  0.3428  0.0010  0.1928
   41CHL1  H21A 3013   2.165   2.454   7.954  0.2390 -0.3887  2.5711
   41CHL1  H21B 3014   2.241   2.290   8.017  2.7554 -0.3273 -0.1895
   41CHL1  H21C 3015   2.212   2.327   7.843  0.2693  2.1459 -0.8006
   41CHL1   C22 3016   2.411   2.495   8.073  0.3705  0.0506  0.0530
   41CHL1  H22A 3017   2.510   2.545   8.058  0.2839  0.8105  1.7077
   41CHL1  H22B 3018   2.335   2.570   8.104 -0.5774 -1.5562  1.8037
   41CHL1   C23 3019   2.413   2.396   8.192 -0.4489 -0.1951  1.0146
   41CHL1  H23A 3020   2.313   2.348   8.204 -0.7094  0.3339  0.9748
   41CHL1  H23B 3021   2.486   2.320   8.158  1.9403  0.7622  3.6705
   41CHL1   C24 3022   2.472   2.443   8.323  0.8984 -1.0889 -0.3661
   41CHL1  H24A 3023   2.570   2.487   8.291 -0.4286  0.4933 -2.5581
   41CHL1  H24B 3024   2.404   2.526   8.352  1.3005 -0.3867 -1.3546
   41CHL1   C25 3025   2.488   2.334   8.434  0.5059  0.6916  0.4303
   41CHL1   H25 3026   2.550   2.255   8.387 -0.4071 -1.0311  2.0147
   41CHL1   C26 3027   2.565   2.395   8.549  0.0921 -0.0511 -0.3767
   41CHL1  H26A 3028   2.595   2.305   8.608  2.7435  0.4546 -0.8318
   41CHL1  H26B 3029   2.655   2.447   8.509  0.7101 -1.6780 -1.2066
   41CHL1  H26C 3030   2.493   2.453   8.610 -0.7614 -0.6904 -0.7575
   41CHL1   C27 3031   2.348   2.281   8.478 -0.8331  0.0700  0.3401
   41CHL1  H27A 3032   2.359   2.219   8.569  1.0978  1.6033  1.2175
   41CHL1  H27B 3033   2.266   2.352   8.503 -1.1388 -0.6030  1.3012
   41CHL1  H27C 3034   2.310   2.218   8.394  2.2690  0.6379 -1.6444
   42CHL1    C3 3035   2.620   3.062   6.964  0.2321 -0.9221  0.2056
   42CHL1    H3 3036   2.568   2.964   6.976  0.3142 -0.6554  3.6051
   42CHL1    O3 3037   2.662   3.077   6.829 -0.1694 -0.1309 -0.1175
   42CHL1   H3' 3038   2.701   3.164   6.827 -2.4556  0.9475 -0.3316
   42CHL1    C4 3039   2.530   3.188   7.006 -0.0023  0.2096 -0.5678
   42CHL1   H4A 3040   2.596   3.272   6.974  1.1049 -0.2310  0.4666
   42CHL1   H4B 3041   2.437   3.186   6.947  0.0134 -1.8120 -0.5957
   42CHL1    C5 3042   2.507   3.187   7.159 -0.3995 -0.3428 -0.1523
   42CHL1    C6 3043   2.384   3.192   7.212 -0.1071  0.0086  0.1830
   42CHL1    H6 3044   2.300   3.184   7.142  1.5945 -1.5585 -1.7724
   42CHL1    C7 3045   2.362   3.173   7.359 -0.5639  0.2530 -0.2239
   42CHL1   H7A 3046   2.281   3.240   7.395 -1.1605  0.3913 -1.7465
   42CHL1   H7B 3047   2.334   3.067   7.375  1.0662 -0.1573  0.1056
   42CHL1    C8 3048   2.478   3.204   7.451  0.0766  0.0489 -0.3704
   42CHL1    H8 3049   2.490   3.314   7.458 -2.5102  0.3437  0.2565
   42CHL1   C14 3050   2.458   3.146   7.593  0.4102  0.0816  1.0230
   42CHL1   H14 3051   2.447   3.036   7.585 -3.1743  0.2015  2.2085
   42CHL1   C15 3052   2.335   3.196   7.663  0.0895 -0.2859  0.1527
   42CHL1  H15A 3053   2.345   3.307   7.666 -0.5891 -0.1008 -2.3092
   42CHL1  H15B 3054   2.240   3.168   7.612  1.0716 -0.3114 -1.7535
   42CHL1   C16 3055   2.364   3.143   7.809  0.8946  0.0785  0.1924
   42CHL1  H16A 3056   2.345   3.223   7.883  1.7270  0.3852  0.0780
   42CHL1  H16B 3057   2.288   3.064   7.829  1.4600  0.1617  3.0236
   42CHL1   C17 3058   2.511   3.099   7.813  0.2121  0.3726 -0.6978
   42CHL1   H17 3059   2.519   2.990   7.792  0.2532  0.4041 -0.8450
   42CHL1   C13 3060   2.572   3.167   7.695  0.6423  0.1424 -0.2173
   42CHL1   C18 3061   2.607   3.317   7.732 -0.0765  0.2523 -0.2345
   42CHL1  H18A 3062   2.635   3.373   7.641  1.0131 -0.4242 -0.3276
   42CHL1  H18B 3063   2.523   3.369   7.784  1.2845  0.9032  1.4030
   42CHL1  H18C 3064   2.677   3.323   7.818 -2.3484  2.0872  1.6350
   42CHL1   C12 3065   2.694   3.094   7.633 -0.0286 -0.4837 -0.4229
   42CHL1  H12A 3066   2.782   3.126   7.693 -0.5539  0.6201 -0.2244
   42CHL1  H12B 3067   2.668   2.987   7.649 -0.8443 -0.1117  0.9462
   42CHL1   C11 3068   2.719   3.143   7.489  0.3634 -0.6994  0.6081
   42CHL1  H11A 3069   2.745   3.251   7.490  2.4747 -1.1195 -1.3366
   42CHL1  H11B 3070   2.806   3.082   7.458  3.8908  2.7926  2.7516
   42CHL1    C9 3071   2.600   3.140   7.391 -0.6378  0.5438  0.1163
   42CHL1    H9 3072   2.580   3.031   7.383  0.5650  0.1833  1.4571
   42CHL1   C10 3073   2.635   3.171   7.244  0.2331  0.0505 -0.7357
   42CHL1   C19 3074   2.705   3.312   7.234  0.7481  0.1480 -0.2013
   42CHL1  H19A 3075   2.725   3.338   7.128  0.0484 -0.1880 -0.4183
   42CHL1  H19B 3076   2.642   3.389   7.283  0.8278  0.1328 -0.0743
   42CHL1  H19C 3077   2.801   3.316   7.290 -0.1995 -0.3450  1.5008
   42CHL1    C1 3078   2.735   3.066   7.193  0.1782  0.8408 -0.4733
   42CHL1   H1A 3079   2.835   3.066   7.242  0.1898 -0.6911 -0.4408
   42CHL1   H1B 3080   2.689   2.968   7.217  3.2137 -0.7324 -0.5765
   42CHL1    C2 3081   2.761   3.064   7.040 -0.2384 -0.3047  0.1312
   42CHL1   H2A 3082   2.835   2.984   7.017 -0.6639 -0.3608 -1.0938
   42CHL1   H2B 3083   2.789   3.165   7.004 -2.4494  0.2792 -0.1071
   42CHL1   C20 3084   2.565   3.109   7.961 -0.3554 -0.2403 -0.6941
   42CHL1   H20 3085   2.556   3.213   8.000  2.7067 -0.2004  0.1340
   42CHL1   C21 3086   2.712   3.067   7.977 -0.2113  0.4246  0.4940
   42CHL1  H21A 3087   2.778   3.116   7.903  0.9627  1.6372  2.2842
   42CHL1  H21B 3088   2.728   2.959   7.956  3.8078  0.6699  1.5539
   42CHL1  H21C 3089   2.759   3.084   8.076  2.6610 -5.2836  0.5615
   42CHL1   C22 3090   2.475   3.027   8.051  0.3585 -0.7221  0.1465
   42CHL1  H22A 3091   2.370   3.063   8.048  0.7339  0.4960  0.8812
   42CHL1  H22B 3092   2.468   2.921   8.018 -0.5261 -0.5345 -0.3049
   42CHL1   C23 3093   2.498   3.051   8.201  0.5229  0.4969 -0.1249
   42CHL1  H23A 3094   2.606   3.035   8.221  0.5438 -1.1372 -1.3241
   42CHL1  H23B 3095   2.463   3.152   8.231  0.9764  0.9619 -1.1155
   42CHL1   C24 3096   2.430   2.931   8.284 -0.4444 -0.0708 -0.0230
   42CHL1  H24A 3097   2.319   2.938   8.281 -0.7366 -2.6027  1.8238
   42CHL1  H24B 3098   2.465   2.834   8.244  1.0820 -0.2149  1.5264
   42CHL1   C25 3099   2.458   2.933   8.435  0.5206 -0.6683 -0.4364
   42CHL1   H25 3100   2.564   2.957   8.454 -0.1261  2.3497 -0.1800
   42CHL1   C26 3101   2.389   3.055   8.508  0.0861  0.1263  1.1240
   42CHL1  H26A 3102   2.278   3.045   8.510  0.0390 -1.0579 -2.0831
   42CHL1  H26B 3103   2.420   3.058   8.615  1.5002 -1.5969  0.8023
   42CHL1  H26C 3104   2.421   3.148   8.457  3.3936 -0.8656  1.1533
   42CHL1   C27 3105   2.409   2.811   8.514  0.0592 -0.0191 -0.2095
   42CHL1  H27A 3106   2.405   2.819   8.625 -0.7983 -3.2690  0.1024
   42CHL1  H27B 3107   2.483   2.731   8.491 -0.5226 -1.1461  1.6165
   42CHL1  H27C 3108   2.311   2.776   8.474 -0.1270  2.4471 -2.1693
   43CHL1    C3 3109   3.286   5.364   6.882 -0.8605 -0.0628  0.2907
   43CHL1    H3 3110   3.176   5.351   6.890 -0.7844 -1.5241 -0.7149
   43CHL1    O3 3111   3.317   5.369   6.746  0.0141  0.3291 -0.0733
   43CHL1   H3' 3112   3.408   5.398   6.750  0.2689 -0.5847  1.5117
   43CHL1    C4 3113   3.325   5.504   6.948 -0.6711 -0.6608 -0.4382
   43CHL1   H4A 3114   3.435   5.522   6.944 -0.3913 -2.1445 -0.0305
   43CHL1   H4B 3115   3.273   5.582   6.889 -0.0903  0.4354  0.4449
   43CHL1    C5 3116   3.293   5.500   7.095 -0.1290 -0.2232 -0.0132
   43CHL1    C6 3117   3.208   5.587   7.154  0.3678  1.0449  0.2369
   43CHL1    H6 3118   3.172   5.672   7.094  1.2707  2.4029  1.5311
   43CHL1    C7 3119   3.183   5.593   7.301 -0.3467  0.2093 -0.4501
   43CHL1   H7A 3120   3.207   5.692   7.347  3.0701 -1.0032  0.6467
   43CHL1   H7B 3121   3.078   5.568   7.327  0.3744 -1.1628  1.3459
   43CHL1    C8 3122   3.270   5.499   7.382  0.1810 -0.8219 -0.0064
   43CHL1    H8 3123   3.367   5.552   7.391  0.7377 -1.2160 -2.8434
   43CHL1   C14 3124   3.209   5.472   7.517  0.4629  0.1997  0.0879
   43CHL1   H14 3125   3.108   5.431   7.499 -0.3792  2.6283 -1.2240
   43CHL1   C15 3126   3.179   5.593   7.607 -0.3726  0.7258  0.1252
   43CHL1  H15A 3127   3.262   5.665   7.600 -0.0837  0.2837 -1.3103
   43CHL1  H15B 3128   3.092   5.653   7.574 -0.9363  0.3958  0.9764
   43CHL1   C16 3129   3.169   5.543   7.752  1.0109  0.0763 -0.1514
   43CHL1  H16A 3130   3.249   5.601   7.804  1.1909 -0.8465  0.6451
   43CHL1  H16B 3131   3.071   5.559   7.802 -1.3314 -3.1182 -3.2037
   43CHL1   C17 3132   3.199   5.389   7.737 -0.3663  0.3049 -0.3289
   43CHL1   H17 3133   3.095   5.354   7.719  0.2495 -0.9350 -1.6626
   43CHL1   C13 3134   3.286   5.377   7.609 -0.3389 -0.3096  0.5792
   43CHL1   C18 3135   3.427   5.430   7.643  0.2037  0.2474 -0.2059
   43CHL1  H18A 3136   3.484   5.355   7.702 -0.0815 -0.2852 -0.5986
   43CHL1  H18B 3137   3.484   5.461   7.553  1.8498 -3.6336 -0.7015
   43CHL1  H18C 3138   3.410   5.519   7.708 -2.6312 -1.0616  1.0277
   43CHL1   C12 3139   3.283   5.237   7.537 -0.8419 -0.1710 -0.2222
   43CHL1  H12A 3140   3.347   5.165   7.592 -1.2082 -0.1868  0.1891
   43CHL1  H12B 3141   3.178   5.202   7.540 -0.4217 -1.4343  0.2886
   43CHL1   C11 3142   3.341   5.247   7.395  1.0737  0.4551  0.1410
   43CHL1  H11A 3143   3.452   5.245   7.395  1.0659 -0.3731  0.0609
   43CHL1  H11B 3144   3.311   5.155   7.341 -1.5769 -0.9638  3.6186
   43CHL1    C9 3145   3.283   5.366   7.310  0.5921  0.1353 -0.0582
   43CHL1    H9 3146   3.178   5.334   7.291  1.1799 -1.3456 -0.9360
   43CHL1   C10 3147   3.354   5.380   7.173  0.0226 -0.8383 -0.0287
   43CHL1   C19 3148   3.511   5.416   7.188  1.6973 -0.2338 -0.0170
   43CHL1  H19A 3149   3.521   5.519   7.230  1.4633  0.2888 -1.1887
   43CHL1  H19B 3150   3.555   5.336   7.251 -0.3040 -2.1647 -0.9710
   43CHL1  H19C 3151   3.567   5.406   7.092  3.2675 -0.1155  0.8536
   43CHL1    C1 3152   3.329   5.255   7.097  0.0821 -0.6540  0.1552
   43CHL1   H1A 3153   3.388   5.176   7.147  1.1685 -0.1176 -0.2455
   43CHL1   H1B 3154   3.219   5.240   7.094 -0.1005 -0.9111  3.7192
   43CHL1    C2 3155   3.365   5.257   6.949  0.5675 -0.5183  0.0968
   43CHL1   H2A 3156   3.342   5.158   6.904 -0.7616 -1.2006  2.1515
   43CHL1   H2B 3157   3.474   5.276   6.938  0.4559 -0.6951 -1.6138
   43CHL1   C20 3158   3.256   5.322   7.863 -0.0230 -0.2059 -0.3924
   43CHL1   H20 3159   3.365   5.316   7.882 -0.5188 -0.7060  2.9070
   43CHL1   C21 3160   3.190   5.184   7.858  0.6097  0.5947 -0.1598
   43CHL1  H21A 3161   3.218   5.133   7.763 -0.8312  0.7143 -0.6864
   43CHL1  H21B 3162   3.079   5.193   7.849  0.5277  0.4382  0.5916
   43CHL1  H21C 3163   3.206   5.121   7.948 -0.4434 -0.6090 -0.7732
   43CHL1   C22 3164   3.214   5.405   7.986 -1.1995  0.2378 -0.1885
   43CHL1  H22A 3165   3.276   5.498   7.988 -2.4073  1.0735 -0.2954
   43CHL1  H22B 3166   3.108   5.437   7.976 -1.0481  0.8138 -0.0296
   43CHL1   C23 3167   3.245   5.337   8.118 -0.0357  0.7802  0.3516
   43CHL1  H23A 3168   3.186   5.243   8.130  0.1083  0.5656 -0.5804
   43CHL1  H23B 3169   3.353   5.317   8.131  0.0306  2.2805  2.6336
   43CHL1   C24 3170   3.192   5.413   8.237  0.0375  0.3408 -0.0372
   43CHL1  H24A 3171   3.237   5.514   8.228 -1.9084  1.4526  1.7369
   43CHL1  H24B 3172   3.083   5.414   8.255 -0.0223 -0.1753 -0.3515
   43CHL1   C25 3173   3.246   5.360   8.381 -0.1353  0.5684  0.0594
   43CHL1   H25 3174   3.191   5.412   8.463  0.7982 -0.9089  1.6750
   43CHL1   C26 3175   3.210   5.212   8.402 -0.0774 -0.6274 -0.4420
   43CHL1  H26A 3176   3.102   5.190   8.399 -0.2326 -0.2534  1.3185
   43CHL1  H26B 3177   3.274   5.157   8.329 -1.3234 -0.8160 -1.4240
   43CHL1  H26C 3178   3.250   5.177   8.499 -0.6765  1.0699  0.4519
   43CHL1   C27 3179   3.395   5.392   8.414 -0.0280 -0.2895  0.1283
   43CHL1  H27A 3180   3.430   5.381   8.519 -1.9169  0.7830  0.9147
   43CHL1  H27B 3181   3.456   5.334   8.342  1.3442 -0.2538  1.2283
   43CHL1  H27C 3182   3.411   5.499   8.388  0.1760  0.5749  3.3277
   44CHL1    C3 3183   3.356   4.855   6.756  0.2376  0.4658 -0.3868
   44CHL1    H3 3184   3.401   4.953   6.781 -1.3699  1.3632 -0.9059
   44CHL1    O3 3185   3.355   4.835   6.616  0.2746  0.2928  0.0033
   44CHL1   H3' 3186   3.328   4.920   6.579 -2.9604 -0.8532 -0.6366
   44CHL1    C4 3187   3.434   4.741   6.826  0.9590 -0.2550  0.3351
   44CHL1   H4A 3188   3.410   4.640   6.786  3.6330 -1.1899  0.8796
   44CHL1   H4B 3189   3.541   4.758   6.802  0.9790 -0.6431  0.1391
   44CHL1    C5 3190   3.410   4.765   6.973  0.3800 -0.4939  0.6964
   44CHL1    C6 3191   3.515   4.791   7.050  0.4178  0.0158 -0.5357
   44CHL1    H6 3192   3.617   4.797   7.009  0.7119  1.7329  0.3704
   44CHL1    C7 3193   3.504   4.807   7.201 -0.0217  1.5031 -0.4963
   44CHL1   H7A 3194   3.592   4.756   7.245 -0.3777 -0.4045 -1.8742
   44CHL1   H7B 3195   3.496   4.910   7.242  0.6156  1.7759 -1.0392
   44CHL1    C8 3196   3.382   4.738   7.264  0.0801  0.0027  0.1335
   44CHL1    H8 3197   3.385   4.629   7.248  1.5798  0.1418 -0.6718
   44CHL1   C14 3198   3.360   4.784   7.411 -0.0794 -0.1861  0.3942
   44CHL1   H14 3199   3.352   4.895   7.404  0.2432 -0.2561 -2.9793
   44CHL1   C15 3200   3.484   4.751   7.501  0.1544 -0.5352  0.2429
   44CHL1  H15A 3201   3.518   4.649   7.474  0.0491 -0.8306  1.2015
   44CHL1  H15B 3202   3.570   4.817   7.480 -0.0739 -0.1314  0.5672
   44CHL1   C16 3203   3.417   4.766   7.639 -0.2255  0.2662  0.0674
   44CHL1  H16A 3204   3.432   4.670   7.692  1.2269 -0.2510 -1.2005
   44CHL1  H16B 3205   3.456   4.855   7.694  1.5480 -0.7876  0.5611
   44CHL1   C17 3206   3.261   4.785   7.624 -0.8060 -0.2845  0.7624
   44CHL1   H17 3207   3.243   4.894   7.617  0.0517 -0.1654  0.2668
   44CHL1   C13 3208   3.235   4.733   7.478 -0.5760  0.0531 -0.6481
   44CHL1   C18 3209   3.227   4.581   7.484  0.4931 -0.0880  0.1312
   44CHL1  H18A 3210   3.320   4.540   7.530  0.8105  0.8890  0.3812
   44CHL1  H18B 3211   3.140   4.538   7.539  1.3362 -2.8712 -0.5404
   44CHL1  H18C 3212   3.228   4.545   7.379 -1.7496  2.0958 -0.7233
   44CHL1   C12 3213   3.113   4.783   7.405 -0.2846 -0.3876 -0.2317
   44CHL1  H12A 3214   3.022   4.737   7.449 -0.1008 -0.1873  0.3547
   44CHL1  H12B 3215   3.125   4.893   7.416  1.7739 -0.7604  2.1211
   44CHL1   C11 3216   3.117   4.739   7.259  0.1825  0.2257 -0.1214
   44CHL1  H11A 3217   3.106   4.629   7.259  1.6204  0.0465  0.4146
   44CHL1  H11B 3218   3.032   4.780   7.201 -1.3321  0.5505  2.1819
   44CHL1    C9 3219   3.258   4.778   7.185  0.6349  0.0855 -0.2141
   44CHL1    H9 3220   3.253   4.889   7.191 -2.2476  0.1866 -2.4977
   44CHL1   C10 3221   3.274   4.750   7.033  0.5374  0.1633  0.5039
   44CHL1   C19 3222   3.214   4.607   6.995  1.0503 -0.0270 -0.5940
   44CHL1  H19A 3223   3.113   4.603   7.040  0.1800  1.8404 -2.2389
   44CHL1  H19B 3224   3.206   4.599   6.884 -0.1039  0.7098 -0.5739
   44CHL1  H19C 3225   3.282   4.522   7.019  1.0780 -1.4934 -4.9911
   44CHL1    C1 3226   3.191   4.860   6.959 -0.1471  0.5159 -0.0009
   44CHL1   H1A 3227   3.083   4.851   6.979 -0.0060 -1.1282  0.1612
   44CHL1   H1B 3228   3.224   4.961   6.993 -0.7304  1.9024 -3.2058
   44CHL1    C2 3229   3.207   4.856   6.803  0.1114 -0.1184 -0.4873
   44CHL1   H2A 3230   3.157   4.939   6.749 -1.8178 -2.0729 -1.9107
   44CHL1   H2B 3231   3.149   4.773   6.757  0.0547  0.4974 -1.5421
   44CHL1   C20 3232   3.178   4.728   7.744  0.0338 -0.6817 -0.7071
   44CHL1   H20 3233   3.205   4.622   7.764  0.5373 -0.2393  1.1104
   44CHL1   C21 3234   3.036   4.753   7.724 -0.6227 -0.3079  0.8415
   44CHL1  H21A 3235   2.972   4.745   7.815 -0.3171  0.8888  1.1678
   44CHL1  H21B 3236   2.995   4.679   7.652  1.6487 -0.2720 -0.5689
   44CHL1  H21C 3237   3.021   4.855   7.684  1.7403  0.2209  1.2006
   44CHL1   C22 3238   3.226   4.784   7.885  0.0849  0.2047 -0.5237
   44CHL1  H22A 3239   3.336   4.771   7.889  0.0376  0.0168  2.6331
   44CHL1  H22B 3240   3.202   4.892   7.880 -0.7639  0.2067  2.0259
   44CHL1   C23 3241   3.162   4.711   8.010  0.0650  0.2262  0.2158
   44CHL1  H23A 3242   3.051   4.709   8.006  0.0391 -0.6082  0.9385
   44CHL1  H23B 3243   3.205   4.609   8.014 -0.4452 -0.0170 -0.3073
   44CHL1   C24 3244   3.215   4.785   8.142  0.0944  0.3332  0.2380
   44CHL1  H24A 3245   3.325   4.799   8.133  0.2947 -0.5817  1.0812
   44CHL1  H24B 3246   3.169   4.886   8.139 -0.2056  0.2850  2.0788
   44CHL1   C25 3247   3.182   4.707   8.265  0.6569  0.3859 -0.6812
   44CHL1   H25 3248   3.200   4.601   8.239  0.9781  0.5323 -1.0872
   44CHL1   C26 3249   3.270   4.752   8.382 -0.6288 -0.4448 -0.3655
   44CHL1  H26A 3250   3.240   4.856   8.405 -1.6887 -0.8809  0.3013
   44CHL1  H26B 3251   3.239   4.698   8.474  2.5161  1.9003  2.2866
   44CHL1  H26C 3252   3.377   4.732   8.360 -0.3869  1.7322 -1.4027
   44CHL1   C27 3253   3.036   4.735   8.309 -0.2520 -0.1433  0.1328
   44CHL1  H27A 3254   2.964   4.694   8.234 -0.8145 -1.0041  1.1214
   44CHL1  H27B 3255   3.022   4.689   8.409 -0.7618 -0.9596 -0.3018
   44CHL1  H27C 3256   3.019   4.844   8.321  0.4679 -0.1543  1.4576
   45CHL1    C3 3257   2.760   1.937   6.895  0.0213 -0.6773 -0.5346
   45CHL1    H3 3258   2.830   2.021   6.915 -2.2936  1.5788 -1.2410
   45CHL1    O3 3259   2.763   1.907   6.759 -0.4974 -0.3777 -0.0972
   45CHL1   H3' 3260   2.835   1.845   6.744  0.3112  0.6713 -0.7586
   45CHL1    C4 3261   2.789   1.808   6.968  0.2443  0.1486  0.0633
   45CHL1   H4A 3262   2.718   1.728   6.936  0.1518  0.5445 -0.7777
   45CHL1   H4B 3263   2.894   1.779   6.949  0.2580  0.0769  0.2485
   45CHL1    C5 3264   2.767   1.817   7.110  0.7575 -0.6933 -0.4252
   45CHL1    C6 3265   2.864   1.777   7.194  0.4768 -0.1510 -0.2292
   45CHL1    H6 3266   2.962   1.749   7.151  0.4294 -1.1739  0.2988
   45CHL1    C7 3267   2.855   1.791   7.345  0.1888  0.6390  0.0041
   45CHL1   H7A 3268   2.906   1.711   7.404 -1.4230  0.2938  0.9763
   45CHL1   H7B 3269   2.908   1.887   7.364 -0.1502  1.0073 -0.8696
   45CHL1    C8 3270   2.712   1.797   7.389 -0.1535 -0.2265 -0.4422
   45CHL1    H8 3271   2.664   1.697   7.391 -2.1588  0.6832  0.2396
   45CHL1   C14 3272   2.709   1.822   7.544  0.5063  0.8393 -0.1542
   45CHL1   H14 3273   2.775   1.911   7.554  0.5769  1.0265 -1.8477
   45CHL1   C15 3274   2.769   1.716   7.636 -0.0806 -0.8592  0.7085
   45CHL1  H15A 3275   2.728   1.615   7.615 -0.5947 -0.3307 -1.0323
   45CHL1  H15B 3276   2.878   1.708   7.618 -0.5331 -0.5427 -2.9191
   45CHL1   C16 3277   2.726   1.762   7.779 -0.3287 -0.2018 -0.0632
   45CHL1  H16A 3278   2.688   1.675   7.837  1.6498  0.4934  2.4974
   45CHL1  H16B 3279   2.803   1.815   7.839 -2.3701  1.8547  0.8853
   45CHL1   C17 3280   2.605   1.862   7.752  0.6748 -0.2038 -0.6136
   45CHL1   H17 3281   2.643   1.965   7.769 -2.2622  0.7999  0.5789
   45CHL1   C13 3282   2.566   1.844   7.602 -0.1592  0.2079  0.2447
   45CHL1   C18 3283   2.479   1.716   7.587  0.5082  0.3146  0.6058
   45CHL1  H18A 3284   2.373   1.729   7.616  0.3488  0.1580  0.1000
   45CHL1  H18B 3285   2.476   1.708   7.476  0.3097  0.2114  0.6202
   45CHL1  H18C 3286   2.525   1.624   7.627 -0.5697 -0.9032 -0.8656
   45CHL1   C12 3287   2.513   1.967   7.529  0.0305 -0.1607  0.2864
   45CHL1  H12A 3288   2.412   1.998   7.564 -1.7004 -3.3168 -1.4909
   45CHL1  H12B 3289   2.581   2.052   7.553 -3.1757  2.3056  1.3586
   45CHL1   C11 3290   2.499   1.948   7.372 -0.3251  0.3168  0.6654
   45CHL1  H11A 3291   2.423   1.867   7.361  1.0447 -0.7370 -1.7826
   45CHL1  H11B 3292   2.468   2.044   7.326  2.9929  2.5017  2.6152
   45CHL1    C9 3293   2.635   1.906   7.313 -0.4553 -0.8025  0.5235
   45CHL1    H9 3294   2.697   1.998   7.321 -1.2934 -0.2804  1.3364
   45CHL1   C10 3295   2.626   1.873   7.163 -0.3053 -0.0456 -0.3423
   45CHL1   C19 3296   2.523   1.762   7.140 -0.4525  0.7166  0.4543
   45CHL1  H19A 3297   2.552   1.671   7.195  0.8593  1.4609  1.0433
   45CHL1  H19B 3298   2.420   1.790   7.170 -1.1945 -1.0109 -0.3724
   45CHL1  H19C 3299   2.514   1.742   7.031  0.4389 -1.1470  0.6786
   45CHL1    C1 3300   2.601   1.999   7.085 -0.7145  0.1157  0.0887
   45CHL1   H1A 3301   2.504   2.048   7.111 -0.8771 -0.9763  1.7054
   45CHL1   H1B 3302   2.670   2.078   7.121 -0.2240  0.2207 -1.0583
   45CHL1    C2 3303   2.622   1.989   6.931 -0.3359 -0.5573  0.4687
   45CHL1   H2A 3304   2.613   2.092   6.890 -1.3961 -0.5177  0.7742
   45CHL1   H2B 3305   2.540   1.929   6.887  1.2965 -0.7120 -2.6685
   45CHL1   C20 3306   2.499   1.849   7.869  0.3598  0.6646  0.3991
   45CHL1   H20 3307   2.457   1.747   7.868 -0.3161  0.9363 -0.4242
   45CHL1   C21 3308   2.387   1.952   7.854  0.0038 -0.1608  0.7908
   45CHL1  H21A 3309   2.422   2.058   7.857  1.5864 -0.6684  1.4459
   45CHL1  H21B 3310   2.313   1.930   7.934  0.9295 -0.5758  1.5562
   45CHL1  H21C 3311   2.339   1.932   7.756  0.0524  0.0931  0.7155
   45CHL1   C22 3312   2.574   1.876   8.003  0.8618 -0.0622 -0.3680
   45CHL1  H22A 3313   2.645   1.792   8.013  2.0306  0.7278 -1.6097
   45CHL1  H22B 3314   2.627   1.973   7.991  1.4707 -0.1207  1.5127
   45CHL1   C23 3315   2.484   1.877   8.127 -0.6570  0.1766  0.2167
   45CHL1  H23A 3316   2.415   1.964   8.127  1.9470  2.6752 -4.4948
   45CHL1  H23B 3317   2.439   1.775   8.126  0.9488 -0.6025 -1.7652
   45CHL1   C24 3318   2.578   1.894   8.250  0.1660  0.7202 -0.0150
   45CHL1  H24A 3319   2.650   1.811   8.234 -0.7205  0.2459 -1.8419
   45CHL1  H24B 3320   2.633   1.989   8.246  2.9816 -0.8008  0.1544
   45CHL1   C25 3321   2.504   1.875   8.390 -1.0626 -0.3238  0.7498
   45CHL1   H25 3322   2.421   1.949   8.399 -2.4865 -1.2683 -2.7647
   45CHL1   C26 3323   2.440   1.728   8.407  0.3093 -0.0426 -0.1568
   45CHL1  H26A 3324   2.353   1.715   8.339 -1.1860  1.7323  1.2952
   45CHL1  H26B 3325   2.514   1.646   8.389 -0.3814 -0.6131 -0.4586
   45CHL1  H26C 3326   2.382   1.729   8.501  1.0875  2.0449  0.3437
   45CHL1   C27 3327   2.608   1.899   8.503  0.1571  0.1369 -0.1518
   45CHL1  H27A 3328   2.573   1.889   8.608 -0.3556  1.4398 -0.1789
   45CHL1  H27B 3329   2.690   1.826   8.488  1.1127  1.3306 -0.9411
   45CHL1  H27C 3330   2.664   1.995   8.497  0.8584 -0.3161 -1.0725
   46CHL1    C3 3331   4.285   4.201   7.206  0.3898 -0.0108 -0.4096
   46CHL1    H3 3332   4.226   4.116   7.245  1.6845 -2.0129 -2.5336
   46CHL1    O3 3333   4.234   4.222   7.076  0.0569  0.7506 -0.3394
   46CHL1   H3' 3334   4.274   4.303   7.045  0.1623  1.8210  2.2961
   46CHL1    C4 3335   4.266   4.329   7.289 -0.1462 -0.5165 -0.0320
   46CHL1   H4A 3336   4.311   4.408   7.225 -0.2704  0.0305  0.5541
   46CHL1   H4B 3337   4.157   4.353   7.288 -0.2633 -0.9782 -1.7358
   46CHL1    C5 3338   4.326   4.321   7.434 -0.0181 -0.5451 -0.4731
   46CHL1    C6 3339   4.261   4.353   7.548  0.2804 -0.0389  0.1207
   46CHL1    H6 3340   4.158   4.387   7.534  1.1303  1.2970 -5.0889
   46CHL1    C7 3341   4.315   4.349   7.688  0.7098 -0.9957 -0.6266
   46CHL1   H7A 3342   4.291   4.445   7.738  1.0927 -1.3228  0.2075
   46CHL1   H7B 3343   4.255   4.284   7.755 -2.0519  0.7443 -1.2492
   46CHL1    C8 3344   4.469   4.322   7.696  0.0652 -0.3936  0.3983
   46CHL1    H8 3345   4.513   4.421   7.672 -1.4527  0.4024  0.7824
   46CHL1   C14 3346   4.517   4.272   7.828 -0.1179 -0.7973 -0.0463
   46CHL1   H14 3347   4.459   4.181   7.854 -0.8150  0.3402  2.7881
   46CHL1   C15 3348   4.481   4.357   7.955  0.0698  0.4667  0.3438
   46CHL1  H15A 3349   4.501   4.464   7.931  0.5312  0.2735 -0.1624
   46CHL1  H15B 3350   4.378   4.346   7.994 -1.2750  1.4149 -2.5996
   46CHL1   C16 3351   4.599   4.322   8.052 -0.2497  0.2185 -0.4154
   46CHL1  H16A 3352   4.670   4.406   8.068  0.7244 -0.6119 -0.2916
   46CHL1  H16B 3353   4.556   4.285   8.147  2.9167 -2.0390  0.3123
   46CHL1   C17 3354   4.691   4.214   7.987 -0.5167 -0.6424 -0.6834
   46CHL1   H17 3355   4.643   4.120   8.022  0.5025 -0.8064  0.3212
   46CHL1   C13 3356   4.663   4.241   7.835  1.0244  0.2440  0.6876
   46CHL1   C18 3357   4.751   4.358   7.786 -0.7457 -0.1560  0.5925
   46CHL1  H18A 3358   4.737   4.455   7.838  3.0158  0.8000  0.0835
   46CHL1  H18B 3359   4.860   4.339   7.797  0.0551  2.7274 -1.2611
   46CHL1  H18C 3360   4.739   4.383   7.679  0.0165 -0.9602  0.3072
   46CHL1   C12 3361   4.685   4.119   7.739 -0.9774  0.5154 -0.1376
   46CHL1  H12A 3362   4.792   4.091   7.749 -0.7668  1.2095 -0.3862
   46CHL1  H12B 3363   4.628   4.030   7.774 -0.3668 -1.0857 -2.9286
   46CHL1   C11 3364   4.639   4.149   7.597  0.6091 -0.7843  0.5426
   46CHL1  H11A 3365   4.707   4.220   7.546 -2.1763  0.7693 -1.2595
   46CHL1  H11B 3366   4.644   4.050   7.546  0.4612  0.5873 -2.3274
   46CHL1    C9 3367   4.498   4.212   7.587  1.0576 -0.5891 -0.6529
   46CHL1    H9 3368   4.428   4.136   7.627  1.3225 -0.0114  0.9968
   46CHL1   C10 3369   4.471   4.262   7.438  0.1291  0.7468 -0.1104
   46CHL1   C19 3370   4.558   4.382   7.387  0.5305 -0.6005 -0.5473
   46CHL1  H19A 3371   4.550   4.473   7.450  3.5989  0.2513 -1.2052
   46CHL1  H19B 3372   4.668   4.363   7.388  0.5954 -0.4992 -2.2816
   46CHL1  H19C 3373   4.537   4.409   7.281  0.7813 -0.5867 -0.5943
   46CHL1    C1 3374   4.481   4.134   7.341 -0.2024 -0.1306 -0.8468
   46CHL1   H1A 3375   4.582   4.088   7.331 -0.0885  0.3669 -2.3671
   46CHL1   H1B 3376   4.418   4.052   7.380  1.1701 -1.3974 -1.1789
   46CHL1    C2 3377   4.434   4.158   7.205  0.2623 -0.6455  1.0617
   46CHL1   H2A 3378   4.448   4.065   7.146  1.8494 -0.5825  1.2903
   46CHL1   H2B 3379   4.485   4.245   7.160 -0.4078  0.5238  2.4499
   46CHL1   C20 3380   4.836   4.205   8.051 -0.1679  0.2346  0.7372
   46CHL1   H20 3381   4.888   4.292   8.006 -0.4361 -0.2183 -0.4775
   46CHL1   C21 3382   4.910   4.084   7.995 -1.1086 -0.0800 -0.1949
   46CHL1  H21A 3383   4.932   4.083   7.886 -1.0001 -0.8308 -0.1694
   46CHL1  H21B 3384   4.870   3.985   8.026  1.8475 -1.8416 -1.6199
   46CHL1  H21C 3385   5.013   4.091   8.034 -1.1987 -0.5343  0.1257
   46CHL1   C22 3386   4.839   4.212   8.209 -0.1159  0.4918 -0.3109
   46CHL1  H22A 3387   4.792   4.306   8.244  0.9030  2.3319 -3.4584
   46CHL1  H22B 3388   4.784   4.121   8.243  0.3513  0.3277  0.0255
   46CHL1   C23 3389   4.978   4.210   8.273  0.0137  0.6084  0.5409
   46CHL1  H23A 3390   5.033   4.120   8.238 -2.7446 -0.2055 -2.0824
   46CHL1  H23B 3391   5.041   4.295   8.238 -1.7069  1.4972 -0.5437
   46CHL1   C24 3392   4.986   4.210   8.425  0.5391 -0.3833 -0.4226
   46CHL1  H24A 3393   4.951   4.114   8.468 -1.5689 -0.8833 -2.9769
   46CHL1  H24B 3394   5.094   4.213   8.449 -0.0916 -1.4800  3.1561
   46CHL1   C25 3395   4.925   4.330   8.496  0.0166  0.3104  0.4868
   46CHL1   H25 3396   4.814   4.324   8.492  0.0749 -0.0982 -1.0651
   46CHL1   C26 3397   4.979   4.312   8.639  0.4863 -0.3008  0.3850
   46CHL1  H26A 3398   4.933   4.228   8.696 -0.4446 -1.3565 -1.8112
   46CHL1  H26B 3399   5.090   4.312   8.638  0.5437  1.6140 -2.3291
   46CHL1  H26C 3400   4.943   4.401   8.693  0.9652  1.4029 -1.9607
   46CHL1   C27 3401   4.980   4.461   8.447  0.0194 -0.6262  0.5254
   46CHL1  H27A 3402   4.959   4.489   8.341 -1.5354 -1.2103  0.6477
   46CHL1  H27B 3403   4.943   4.534   8.521  1.6497 -1.4260  2.1952
   46CHL1  H27C 3404   5.088   4.458   8.469  0.3168  1.1110 -0.5002
   47CHL1    C3 3405   3.173   3.781   6.797  0.2417  0.1548  0.7107
   47CHL1    H3 3406   3.202   3.884   6.823  0.0363  0.3262  0.2763
   47CHL1    O3 3407   3.214   3.752   6.663  0.2965 -0.3035  0.9149
   47CHL1   H3' 3408   3.234   3.658   6.662 -0.9042 -0.6131  2.1514
   47CHL1    C4 3409   3.246   3.681   6.885 -0.1294 -1.3236 -0.4084
   47CHL1   H4A 3410   3.239   3.577   6.845  1.0588 -0.5626 -2.8157
   47CHL1   H4B 3411   3.357   3.687   6.883 -0.1343 -1.2862 -0.8302
   47CHL1    C5 3412   3.200   3.690   7.033  0.0093  0.4164  0.4769
   47CHL1    C6 3413   3.287   3.710   7.129 -0.0067 -0.0450 -0.1926
   47CHL1    H6 3414   3.394   3.710   7.104 -0.3056 -1.7270 -1.6791
   47CHL1    C7 3415   3.244   3.707   7.273 -0.4073  0.2798 -0.7259
   47CHL1   H7A 3416   3.312   3.645   7.335 -0.0661  1.1975 -0.1435
   47CHL1   H7B 3417   3.249   3.809   7.317 -0.4614  0.0326 -0.1346
   47CHL1    C8 3418   3.105   3.654   7.302 -0.7821  0.0886  0.7415
   47CHL1    H8 3419   3.103   3.544   7.289  0.1383  0.2828 -1.5257
   47CHL1   C14 3420   3.057   3.707   7.442  0.4118 -0.5214  0.2264
   47CHL1   H14 3421   3.062   3.818   7.439 -1.4946 -0.4231 -1.4498
   47CHL1   C15 3422   3.139   3.685   7.565 -0.0049  0.5946 -0.7636
   47CHL1  H15A 3423   3.137   3.574   7.574 -1.2967  0.6056 -0.6153
   47CHL1  H15B 3424   3.241   3.728   7.571 -0.0807  1.1081 -2.6656
   47CHL1   C16 3425   3.042   3.730   7.679  0.5651 -0.3086 -0.7456
   47CHL1  H16A 3426   3.040   3.655   7.761 -0.5414 -1.3812 -1.7194
   47CHL1  H16B 3427   3.075   3.832   7.709  1.8189 -0.1247 -2.6143
   47CHL1   C17 3428   2.897   3.737   7.624  0.4989  0.1648  0.4054
   47CHL1   H17 3429   2.870   3.843   7.608 -0.1098 -0.1691 -0.9453
   47CHL1   C13 3430   2.916   3.676   7.476 -1.2956 -0.4788 -0.0327
   47CHL1   C18 3431   2.899   3.519   7.483 -0.3414 -0.1196  0.1446
   47CHL1  H18A 3432   2.795   3.483   7.498 -0.8536  0.3151 -2.0142
   47CHL1  H18B 3433   2.947   3.464   7.399  0.3955  0.8406 -0.0751
   47CHL1  H18C 3434   2.954   3.489   7.575  1.4728 -0.0552 -0.8664
   47CHL1   C12 3435   2.827   3.733   7.371 -0.1552  0.3612 -0.3072
   47CHL1  H12A 3436   2.722   3.701   7.391  0.0376  0.0418  0.2350
   47CHL1  H12B 3437   2.833   3.843   7.380 -2.0251  0.5001 -0.3557
   47CHL1   C11 3438   2.860   3.692   7.231 -0.9386  0.0402 -0.3649
   47CHL1  H11A 3439   2.835   3.587   7.209 -0.9854  0.0992 -0.5910
   47CHL1  H11B 3440   2.800   3.758   7.165  1.2302  0.4408 -2.0433
   47CHL1    C9 3441   3.012   3.713   7.196 -0.3835  0.0060  0.1786
   47CHL1    H9 3442   3.023   3.823   7.209 -0.3468 -0.0708  0.8392
   47CHL1   C10 3443   3.048   3.679   7.054 -0.5037  1.0067  0.0448
   47CHL1   C19 3444   3.013   3.531   7.020  0.5218 -0.0670 -0.3078
   47CHL1  H19A 3445   3.061   3.463   7.093  1.5967  1.3496  0.3577
   47CHL1  H19B 3446   2.903   3.511   7.023  1.0141 -3.1246  1.7696
   47CHL1  H19C 3447   3.052   3.504   6.920 -1.0807  0.5511 -1.1492
   47CHL1    C1 3448   2.971   3.772   6.957  0.2092 -0.0706 -0.2604
   47CHL1   H1A 3449   2.861   3.761   6.963  0.3106 -0.5243  4.2761
   47CHL1   H1B 3450   2.991   3.875   6.993 -0.4534  0.9006 -2.4959
   47CHL1    C2 3451   3.023   3.766   6.811 -0.2266  0.4738  0.5420
   47CHL1   H2A 3452   2.977   3.851   6.757 -0.0697  1.2565  1.5971
   47CHL1   H2B 3453   2.996   3.672   6.758 -1.6632  1.2263 -0.1087
   47CHL1   C20 3454   2.787   3.676   7.712  0.1098  0.6384  0.3208
   47CHL1   H20 3455   2.812   3.569   7.731  2.3030  0.7077 -1.6977
   47CHL1   C21 3456   2.653   3.689   7.644 -0.6781  0.2452  0.8515
   47CHL1  H21A 3457   2.644   3.626   7.553 -0.0526  0.8458  0.3736
   47CHL1  H21B 3458   2.640   3.795   7.612 -1.7720 -0.5552 -1.5804
   47CHL1  H21C 3459   2.572   3.673   7.719 -0.9682 -2.4886  0.0484
   47CHL1   C22 3460   2.778   3.750   7.850  0.5303 -0.3940  0.1084
   47CHL1  H22A 3461   2.872   3.777   7.904 -2.1452  2.7098  3.7667
   47CHL1  H22B 3462   2.729   3.848   7.835  2.9625  0.7205 -1.1214
   47CHL1   C23 3463   2.703   3.659   7.954  0.5846 -0.4540  0.7159
   47CHL1  H23A 3464   2.595   3.651   7.930  0.7290 -0.7822  0.1705
   47CHL1  H23B 3465   2.753   3.560   7.957 -2.2233 -2.0020 -0.0237
   47CHL1   C24 3466   2.697   3.730   8.092 -0.9308 -0.1951 -0.0006
   47CHL1  H24A 3467   2.797   3.768   8.120 -1.4191  0.6560  0.6560
   47CHL1  H24B 3468   2.630   3.819   8.082 -2.8612 -1.5219  0.4552
   47CHL1   C25 3469   2.648   3.632   8.201  0.0978 -0.3737  0.0484
   47CHL1   H25 3470   2.548   3.594   8.170  0.6283 -1.1131 -0.8316
   47CHL1   C26 3471   2.748   3.516   8.208  0.1222 -0.4872  0.4143
   47CHL1  H26A 3472   2.734   3.455   8.300  0.6514  0.8519  1.4142
   47CHL1  H26B 3473   2.745   3.447   8.121  0.6048 -1.0575  0.8389
   47CHL1  H26C 3474   2.853   3.554   8.210 -0.7405  2.0936  0.3240
   47CHL1   C27 3475   2.624   3.705   8.331 -0.1220  0.3283  0.0957
   47CHL1  H27A 3476   2.537   3.774   8.324  0.8306  1.4414 -1.5158
   47CHL1  H27B 3477   2.611   3.629   8.411 -1.9275  0.0573 -0.4045
   47CHL1  H27C 3478   2.710   3.755   8.379 -0.1594  0.5868 -0.1051
   48CHL1    C3 3479   6.067   6.691   6.467  0.5747  0.0560 -0.9697
   48CHL1    H3 3480   6.175   6.673   6.484 -0.1556 -2.1901  2.0961
   48CHL1    O3 3481   6.031   6.669   6.329  0.3963  0.2586 -0.0653
   48CHL1   H3' 3482   6.066   6.582   6.307  0.8888  0.4433 -0.0430
   48CHL1    C4 3483   5.995   6.583   6.565 -0.0141  0.3900  0.3526
   48CHL1   H4A 3484   5.885   6.581   6.551  0.1690 -0.1283 -1.0805
   48CHL1   H4B 3485   6.030   6.486   6.525 -0.1680  0.0724  0.9732
   48CHL1    C5 3486   6.038   6.620   6.707 -0.0925  0.7259 -0.1968
   48CHL1    C6 3487   6.116   6.535   6.772 -0.4119  0.4545 -0.3398
   48CHL1    H6 3488   6.155   6.442   6.727 -1.7073  0.1117 -0.8035
   48CHL1    C7 3489   6.162   6.563   6.918  0.4521 -0.7057  1.2530
   48CHL1   H7A 3490   6.166   6.466   6.972 -2.0939 -1.2582  0.5740
   48CHL1   H7B 3491   6.262   6.611   6.907  0.1095 -0.4143 -0.8472
   48CHL1    C8 3492   6.075   6.668   6.984 -0.0049  0.0767  0.6790
   48CHL1    H8 3493   5.975   6.621   6.994  0.4229 -1.1619 -0.5447
   48CHL1   C14 3494   6.124   6.702   7.124 -0.8143  0.0272 -0.1586
   48CHL1   H14 3495   6.226   6.744   7.114 -0.1034 -0.6316  3.1342
   48CHL1   C15 3496   6.143   6.587   7.227 -0.0480 -0.2974 -0.4460
   48CHL1  H15A 3497   6.071   6.508   7.197  0.7896 -0.9917 -0.6639
   48CHL1  H15B 3498   6.247   6.550   7.210  0.0921  0.7908 -2.2053
   48CHL1   C16 3499   6.125   6.645   7.362  0.4472 -0.6913 -0.3497
   48CHL1  H16A 3500   6.036   6.601   7.412 -0.8734 -0.8526 -2.6836
   48CHL1  H16B 3501   6.220   6.650   7.419  0.8514 -1.3461 -0.9467
   48CHL1   C17 3502   6.091   6.795   7.347 -0.3588 -0.3229 -0.5248
   48CHL1   H17 3503   6.192   6.842   7.341  0.0238 -1.1188 -0.4903
   48CHL1   C13 3504   6.037   6.804   7.197 -0.2663 -0.2350  0.1210
   48CHL1   C18 3505   5.883   6.754   7.197 -0.4730 -0.5979 -0.3164
   48CHL1  H18A 3506   5.887   6.654   7.244  4.0613 -0.3019  0.4553
   48CHL1  H18B 3507   5.817   6.821   7.256  0.6153  0.1112  0.1293
   48CHL1  H18C 3508   5.846   6.742   7.093  0.0756  0.2240 -0.6235
   48CHL1   C12 3509   6.057   6.927   7.116  0.3802  0.5520 -0.1170
   48CHL1  H12A 3510   6.000   7.012   7.160 -1.6270 -0.5371 -0.5177
   48CHL1  H12B 3511   6.166   6.952   7.110  1.0314 -2.0270  0.0903
   48CHL1   C11 3512   6.012   6.921   6.965  0.4720  0.1060 -0.5997
   48CHL1  H11A 3513   5.901   6.923   6.964  0.3815 -1.9700 -0.3172
   48CHL1  H11B 3514   6.042   7.012   6.909 -1.1698  0.4993 -0.9052
   48CHL1    C9 3515   6.067   6.792   6.892 -0.1965 -0.3811 -0.2072
   48CHL1    H9 3516   6.173   6.824   6.877 -0.2559  0.4714  1.0606
   48CHL1   C10 3517   5.994   6.760   6.757 -0.2470 -0.2629  0.7373
   48CHL1   C19 3518   5.844   6.762   6.779 -0.1356 -0.7374 -0.1626
   48CHL1  H19A 3519   5.790   6.726   6.689  0.1952 -0.1418 -0.6043
   48CHL1  H19B 3520   5.813   6.709   6.871  1.2108  0.9339  1.3199
   48CHL1  H19C 3521   5.799   6.862   6.792 -1.2831 -1.1039 -1.1133
   48CHL1    C1 3522   6.041   6.880   6.662  0.0865  0.9746  0.3187
   48CHL1   H1A 3523   5.989   6.977   6.673 -0.1538  1.1971 -2.0934
   48CHL1   H1B 3524   6.150   6.898   6.671  0.3059  1.2845 -2.1418
   48CHL1    C2 3525   6.019   6.838   6.512 -0.1578  0.2722  0.0931
   48CHL1   H2A 3526   6.073   6.911   6.448 -1.4747  1.2183  0.0130
   48CHL1   H2B 3527   5.911   6.852   6.489 -0.3031 -0.6916  0.1352
   48CHL1   C20 3528   6.009   6.869   7.457  0.0672 -0.5798 -0.3212
   48CHL1   H20 3529   5.912   6.815   7.464  0.7220 -1.5729  2.0468
   48CHL1   C21 3530   5.990   7.016   7.428 -0.3156 -0.1509 -0.3013
   48CHL1  H21A 3531   5.933   7.024   7.334  0.7883  2.4672 -0.8536
   48CHL1  H21B 3532   6.082   7.078   7.417 -0.5163  0.7005  2.2367
   48CHL1  H21C 3533   5.921   7.065   7.500 -0.6104  1.9246 -1.9019
   48CHL1   C22 3534   6.071   6.851   7.596 -0.0173  0.4418 -0.0734
   48CHL1  H22A 3535   6.137   6.761   7.600 -0.2387  0.2638 -0.4118
   48CHL1  H22B 3536   6.130   6.943   7.619 -0.7394  0.7379  0.6473
   48CHL1   C23 3537   5.957   6.840   7.696  0.2675  0.0035  0.2255
   48CHL1  H23A 3538   5.876   6.915   7.680  0.1691  0.4249  2.4081
   48CHL1  H23B 3539   5.906   6.742   7.683 -2.3259  1.3299 -0.2239
   48CHL1   C24 3540   6.006   6.861   7.834  0.1642  0.5612 -0.7265
   48CHL1  H24A 3541   6.080   6.781   7.859 -0.4783  0.7542  2.1584
   48CHL1  H24B 3542   6.041   6.965   7.847 -1.6154  1.1884 -0.7210
   48CHL1   C25 3543   5.896   6.850   7.945 -0.1445  0.0057 -0.5001
   48CHL1   H25 3544   5.812   6.920   7.924 -1.3126 -0.4959  2.0959
   48CHL1   C26 3545   5.847   6.706   7.952 -0.2535 -0.0609 -0.4536
   48CHL1  H26A 3546   5.768   6.703   8.030  0.5643  0.8005  0.4370
   48CHL1  H26B 3547   5.826   6.666   7.851  0.2978  0.7408 -0.8991
   48CHL1  H26C 3548   5.928   6.642   7.994  1.4192  2.1835 -0.0468
   48CHL1   C27 3549   5.950   6.901   8.081  0.6078  0.4353  0.4095
   48CHL1  H27A 3550   5.989   7.003   8.059 -0.7326  1.2745  1.7191
   48CHL1  H27B 3551   5.870   6.925   8.155  0.4273  1.0817  0.0174
   48CHL1  H27C 3552   6.032   6.841   8.126  0.5134 -1.1835 -1.4058
   49CHL1    C3 3553   4.728   5.760   6.830 -0.1974  0.3043 -0.0078
   49CHL1    H3 3554   4.625   5.790   6.858  0.0774  1.0274  0.2425
   49CHL1    O3 3555   4.740   5.722   6.690  0.2475  0.2038 -0.7327
   49CHL1   H3' 3556   4.830   5.690   6.683  0.7148  1.5876 -1.4584
   49CHL1    C4 3557   4.828   5.877   6.853 -0.4446  0.2160  0.3469
   49CHL1   H4A 3558   4.924   5.836   6.816 -0.2424 -0.1634  1.2551
   49CHL1   H4B 3559   4.803   5.968   6.795 -1.6217  0.0596  0.5842
   49CHL1    C5 3560   4.858   5.910   7.001 -0.0061  0.0244  0.4507
   49CHL1    C6 3561   4.841   6.042   7.047  0.2710  0.4421 -0.1976
   49CHL1    H6 3562   4.821   6.123   6.975  0.7460  2.1210  1.4731
   49CHL1    C7 3563   4.871   6.090   7.188  0.1052 -0.0182  0.0556
   49CHL1   H7A 3564   4.941   6.176   7.196  0.8849 -0.7419  1.2627
   49CHL1   H7B 3565   4.773   6.115   7.235 -0.8649 -1.3938 -1.1330
   49CHL1    C8 3566   4.947   5.977   7.269  0.8184  0.6148 -0.3365
   49CHL1    H8 3567   5.056   5.975   7.249  1.0197 -0.5180  0.7129
   49CHL1   C14 3568   4.945   6.015   7.419  0.0570 -0.4335  0.5414
   49CHL1   H14 3569   4.835   6.026   7.437 -0.0204 -1.1864  0.5514
   49CHL1   C15 3570   5.009   6.155   7.463  0.1171 -0.0009  0.2747
   49CHL1  H15A 3571   5.120   6.157   7.449 -0.1677  1.0776 -2.3834
   49CHL1  H15B 3572   4.965   6.248   7.422 -1.9421 -1.5518 -1.2106
   49CHL1   C16 3573   5.001   6.143   7.618  0.1164 -0.9252 -0.1007
   49CHL1  H16A 3574   5.102   6.174   7.652 -0.3602  1.5110 -0.6968
   49CHL1  H16B 3575   4.925   6.210   7.664  1.5372  0.9547 -0.3823
   49CHL1   C17 3576   4.970   5.988   7.652 -0.0069 -0.6898  0.5295
   49CHL1   H17 3577   4.861   5.985   7.673  0.0056  0.5987  0.8770
   49CHL1   C13 3578   4.993   5.913   7.517  0.4427 -0.0975  0.0968
   49CHL1   C18 3579   5.147   5.878   7.501  0.6150 -0.8068  0.7484
   49CHL1  H18A 3580   5.215   5.966   7.508  1.8047 -1.6287 -0.1097
   49CHL1  H18B 3581   5.185   5.796   7.566  0.9754  0.1536  1.7838
   49CHL1  H18C 3582   5.159   5.846   7.396 -0.9459 -0.5374  0.4598
   49CHL1   C12 3583   4.901   5.789   7.500 -0.2637  0.0131 -0.7253
   49CHL1  H12A 3584   4.933   5.706   7.566  0.3204 -0.3949 -1.5062
   49CHL1  H12B 3585   4.793   5.809   7.521 -0.2667 -0.4061 -0.3193
   49CHL1   C11 3586   4.908   5.734   7.355  0.3891 -0.0609 -0.2668
   49CHL1  H11A 3587   5.015   5.705   7.343 -0.2697 -2.8328 -0.0289
   49CHL1  H11B 3588   4.834   5.652   7.354  0.1896  0.0037  2.0610
   49CHL1    C9 3589   4.873   5.840   7.250  0.2647  0.1730  0.0171
   49CHL1    H9 3590   4.767   5.856   7.279  0.7906  1.4119  1.4467
   49CHL1   C10 3591   4.879   5.791   7.099 -0.1386 -0.2996 -0.5475
   49CHL1   C19 3592   5.024   5.742   7.078 -0.4307 -0.1940 -0.1696
   49CHL1  H19A 3593   5.092   5.824   7.111  1.8967 -1.3302 -1.8767
   49CHL1  H19B 3594   5.050   5.653   7.140 -0.0243 -0.1316 -0.2510
   49CHL1  H19C 3595   5.052   5.718   6.974 -1.3070  0.5439 -0.5907
   49CHL1    C1 3596   4.775   5.685   7.076  0.1203 -0.3821 -0.8400
   49CHL1   H1A 3597   4.797   5.588   7.125 -2.4047 -0.8059 -0.4100
   49CHL1   H1B 3598   4.681   5.724   7.121  0.1812 -0.4584 -0.6496
   49CHL1    C2 3599   4.757   5.638   6.926 -0.3604  0.0966  0.4454
   49CHL1   H2A 3600   4.669   5.570   6.926 -1.3598  1.3366  1.4393
   49CHL1   H2B 3601   4.857   5.595   6.904 -0.3406  0.0463  0.6387
   49CHL1   C20 3602   5.031   5.941   7.778  0.0019 -0.2202 -0.9254
   49CHL1   H20 3603   5.142   5.945   7.775  0.1315 -0.1550  1.6350
   49CHL1   C21 3604   4.993   5.798   7.820 -0.1680  0.1177  0.3307
   49CHL1  H21A 3605   5.037   5.776   7.920 -2.2042 -0.5113  1.1392
   49CHL1  H21B 3606   5.035   5.726   7.747 -0.4384  0.5708 -0.2825
   49CHL1  H21C 3607   4.883   5.789   7.830 -0.4665 -0.8087 -2.7572
   49CHL1   C22 3608   5.008   6.049   7.898 -0.2979 -0.3403  0.1276
   49CHL1  H22A 3609   5.065   6.012   7.986  1.0670  0.3055 -0.4363
   49CHL1  H22B 3610   5.057   6.147   7.877 -0.8675  0.4127  2.1228
   49CHL1   C23 3611   4.863   6.088   7.933 -0.4470 -0.3713  0.4999
   49CHL1  H23A 3612   4.821   6.142   7.846  0.9345  0.2699  0.2023
   49CHL1  H23B 3613   4.799   5.997   7.938 -0.0733 -0.6927 -0.4665
   49CHL1   C24 3614   4.853   6.174   8.050  0.1928 -0.9196  0.6049
   49CHL1  H24A 3615   4.923   6.261   8.052 -0.4843 -0.3519  0.1826
   49CHL1  H24B 3616   4.752   6.217   8.064  0.1842  0.1324 -2.1684
   49CHL1   C25 3617   4.902   6.117   8.191 -0.1554  0.2341  0.0787
   49CHL1   H25 3618   5.011   6.100   8.186 -0.2554 -0.6083  0.6178
   49CHL1   C26 3619   4.863   6.231   8.282 -0.2938  0.3690 -0.1896
   49CHL1  H26A 3620   4.752   6.240   8.287 -0.1389  2.2322  1.0618
   49CHL1  H26B 3621   4.891   6.215   8.388 -0.5349 -1.1393 -0.3391
   49CHL1  H26C 3622   4.903   6.332   8.258  0.4377  0.1660  0.1502
   49CHL1   C27 3623   4.838   5.988   8.236  0.4701  0.0613 -0.6219
   49CHL1  H27A 3624   4.854   5.983   8.346  1.9480 -0.7845 -0.8396
   49CHL1  H27B 3625   4.730   6.005   8.219  0.1978 -0.8324  0.1237
   49CHL1  H27C 3626   4.869   5.899   8.177 -1.2667  0.1694 -1.7387
   50CHL1    C3 3627   4.573   1.420   7.002 -0.1429 -0.3239  0.2393
   50CHL1    H3 3628   4.468   1.384   7.008 -0.4442  0.7136  1.3807
   50CHL1    O3 3629   4.589   1.457   6.866 -0.1102  0.1826  0.5962
   50CHL1   H3' 3630   4.594   1.377   6.814 -2.0565  0.3128  0.1644
   50CHL1    C4 3631   4.582   1.546   7.091  0.1590  0.3173 -0.8288
   50CHL1   H4A 3632   4.670   1.605   7.059  0.6887  0.0523  0.1230
   50CHL1   H4B 3633   4.502   1.619   7.067 -0.1358 -0.3231 -1.8590
   50CHL1    C5 3634   4.575   1.508   7.234  0.3401  0.4511  0.8648
   50CHL1    C6 3635   4.479   1.557   7.317  0.2809 -0.5773 -0.1833
   50CHL1    H6 3636   4.408   1.634   7.283 -0.0375 -0.6466  0.3001
   50CHL1    C7 3637   4.464   1.516   7.465 -0.5733 -0.2727  0.3164
   50CHL1   H7A 3638   4.413   1.600   7.517 -0.5992  0.0666 -0.2504
   50CHL1   H7B 3639   4.404   1.423   7.478  1.9545 -1.9507  0.6953
   50CHL1    C8 3640   4.608   1.481   7.521 -0.2180  0.1902  0.9634
   50CHL1    H8 3641   4.661   1.578   7.533 -0.8303  0.5604  0.6929
   50CHL1   C14 3642   4.590   1.418   7.657  0.1688  1.2807 -0.2957
   50CHL1   H14 3643   4.532   1.325   7.636  0.7589  0.7686  0.2949
   50CHL1   C15 3644   4.499   1.486   7.766  0.4034 -0.8254 -0.4947
   50CHL1  H15A 3645   4.520   1.596   7.768 -1.5332 -0.4232  0.3106
   50CHL1  H15B 3646   4.392   1.471   7.740 -0.0504 -2.1445  1.8393
   50CHL1   C16 3647   4.550   1.433   7.901  0.1647 -0.4866  0.0992
   50CHL1  H16A 3648   4.596   1.519   7.954 -0.6489  0.2732 -0.4048
   50CHL1  H16B 3649   4.480   1.386   7.973  0.6651 -0.2879  0.7247
   50CHL1   C17 3650   4.668   1.328   7.864 -0.0621 -0.2666  0.2575
   50CHL1   H17 3651   4.617   1.235   7.831 -2.5251  2.4131 -4.6700
   50CHL1   C13 3652   4.717   1.384   7.725 -0.7136 -0.7191 -0.5907
   50CHL1   C18 3653   4.812   1.504   7.741 -0.0030  0.0228  0.0714
   50CHL1  H18A 3654   4.861   1.535   7.646  0.7633  1.7480  0.9873
   50CHL1  H18B 3655   4.760   1.593   7.781  0.5441  0.2747  0.2254
   50CHL1  H18C 3656   4.895   1.496   7.815 -0.2422  0.5307  0.3956
   50CHL1   C12 3657   4.790   1.274   7.634  0.2619 -0.1554 -0.5375
   50CHL1  H12A 3658   4.892   1.253   7.673  0.6783  1.0440 -0.9306
   50CHL1  H12B 3659   4.733   1.179   7.640  0.0093 -0.1499 -2.3532
   50CHL1   C11 3660   4.816   1.321   7.493  0.5143 -0.1876 -0.1043
   50CHL1  H11A 3661   4.879   1.412   7.504 -0.3448  0.5450 -1.0751
   50CHL1  H11B 3662   4.855   1.242   7.425  2.9008  0.7359  0.0825
   50CHL1    C9 3663   4.676   1.371   7.433  0.3421 -0.2464  0.1427
   50CHL1    H9 3664   4.612   1.281   7.442 -2.4835  1.6938  0.7881
   50CHL1   C10 3665   4.691   1.412   7.282 -0.3778  0.0279 -0.4368
   50CHL1   C19 3666   4.828   1.485   7.250  0.7432  0.1952  0.2153
   50CHL1  H19A 3667   4.918   1.429   7.284  0.5057  0.5895  1.5446
   50CHL1  H19B 3668   4.843   1.513   7.143 -2.0163  1.5867  0.1153
   50CHL1  H19C 3669   4.833   1.577   7.311  1.0731  1.3622 -1.4900
   50CHL1    C1 3670   4.686   1.283   7.186  0.2992  0.2271 -0.1861
   50CHL1   H1A 3671   4.773   1.219   7.208  0.7498  0.9003  0.0228
   50CHL1   H1B 3672   4.603   1.216   7.215 -0.0063  1.3652  1.7133
   50CHL1    C2 3673   4.674   1.312   7.038  0.1848  0.3557  0.3438
   50CHL1   H2A 3674   4.649   1.220   6.980 -2.2891  1.5538 -0.6149
   50CHL1   H2B 3675   4.778   1.340   7.012  0.6587  0.8546  2.6271
   50CHL1   C20 3676   4.768   1.306   7.973  1.0408 -0.2079  0.2655
   50CHL1   H20 3677   4.832   1.396   7.986  1.5671 -0.4972 -0.2669
   50CHL1   C21 3678   4.857   1.193   7.946 -0.6398  0.9309  0.5345
   50CHL1  H21A 3679   4.915   1.169   8.038 -0.2202  0.6775  0.2086
   50CHL1  H21B 3680   4.935   1.220   7.871  0.5272 -0.7597  1.0778
   50CHL1  H21C 3681   4.811   1.095   7.922  0.4543  0.6083 -0.3471
   50CHL1   C22 3682   4.699   1.295   8.109 -0.2504 -0.9761 -0.4242
   50CHL1  H22A 3683   4.781   1.285   8.184  0.9971  0.7021 -1.4985
   50CHL1  H22B 3684   4.649   1.390   8.136  3.0493  0.9002 -0.4670
   50CHL1   C23 3685   4.586   1.187   8.122 -0.3903 -0.4452  0.1242
   50CHL1  H23A 3686   4.521   1.185   8.032 -1.2788 -1.5550  0.7674
   50CHL1  H23B 3687   4.624   1.083   8.128  1.8427  0.3847  3.8479
   50CHL1   C24 3688   4.509   1.212   8.253  0.4171 -0.2527 -0.5828
   50CHL1  H24A 3689   4.579   1.243   8.333  0.7882  0.5817 -1.2247
   50CHL1  H24B 3690   4.436   1.295   8.254 -0.3311 -0.6992  3.6156
   50CHL1   C25 3691   4.422   1.089   8.298 -0.4718  0.1891 -0.9356
   50CHL1   H25 3692   4.496   1.009   8.319 -0.0927  0.1933 -2.1987
   50CHL1   C26 3693   4.358   1.128   8.435  0.1071  0.1390  0.4427
   50CHL1  H26A 3694   4.425   1.187   8.501  0.9280  1.6988 -1.6652
   50CHL1  H26B 3695   4.271   1.193   8.412 -0.2346 -0.4064  0.1584
   50CHL1  H26C 3696   4.320   1.037   8.487  0.9390 -0.5516 -0.1275
   50CHL1   C27 3697   4.319   1.033   8.195 -0.1993 -0.5340 -0.6625
   50CHL1  H27A 3698   4.263   0.949   8.243  4.3134 -2.6610  1.5439
   50CHL1  H27B 3699   4.248   1.115   8.171  2.6873  1.7272 -1.9975
   50CHL1  H27C 3700   4.369   0.993   8.105  2.4063 -1.6124  1.1590
   51CHL1    C3 3701   5.001   0.336   6.866  0.6655  0.2420  0.5550
   51CHL1    H3 3702   4.910   0.399   6.868  0.5910  0.1485  0.2177
   51CHL1    O3 3703   5.044   0.315   6.731 -0.0823 -0.2438  0.2392
   51CHL1   H3' 3704   5.088   0.230   6.729 -0.4624 -0.4362 -1.4039
   51CHL1    C4 3705   5.117   0.396   6.947  0.6310  0.3348 -0.2020
   51CHL1   H4A 3706   5.213   0.345   6.923  0.7462  1.3949 -2.1742
   51CHL1   H4B 3707   5.137   0.498   6.908  0.6570  0.3388 -0.1782
   51CHL1    C5 3708   5.098   0.395   7.096  0.0782  0.2059  0.2479
   51CHL1    C6 3709   5.135   0.506   7.164 -0.2707  0.7304  0.7018
   51CHL1    H6 3710   5.178   0.588   7.106  1.9493 -1.9006 -1.6932
   51CHL1    C7 3711   5.119   0.525   7.308 -0.1525 -0.8296  0.0370
   51CHL1   H7A 3712   5.201   0.574   7.365 -2.2309  1.3673  1.3334
   51CHL1   H7B 3713   5.030   0.588   7.329  1.1073  0.2930  2.3607
   51CHL1    C8 3714   5.088   0.385   7.380 -0.5448  0.1746  0.1897
   51CHL1    H8 3715   5.187   0.334   7.385 -0.9647 -0.7882 -0.9057
   51CHL1   C14 3716   5.033   0.406   7.522  0.4996 -0.3729  0.0192
   51CHL1   H14 3717   4.931   0.443   7.498  0.7541  0.0786 -0.3689
   51CHL1   C15 3718   5.106   0.523   7.603  0.9452  1.2911  0.0674
   51CHL1  H15A 3719   5.215   0.514   7.586  0.5828  1.3507 -2.6174
   51CHL1  H15B 3720   5.071   0.624   7.575 -3.1449  0.2792  0.8883
   51CHL1   C16 3721   5.081   0.481   7.747 -0.0338  0.6982 -0.5512
   51CHL1  H16A 3722   5.175   0.471   7.805 -1.1972  1.3577  1.5542
   51CHL1  H16B 3723   5.032   0.564   7.802  1.7553  0.6548  1.2341
   51CHL1   C17 3724   4.988   0.350   7.747  1.0723 -0.2203 -0.0375
   51CHL1   H17 3725   4.891   0.402   7.731  1.5401  1.1656  1.3769
   51CHL1   C13 3726   5.024   0.282   7.612 -0.2389 -0.1533  0.2308
   51CHL1   C18 3727   5.157   0.203   7.631 -0.0689  0.5647  1.4895
   51CHL1  H18A 3728   5.195   0.165   7.534 -1.1217  1.5371  0.6730
   51CHL1  H18B 3729   5.239   0.254   7.685  1.6530 -3.1521  2.7754
   51CHL1  H18C 3730   5.136   0.118   7.701  0.0943 -0.9324 -0.2014
   51CHL1   C12 3731   4.921   0.195   7.543  0.5426  0.3814  0.7671
   51CHL1  H12A 3732   4.915   0.099   7.600 -0.2604  1.1043  1.9385
   51CHL1  H12B 3733   4.824   0.249   7.549  0.8266  1.1080 -0.8512
   51CHL1   C11 3734   4.951   0.163   7.394  0.0228 -0.1117  0.0722
   51CHL1  H11A 3735   5.031   0.085   7.396 -0.5712 -0.7389 -0.3542
   51CHL1  H11B 3736   4.862   0.116   7.348  0.8643 -0.7931 -0.9022
   51CHL1    C9 3737   4.989   0.292   7.306  0.3780  0.3267 -0.2129
   51CHL1    H9 3738   4.899   0.355   7.293  0.0008  0.0603  0.9914
   51CHL1   C10 3739   5.035   0.266   7.162 -0.1916 -0.9491  1.1362
   51CHL1   C19 3740   5.152   0.161   7.160  0.0449 -0.4043 -0.0886
   51CHL1  H19A 3741   5.179   0.132   7.056  0.9688 -3.0368  0.8177
   51CHL1  H19B 3742   5.243   0.177   7.222  2.0487 -1.2470 -2.6303
   51CHL1  H19C 3743   5.100   0.068   7.191 -1.1450 -0.0936 -1.0680
   51CHL1    C1 3744   4.920   0.221   7.075  0.0478 -0.6558  0.1168
   51CHL1   H1A 3745   4.885   0.123   7.114 -1.6791 -0.4187 -0.7754
   51CHL1   H1B 3746   4.835   0.291   7.087  0.8859  0.3838  0.1870
   51CHL1    C2 3747   4.948   0.204   6.921  0.0314 -0.6723 -0.4085
   51CHL1   H2A 3748   4.857   0.170   6.867  1.4985 -0.4034 -3.2274
   51CHL1   H2B 3749   5.018   0.120   6.900 -1.3384 -1.9513 -0.0605
   51CHL1   C20 3750   4.978   0.269   7.877 -0.2880  0.0270  0.0792
   51CHL1   H20 3751   5.075   0.217   7.888  0.5719  1.7175  0.9243
   51CHL1   C21 3752   4.858   0.177   7.867  0.4177 -0.6881  0.0142
   51CHL1  H21A 3753   4.839   0.127   7.964 -0.9745  0.4072  0.3454
   51CHL1  H21B 3754   4.860   0.096   7.791 -1.0041 -1.9456  1.2697
   51CHL1  H21C 3755   4.763   0.232   7.851  0.3458 -0.9643 -0.5347
   51CHL1   C22 3756   4.944   0.366   7.995 -0.3761 -0.0711 -0.2287
   51CHL1  H22A 3757   5.026   0.440   7.992  1.1595 -1.7107  0.0575
   51CHL1  H22B 3758   4.850   0.423   7.974 -1.2185 -0.5640  1.9481
   51CHL1   C23 3759   4.934   0.305   8.131 -0.3271  0.1801 -0.6538
   51CHL1  H23A 3760   4.835   0.255   8.139  0.0954 -0.3708  3.0260
   51CHL1  H23B 3761   5.014   0.232   8.158 -0.3293 -0.7724 -2.9362
   51CHL1   C24 3762   4.929   0.407   8.250  0.7229 -0.1556  0.1791
   51CHL1  H24A 3763   5.022   0.467   8.238 -0.1474  1.0612 -0.7560
   51CHL1  H24B 3764   4.859   0.491   8.230  4.1981  2.5577 -1.6374
   51CHL1   C25 3765   4.910   0.350   8.395 -0.8358  0.6922  0.3793
   51CHL1   H25 3766   4.979   0.264   8.409 -1.1458  0.5343  0.9758
   51CHL1   C26 3767   4.937   0.464   8.491  0.5581  0.5394 -0.3661
   51CHL1  H26A 3768   5.042   0.499   8.477  0.3522  0.6134 -1.8450
   51CHL1  H26B 3769   4.861   0.545   8.482  0.0167 -0.0122 -0.8038
   51CHL1  H26C 3770   4.913   0.432   8.595 -3.0163 -0.7558 -1.4723
   51CHL1   C27 3771   4.770   0.300   8.423 -0.0109  0.3863  0.0080
   51CHL1  H27A 3772   4.740   0.219   8.353  1.7810  0.5859 -1.0432
   51CHL1  H27B 3773   4.765   0.250   8.522 -2.8228 -1.7718 -1.0774
   51CHL1  H27C 3774   4.701   0.385   8.411 -2.1217 -1.1476  0.6734
   52CHL1    C3 3775   1.355   3.176   6.803  0.3745 -0.3546 -0.0991
   52CHL1    H3 3776   1.454   3.190   6.852 -1.2782  0.2534  3.3021
   52CHL1    O3 3777   1.355   3.143   6.666 -0.0921  0.4775  0.2358
   52CHL1   H3' 3778   1.265   3.160   6.637 -0.5267 -2.8273 -0.8214
   52CHL1    C4 3779   1.274   3.076   6.877 -0.0815  1.1678 -0.0536
   52CHL1   H4A 3780   1.182   3.066   6.815 -0.4921 -1.1264  0.8355
   52CHL1   H4B 3781   1.320   2.975   6.875  2.1173  2.0979  0.8028
   52CHL1    C5 3782   1.234   3.109   7.019 -0.3883 -0.7924  0.2341
   52CHL1    C6 3783   1.257   3.025   7.120  0.1646 -0.5714 -0.4867
   52CHL1    H6 3784   1.304   2.927   7.101  0.1153 -0.1839 -2.9124
   52CHL1    C7 3785   1.214   3.053   7.262  0.0190  0.4750 -0.8429
   52CHL1   H7A 3786   1.183   2.955   7.303  0.4861  1.2200  1.4243
   52CHL1   H7B 3787   1.301   3.085   7.323 -0.0913  0.2912 -0.5895
   52CHL1    C8 3788   1.105   3.160   7.275  0.5306  0.0140  0.1655
   52CHL1    H8 3789   1.012   3.119   7.229 -0.2678  1.1721  0.6924
   52CHL1   C14 3790   1.089   3.209   7.413  0.5020  0.6474  0.3981
   52CHL1   H14 3791   1.190   3.243   7.443  0.3567  0.8853  0.6210
   52CHL1   C15 3792   1.070   3.093   7.505  0.1995 -0.4553 -0.4095
   52CHL1  H15A 3793   0.990   3.029   7.464  0.0832 -0.4172 -0.2414
   52CHL1  H15B 3794   1.158   3.037   7.544 -1.2707 -2.2907  0.4297
   52CHL1   C16 3795   1.010   3.165   7.632 -0.1284  0.0874  0.1560
   52CHL1  H16A 3796   0.913   3.114   7.652  0.1478  0.5066  3.0443
   52CHL1  H16B 3797   1.083   3.159   7.716  1.6512  0.1848 -1.3171
   52CHL1   C17 3798   0.993   3.317   7.594  0.8998 -0.2355  0.4234
   52CHL1   H17 3799   1.089   3.366   7.620 -0.5637  3.3497 -0.2867
   52CHL1   C13 3800   0.988   3.318   7.437  0.1025  0.9601  0.0549
   52CHL1   C18 3801   0.847   3.281   7.396  0.2363 -0.6513 -0.2349
   52CHL1  H18A 3802   0.773   3.364   7.390  0.1182 -0.8060 -1.0070
   52CHL1  H18B 3803   0.847   3.248   7.290  0.2788  0.4402 -0.5799
   52CHL1  H18C 3804   0.799   3.194   7.446 -1.6191  0.4412 -0.0189
   52CHL1   C12 3805   1.033   3.445   7.363 -0.5923  0.2548 -0.3661
   52CHL1  H12A 3806   0.963   3.531   7.369  0.0793  0.7872  0.1722
   52CHL1  H12B 3807   1.128   3.477   7.412 -1.3343  1.0262  0.6204
   52CHL1   C11 3808   1.055   3.415   7.217  0.2879  0.1985 -0.0238
   52CHL1  H11A 3809   0.958   3.398   7.165  0.7832 -0.2312 -0.8254
   52CHL1  H11B 3810   1.096   3.505   7.165  1.1411  0.0198  0.3236
   52CHL1    C9 3811   1.150   3.283   7.186 -0.1340 -0.7279  0.1740
   52CHL1    H9 3812   1.246   3.321   7.228 -0.4587 -0.0662  0.3361
   52CHL1   C10 3813   1.172   3.246   7.033 -0.2234 -0.1762 -0.1532
   52CHL1   C19 3814   1.032   3.235   6.961 -0.3249 -0.5655  0.1378
   52CHL1  H19A 3815   1.047   3.198   6.857 -0.2463 -2.6229  0.8268
   52CHL1  H19B 3816   0.959   3.176   7.020 -0.6563 -2.1676 -1.7491
   52CHL1  H19C 3817   0.982   3.334   6.957 -0.4616 -0.6520 -0.5220
   52CHL1    C1 3818   1.259   3.348   6.965 -0.5251  0.4412 -0.0637
   52CHL1   H1A 3819   1.214   3.450   6.956 -1.1399  0.5257  2.9575
   52CHL1   H1B 3820   1.356   3.354   7.019  0.6423 -0.0894 -2.0268
   52CHL1    C2 3821   1.287   3.318   6.815  0.6614  0.5532  0.2365
   52CHL1   H2A 3822   1.365   3.392   6.785  1.0298 -0.4957 -1.5332
   52CHL1   H2B 3823   1.191   3.324   6.761 -0.1045 -1.5922  1.2272
   52CHL1   C20 3824   0.880   3.388   7.678  0.4588  0.0406 -0.3519
   52CHL1   H20 3825   0.781   3.339   7.663  0.6332 -0.9561  1.4381
   52CHL1   C21 3826   0.864   3.534   7.639  0.2898  0.3498  0.3078
   52CHL1  H21A 3827   0.781   3.590   7.688  0.6743  1.9816 -0.8286
   52CHL1  H21B 3828   0.842   3.531   7.530  2.9104  2.0688 -0.3528
   52CHL1  H21C 3829   0.960   3.590   7.639  1.9405 -2.2894 -1.1892
   52CHL1   C22 3830   0.919   3.366   7.824 -0.4522  0.6280  0.4217
   52CHL1  H22A 3831   0.896   3.261   7.849 -1.4001  0.9966  1.1699
   52CHL1  H22B 3832   1.022   3.405   7.842 -0.6956  1.4471  0.1019
   52CHL1   C23 3833   0.821   3.428   7.934 -0.0777 -0.6711  0.7804
   52CHL1  H23A 3834   0.803   3.537   7.927  1.2291 -0.3164  2.2139
   52CHL1  H23B 3835   0.717   3.396   7.914 -0.2312 -0.1204  0.6909
   52CHL1   C24 3836   0.851   3.394   8.082  0.4697  0.2771  0.1860
   52CHL1  H24A 3837   0.880   3.287   8.090 -0.0486 -0.1168 -2.3299
   52CHL1  H24B 3838   0.930   3.466   8.113  0.6421 -0.0605  0.5274
   52CHL1   C25 3839   0.734   3.414   8.177  0.0266 -0.4469  0.4059
   52CHL1   H25 3840   0.778   3.394   8.277  1.2878 -0.9287 -0.2144
   52CHL1   C26 3841   0.686   3.563   8.177  0.4443  0.5446  0.0068
   52CHL1  H26A 3842   0.617   3.568   8.090 -0.1266 -1.7791  0.2741
   52CHL1  H26B 3843   0.636   3.580   8.275 -1.2268 -1.9249 -0.3211
   52CHL1  H26C 3844   0.765   3.641   8.180  1.7520 -0.7662  1.0648
   52CHL1   C27 3845   0.610   3.320   8.173  0.0815  0.4068 -0.1195
   52CHL1  H27A 3846   0.546   3.361   8.254  2.4585  1.0311  1.5557
   52CHL1  H27B 3847   0.564   3.325   8.072  1.2895 -1.3200 -0.8063
   52CHL1  H27C 3848   0.635   3.214   8.192  2.9036  1.2462  1.4776
   53CHL1    C3 3849   4.473   4.733   7.079 -0.0419 -0.4864  0.1966
   53CHL1    H3 3850   4.469   4.623   7.095  0.2158 -1.0301 -2.7629
   53CHL1    O3 3851   4.422   4.754   6.947 -0.2258 -0.0712 -0.5759
   53CHL1   H3' 3852   4.493   4.805   6.908  1.9748 -2.0490  0.6088
   53CHL1    C4 3853   4.392   4.804   7.187  0.2774  0.3257 -0.0146
   53CHL1   H4A 3854   4.387   4.909   7.151  1.1021  0.0808 -0.8887
   53CHL1   H4B 3855   4.284   4.780   7.191  0.3873 -0.0817  1.6896
   53CHL1    C5 3856   4.451   4.797   7.329  0.7468 -0.6698  0.3562
   53CHL1    C6 3857   4.367   4.755   7.432  0.0141 -0.3681 -0.4896
   53CHL1    H6 3858   4.262   4.722   7.423 -0.5160  0.7915  0.9111
   53CHL1    C7 3859   4.425   4.754   7.569 -0.4290  0.0839 -0.1510
   53CHL1   H7A 3860   4.363   4.800   7.648  0.5064  3.8233 -1.3673
   53CHL1   H7B 3861   4.439   4.649   7.603 -3.8274 -0.1182  1.0173
   53CHL1    C8 3862   4.570   4.819   7.589  0.2640  0.2152 -0.3356
   53CHL1    H8 3863   4.561   4.930   7.597 -1.3213  0.0608  0.5722
   53CHL1   C14 3864   4.628   4.768   7.721  0.1451 -0.0711  0.0247
   53CHL1   H14 3865   4.663   4.666   7.698 -0.0276 -0.4541  1.3476
   53CHL1   C15 3866   4.543   4.758   7.845  0.0159 -0.6616 -0.3032
   53CHL1  H15A 3867   4.490   4.856   7.847 -3.3438 -2.2941 -2.0990
   53CHL1  H15B 3868   4.473   4.673   7.839  0.8516 -1.2685 -1.8305
   53CHL1   C16 3869   4.640   4.749   7.965  0.2596  0.0862  0.1327
   53CHL1  H16A 3870   4.614   4.830   8.036  1.5210  2.1846 -1.7032
   53CHL1  H16B 3871   4.634   4.644   8.003 -0.1196  0.1859  0.3496
   53CHL1   C17 3872   4.782   4.772   7.903  0.7698 -0.1312 -0.5210
   53CHL1   H17 3873   4.829   4.674   7.876 -0.4061 -0.2128 -2.4460
   53CHL1   C13 3874   4.759   4.834   7.755  0.2514 -0.5023 -0.2703
   53CHL1   C18 3875   4.725   4.992   7.772 -0.4774  0.3008 -0.9916
   53CHL1  H18A 3876   4.709   5.038   7.673 -2.1476  2.1397  0.0667
   53CHL1  H18B 3877   4.644   5.006   7.846 -0.7839 -2.1270 -0.7833
   53CHL1  H18C 3878   4.818   5.037   7.813 -1.2883 -0.0287  1.4215
   53CHL1   C12 3879   4.862   4.796   7.647  0.2086 -0.2548  0.3227
   53CHL1  H12A 3880   4.957   4.850   7.668 -0.4861  0.5459  1.5612
   53CHL1  H12B 3881   4.888   4.689   7.659  2.5888 -0.0706 -2.2484
   53CHL1   C11 3882   4.816   4.829   7.500 -0.1902 -0.6015  0.1724
   53CHL1  H11A 3883   4.807   4.938   7.482 -2.0875 -1.2106 -3.5936
   53CHL1  H11B 3884   4.884   4.780   7.427  1.0593  0.6920  0.4419
   53CHL1    C9 3885   4.667   4.778   7.477 -0.8120  0.3870 -0.0467
   53CHL1    H9 3886   4.672   4.667   7.476  1.0357  0.4515 -0.3552
   53CHL1   C10 3887   4.603   4.820   7.341 -0.3215 -0.3888  0.2478
   53CHL1   C19 3888   4.633   4.972   7.310 -0.0769  0.2264 -0.3814
   53CHL1  H19A 3889   4.582   5.006   7.217  1.8786  1.1172 -1.1951
   53CHL1  H19B 3890   4.605   5.040   7.393  1.3933 -0.1751  0.4773
   53CHL1  H19C 3891   4.739   4.987   7.280 -0.7125  3.7868 -1.3436
   53CHL1    C1 3892   4.682   4.741   7.226 -0.1419 -0.0686 -0.2206
   53CHL1   H1A 3893   4.790   4.768   7.222 -0.1901  0.1928  0.2034
   53CHL1   H1B 3894   4.662   4.637   7.257  0.9477  0.0983  1.1415
   53CHL1    C2 3895   4.619   4.763   7.087  0.0612 -0.0534  0.4530
   53CHL1   H2A 3896   4.665   4.697   7.010 -1.9770  2.8645 -3.6368
   53CHL1   H2B 3897   4.646   4.868   7.061 -4.1436  1.2741  0.7939
   53CHL1   C20 3898   4.881   4.838   7.999  0.3148  0.0041  0.2929
   53CHL1   H20 3899   4.829   4.932   8.028 -0.7946 -0.6514  0.4877
   53CHL1   C21 3900   5.015   4.881   7.929  0.0100  0.3574  0.1049
   53CHL1  H21A 3901   5.068   4.787   7.901  1.7288  0.9308  1.2795
   53CHL1  H21B 3902   5.091   4.934   7.989  1.5055  1.3181 -2.4744
   53CHL1  H21C 3903   5.000   4.940   7.837  1.6249  0.3850 -0.1693
   53CHL1   C22 3904   4.914   4.759   8.130 -0.0962 -0.0318  0.2966
   53CHL1  H22A 3905   4.827   4.762   8.200 -0.2139 -0.5008  0.1704
   53CHL1  H22B 3906   4.921   4.656   8.091 -0.3704  0.2893 -0.6551
   53CHL1   C23 3907   5.046   4.791   8.211  0.2260 -0.7234  0.4707
   53CHL1  H23A 3908   5.066   4.694   8.260  0.8909 -1.5579 -1.3777
   53CHL1  H23B 3909   5.137   4.807   8.150  0.1210 -0.9479  0.2542
   53CHL1   C24 3910   5.024   4.903   8.319 -0.2658 -0.0914  0.1962
   53CHL1  H24A 3911   4.968   4.984   8.267 -1.2137 -0.6482  0.3359
   53CHL1  H24B 3912   4.943   4.859   8.380  0.6489  0.4262  1.8255
   53CHL1   C25 3913   5.145   4.949   8.399 -0.6156  0.4674  0.8108
   53CHL1   H25 3914   5.216   4.998   8.330  1.2430 -1.0918  1.5229
   53CHL1   C26 3915   5.100   5.057   8.495 -0.0435 -0.3450  0.0508
   53CHL1  H26A 3916   5.022   5.019   8.565 -0.2182  2.3994  1.4916
   53CHL1  H26B 3917   5.185   5.099   8.552 -0.7349 -0.6418  1.3326
   53CHL1  H26C 3918   5.052   5.143   8.442  0.0174 -0.3502 -0.0130
   53CHL1   C27 3919   5.189   4.831   8.482 -0.5146 -0.2494  0.0069
   53CHL1  H27A 3920   5.111   4.788   8.549  0.4188 -0.5985  0.9044
   53CHL1  H27B 3921   5.218   4.750   8.412 -0.1257 -1.9550  2.0464
   53CHL1  H27C 3922   5.275   4.862   8.546 -2.0867  2.0898  1.1189
   54CHL1    C3 3923   2.969   1.017   7.081 -0.2635 -0.1680 -0.1470
   54CHL1    H3 3924   2.961   1.126   7.097  2.2825  0.5370 -2.8516
   54CHL1    O3 3925   2.983   1.012   6.940 -0.2651 -0.9057  0.1700
   54CHL1   H3' 3926   2.968   0.919   6.926  0.8611 -0.9950 -0.5281
   54CHL1    C4 3927   3.093   0.948   7.133 -0.1377 -1.0229  0.1361
   54CHL1   H4A 3928   3.085   0.844   7.095 -1.5579 -1.7590  2.2204
   54CHL1   H4B 3929   3.181   1.008   7.100 -0.7274  1.2225  2.3209
   54CHL1    C5 3930   3.100   0.937   7.290  0.3249 -0.2562  0.2387
   54CHL1    C6 3931   3.195   0.994   7.365  0.5302  0.0722  0.6320
   54CHL1    H6 3932   3.280   1.032   7.307 -0.7795 -3.0537 -3.8841
   54CHL1    C7 3933   3.203   0.985   7.511 -0.3179 -0.0032 -0.3836
   54CHL1   H7A 3934   3.300   0.937   7.539  0.1445  1.5569  0.8158
   54CHL1   H7B 3935   3.198   1.089   7.549 -4.2955  0.6035 -2.0210
   54CHL1    C8 3936   3.091   0.901   7.583  0.1997  0.2309  0.2239
   54CHL1    H8 3937   3.124   0.795   7.579 -0.3741 -0.1252  3.0803
   54CHL1   C14 3938   3.070   0.932   7.731  0.8045 -0.0079  0.4710
   54CHL1   H14 3939   3.036   1.037   7.735 -1.6379 -0.7790  3.1504
   54CHL1   C15 3940   3.187   0.926   7.835  0.1081  0.0302  0.0841
   54CHL1  H15A 3941   3.242   0.829   7.830  1.1955  0.6796 -1.4113
   54CHL1  H15B 3942   3.264   1.003   7.814 -0.4161  0.3498 -0.6725
   54CHL1   C16 3943   3.110   0.951   7.964 -0.6496 -0.0313 -0.1930
   54CHL1  H16A 3944   3.156   0.882   8.038  0.8228  2.0676  0.9515
   54CHL1  H16B 3945   3.128   1.050   8.011  0.1850 -0.4001  0.2838
   54CHL1   C17 3946   2.956   0.935   7.936 -0.2904  0.2239 -0.1405
   54CHL1   H17 3947   2.923   1.038   7.911 -0.6123  0.5991  1.6760
   54CHL1   C13 3948   2.954   0.858   7.805  0.4883 -0.0444 -0.1736
   54CHL1   C18 3949   2.979   0.706   7.820  0.4486  0.0255  0.0898
   54CHL1  H18A 3950   3.060   0.702   7.896  1.0401  2.3622 -0.3529
   54CHL1  H18B 3951   2.903   0.645   7.873 -0.2599  1.5786  0.8926
   54CHL1  H18C 3952   3.017   0.656   7.728  2.1820 -2.3121  1.9139
   54CHL1   C12 3953   2.829   0.886   7.727 -1.4427 -0.3702 -0.2260
   54CHL1  H12A 3954   2.742   0.831   7.767 -2.4776  2.0732  1.1205
   54CHL1  H12B 3955   2.800   0.993   7.728 -0.1993  0.0010 -1.1427
   54CHL1   C11 3956   2.843   0.854   7.572 -0.1545  0.4733  0.3982
   54CHL1  H11A 3957   2.858   0.745   7.588  0.9210  0.2164 -1.9775
   54CHL1  H11B 3958   2.746   0.865   7.520  0.3339 -2.3803 -1.3018
   54CHL1    C9 3959   2.957   0.916   7.501 -0.3042  0.9949  0.0238
   54CHL1    H9 3960   2.931   1.024   7.501  0.3207  1.1618  1.7014
   54CHL1   C10 3961   2.961   0.885   7.352 -0.6787  0.8597 -0.3862
   54CHL1   C19 3962   2.965   0.730   7.319 -0.0004 -0.7576 -0.1675
   54CHL1  H19A 3963   2.991   0.711   7.212 -0.4520  1.3649 -0.7121
   54CHL1  H19B 3964   3.029   0.671   7.387 -0.8090  0.6844  1.9364
   54CHL1  H19C 3965   2.861   0.694   7.334  0.0395 -1.7388 -1.9995
   54CHL1    C1 3966   2.834   0.943   7.276 -0.6222  0.3494  0.4298
   54CHL1   H1A 3967   2.747   0.885   7.313 -0.0963 -0.7769 -0.0489
   54CHL1   H1B 3968   2.825   1.054   7.284 -2.2301  0.6028 -2.9711
   54CHL1    C2 3969   2.844   0.939   7.124  0.1804  0.5147  0.2041
   54CHL1   H2A 3970   2.761   0.987   7.069  0.0204  1.1701  1.0000
   54CHL1   H2B 3971   2.859   0.833   7.093  0.8233  1.1135 -1.6219
   54CHL1   C20 3972   2.871   0.884   8.062 -0.0352  0.3349 -0.2559
   54CHL1   H20 3973   2.917   0.789   8.096  0.5205  1.1119  1.2867
   54CHL1   C21 3974   2.724   0.871   8.033  0.3344  0.3867 -0.0035
   54CHL1  H21A 3975   2.692   0.783   7.973  1.3462 -1.0053  1.4139
   54CHL1  H21B 3976   2.677   0.965   7.997 -2.7546 -1.4473 -1.1568
   54CHL1  H21C 3977   2.668   0.857   8.128  0.6915 -1.2490 -0.0045
   54CHL1   C22 3978   2.889   0.970   8.193  0.0779 -0.4728 -0.1747
   54CHL1  H22A 3979   2.993   1.008   8.205 -0.4147  1.3708 -1.3866
   54CHL1  H22B 3980   2.821   1.056   8.183 -3.4544 -3.0503 -0.2814
   54CHL1   C23 3981   2.860   0.898   8.327  0.1989 -0.4295  0.2685
   54CHL1  H23A 3982   2.756   0.860   8.318  0.1229  0.0050 -0.8220
   54CHL1  H23B 3983   2.931   0.815   8.344  0.0398 -0.5164  0.5206
   54CHL1   C24 3984   2.857   1.008   8.440 -0.3551 -0.1968 -0.2745
   54CHL1  H24A 3985   2.951   0.995   8.498 -1.8566 -1.6111  1.9608
   54CHL1  H24B 3986   2.849   1.112   8.402 -0.4581 -0.7483 -1.8338
   54CHL1   C25 3987   2.742   0.980   8.540 -0.9257  0.7853 -0.0121
   54CHL1   H25 3988   2.742   0.869   8.550 -1.0275  0.4419 -3.0725
   54CHL1   C26 3989   2.778   1.041   8.678  0.0795  0.2563  0.3281
   54CHL1  H26A 3990   2.784   1.152   8.675 -2.3688  0.4490  0.4419
   54CHL1  H26B 3991   2.697   1.008   8.747  0.9389 -0.2858  1.0978
   54CHL1  H26C 3992   2.868   0.993   8.722 -1.1664 -1.0493  1.5695
   54CHL1   C27 3993   2.614   1.032   8.491  0.3329  0.3798  0.1536
   54CHL1  H27A 3994   2.525   1.006   8.552 -1.4828  1.2844 -1.9664
   54CHL1  H27B 3995   2.609   1.143   8.494  0.9244  0.4602 -1.1706
   54CHL1  H27C 3996   2.585   0.985   8.395  0.4021 -2.1691  1.3008
   55CHL1    C3 3997   1.153   2.059   6.872  0.6227 -0.2296 -0.2736
   55CHL1    H3 3998   1.241   2.096   6.928  0.0321  0.1520  0.4075
   55CHL1    O3 3999   1.179   2.013   6.733 -0.3254  0.7078  0.0787
   55CHL1   H3' 4000   1.155   1.920   6.734 -0.7770  0.8208 -0.3141
   55CHL1    C4 4001   1.090   1.938   6.946 -0.6853  0.1064  0.1893
   55CHL1   H4A 4002   0.993   1.914   6.897 -0.3696  1.3443 -1.1310
   55CHL1   H4B 4003   1.158   1.850   6.941  0.7117  1.1984 -0.3388
   55CHL1    C5 4004   1.057   1.984   7.083 -0.2881  0.3245  0.0198
   55CHL1    C6 4005   1.113   1.918   7.187  0.2269  0.0015  0.7032
   55CHL1    H6 4006   1.190   1.843   7.163 -0.5707 -1.4418  2.4077
   55CHL1    C7 4007   1.061   1.930   7.330 -0.1469 -0.6279 -0.4519
   55CHL1   H7A 4008   1.047   1.833   7.383 -0.4698 -1.0712 -1.3122
   55CHL1   H7B 4009   1.135   1.987   7.388 -0.5756 -2.2402  1.8081
   55CHL1    C8 4010   0.929   2.013   7.346  0.2889 -0.3949 -0.8688
   55CHL1    H8 4011   0.840   1.950   7.324 -0.9471  0.7253  0.6795
   55CHL1   C14 4012   0.906   2.062   7.491  0.1831  0.2976  0.0443
   55CHL1   H14 4013   0.990   2.128   7.520 -1.3097  1.1083  2.9861
   55CHL1   C15 4014   0.899   1.958   7.606  0.4538 -0.5448 -0.1035
   55CHL1  H15A 4015   0.837   1.868   7.586  1.1531 -1.7391  2.6298
   55CHL1  H15B 4016   1.004   1.926   7.620  1.5067  2.5734 -0.1669
   55CHL1   C16 4017   0.822   2.032   7.720  0.4111 -0.1512  0.1870
   55CHL1  H16A 4018   0.731   1.979   7.754  2.0278 -1.2289  3.1480
   55CHL1  H16B 4019   0.884   2.051   7.810 -2.0802 -3.4572  2.8167
   55CHL1   C17 4020   0.789   2.175   7.659  0.3565 -0.2369 -0.4963
   55CHL1   H17 4021   0.872   2.249   7.668  0.0680  0.2479 -1.6434
   55CHL1   C13 4022   0.785   2.155   7.506 -0.4718 -0.0500 -0.0399
   55CHL1   C18 4023   0.666   2.067   7.480  0.2791  0.0330 -0.2512
   55CHL1  H18A 4024   0.674   1.966   7.524  0.6297 -0.3216 -1.0984
   55CHL1  H18B 4025   0.570   2.113   7.512  0.0263 -1.6047  1.5457
   55CHL1  H18C 4026   0.660   2.035   7.373 -3.2936 -2.8292  0.6118
   55CHL1   C12 4027   0.803   2.272   7.408  0.2954 -1.0805 -0.1392
   55CHL1  H12A 4028   0.724   2.350   7.416  1.1620 -0.4284  4.8345
   55CHL1  H12B 4029   0.899   2.324   7.422 -0.2887  0.2237 -0.8058
   55CHL1   C11 4030   0.806   2.230   7.263 -0.1790  0.3330 -0.0622
   55CHL1  H11A 4031   0.709   2.196   7.222 -0.2741  1.5599 -0.9079
   55CHL1  H11B 4032   0.835   2.325   7.214  1.0128  0.0886  0.1325
   55CHL1    C9 4033   0.920   2.126   7.239 -0.9013  0.3825 -0.1320
   55CHL1    H9 4034   1.011   2.186   7.262  0.2280 -1.5998  0.8310
   55CHL1   C10 4035   0.939   2.089   7.088 -0.1459  0.0808  0.7706
   55CHL1   C19 4036   0.801   2.038   7.027 -0.1916 -0.1753  0.3495
   55CHL1  H19A 4037   0.756   1.953   7.082  1.2005 -0.9765  0.2933
   55CHL1  H19B 4038   0.733   2.126   7.023 -1.7289 -1.3604 -0.9934
   55CHL1  H19C 4039   0.823   2.001   6.925 -1.5775  0.3915 -0.1710
   55CHL1    C1 4040   0.991   2.209   7.008 -0.6619  0.5112  0.4899
   55CHL1   H1A 4041   0.914   2.284   6.982 -0.5364 -0.2708 -2.5213
   55CHL1   H1B 4042   1.074   2.257   7.064 -0.7512  1.2109  0.0333
   55CHL1    C2 4043   1.049   2.174   6.866 -0.9715 -0.0662 -0.0722
   55CHL1   H2A 4044   1.090   2.264   6.815 -1.4653 -0.2752 -0.8487
   55CHL1   H2B 4045   0.958   2.145   6.809 -1.8032  0.5729  0.8792
   55CHL1   C20 4046   0.671   2.240   7.738  0.2642 -0.2316 -0.3555
   55CHL1   H20 4047   0.589   2.166   7.755 -1.2154  1.6047  0.8389
   55CHL1   C21 4048   0.604   2.356   7.661 -0.8962 -0.0079 -0.4345
   55CHL1  H21A 4049   0.676   2.435   7.631  0.1162 -0.7499 -0.0327
   55CHL1  H21B 4050   0.534   2.402   7.734  1.1722  0.5423  1.3077
   55CHL1  H21C 4051   0.552   2.329   7.567 -0.8076 -2.5215  0.1653
   55CHL1   C22 4052   0.707   2.305   7.876  0.0325  0.5369  0.1136
   55CHL1  H22A 4053   0.789   2.252   7.929  0.3023 -1.2227 -1.9354
   55CHL1  H22B 4054   0.750   2.406   7.859 -0.3410  0.8165  0.7725
   55CHL1   C23 4055   0.592   2.315   7.977 -0.2312  0.3182  0.2460
   55CHL1  H23A 4056   0.515   2.394   7.960 -0.7701  0.0988  1.5437
   55CHL1  H23B 4057   0.542   2.216   7.973 -0.4612  0.4368  0.1985
   55CHL1   C24 4058   0.633   2.331   8.130 -0.1827  0.3210 -0.2472
   55CHL1  H24A 4059   0.735   2.291   8.147 -0.8169 -0.6880  1.4502
   55CHL1  H24B 4060   0.639   2.441   8.149 -1.5556  0.3831 -0.1045
   55CHL1   C25 4061   0.530   2.263   8.225 -0.9460  0.0182  0.5358
   55CHL1   H25 4062   0.531   2.155   8.197  1.8431 -0.1220  0.8918
   55CHL1   C26 4063   0.569   2.275   8.371  0.4038 -0.4666 -0.8532
   55CHL1  H26A 4064   0.485   2.237   8.433  0.0274  1.4662 -0.1119
   55CHL1  H26B 4065   0.664   2.227   8.404  0.6205  1.2660  1.2737
   55CHL1  H26C 4066   0.580   2.384   8.394  2.0510 -1.1681  2.2632
   55CHL1   C27 4067   0.392   2.320   8.202  0.1227 -0.2395  0.4650
   55CHL1  H27A 4068   0.323   2.252   8.255 -1.1917 -0.3960 -1.3436
   55CHL1  H27B 4069   0.385   2.423   8.244  2.7449  0.5081 -0.7146
   55CHL1  H27C 4070   0.358   2.319   8.096 -0.9087  0.8652  0.7594
   56CHL1    C3 4071   2.642   6.737   6.921 -0.1024 -0.7377 -0.0121
   56CHL1    H3 4072   2.556   6.666   6.924 -0.3900 -0.7585 -3.7427
   56CHL1    O3 4073   2.683   6.765   6.788  0.0921  0.3878 -0.3283
   56CHL1   H3' 4074   2.607   6.809   6.748 -1.8377  1.5551  3.9717
   56CHL1    C4 4075   2.611   6.869   6.995  0.0299 -0.5351  0.6478
   56CHL1   H4A 4076   2.695   6.941   6.998 -0.7173  0.3900  0.1219
   56CHL1   H4B 4077   2.536   6.932   6.941 -0.8458 -1.7927  0.3507
   56CHL1    C5 4078   2.557   6.846   7.133 -0.1886 -1.0863 -0.2234
   56CHL1    C6 4079   2.434   6.889   7.185 -0.6121 -0.2339  0.3555
   56CHL1    H6 4080   2.376   6.964   7.129  1.2285  0.0092 -1.3140
   56CHL1    C7 4081   2.400   6.878   7.332  0.0242  0.0258  0.7967
   56CHL1   H7A 4082   2.353   6.973   7.365 -0.0398 -0.6492  2.7826
   56CHL1   H7B 4083   2.321   6.803   7.350 -0.6572  1.1109  2.5241
   56CHL1    C8 4084   2.518   6.835   7.420 -0.8301  0.2467 -0.5924
   56CHL1    H8 4085   2.587   6.922   7.430 -0.3256 -0.4043  2.9287
   56CHL1   C14 4086   2.465   6.784   7.551  0.4319  0.8207 -0.3204
   56CHL1   H14 4087   2.399   6.696   7.532  0.1621  0.7504  0.8463
   56CHL1   C15 4088   2.393   6.891   7.641 -0.2826 -0.2847 -0.0705
   56CHL1  H15A 4089   2.455   6.982   7.641  2.7067 -2.1856 -0.8048
   56CHL1  H15B 4090   2.290   6.903   7.601 -0.3130 -1.5848 -0.4395
   56CHL1   C16 4091   2.395   6.824   7.785 -0.7046  0.3015 -0.0841
   56CHL1  H16A 4092   2.444   6.894   7.856 -1.5735 -1.4460  2.3782
   56CHL1  H16B 4093   2.296   6.790   7.821 -0.1101  0.1042  1.4333
   56CHL1   C17 4094   2.469   6.692   7.763 -0.3146  0.1517 -0.7511
   56CHL1   H17 4095   2.384   6.630   7.728 -1.8594  1.6888  0.0989
   56CHL1   C13 4096   2.562   6.715   7.642 -0.0670 -0.0084  0.2174
   56CHL1   C18 4097   2.675   6.812   7.685  0.8365  0.4360  0.5147
   56CHL1  H18A 4098   2.723   6.855   7.594 -1.1417  0.7019 -0.4693
   56CHL1  H18B 4099   2.641   6.900   7.743  0.8676 -0.5239  2.0383
   56CHL1  H18C 4100   2.754   6.757   7.740  0.3832  1.3175  2.1026
   56CHL1   C12 4101   2.629   6.595   7.580 -0.6703 -0.3723  0.8921
   56CHL1  H12A 4102   2.708   6.548   7.643  2.8134  2.0342 -1.2920
   56CHL1  H12B 4103   2.544   6.525   7.569 -0.2648 -0.8173  0.5568
   56CHL1   C11 4104   2.697   6.633   7.440  0.0733  0.5892 -0.1213
   56CHL1  H11A 4105   2.788   6.693   7.465  1.2289 -0.5937 -1.3344
   56CHL1  H11B 4106   2.715   6.533   7.395  1.0906  0.5638  0.3084
   56CHL1    C9 4107   2.598   6.716   7.356  0.0455 -0.0891  0.6782
   56CHL1    H9 4108   2.512   6.651   7.328 -0.0220 -0.2623  1.2669
   56CHL1   C10 4109   2.660   6.770   7.222  0.4280 -0.4579 -0.6444
   56CHL1   C19 4110   2.771   6.866   7.263 -0.7294  0.1988  0.5579
   56CHL1  H19A 4111   2.722   6.958   7.300 -0.9814  0.4204 -0.3282
   56CHL1  H19B 4112   2.840   6.840   7.347  1.4484  1.1165 -0.8364
   56CHL1  H19C 4113   2.834   6.895   7.176  1.0793  0.5760  1.9193
   56CHL1    C1 4114   2.727   6.654   7.144  0.1425 -0.0631 -0.1694
   56CHL1   H1A 4115   2.814   6.609   7.195  0.0682  0.2072  0.1983
   56CHL1   H1B 4116   2.646   6.577   7.150 -1.1561  1.3390  1.0548
   56CHL1    C2 4117   2.764   6.679   6.998  0.0338 -0.2351 -0.1081
   56CHL1   H2A 4118   2.784   6.577   6.958 -2.3224 -1.4289  1.4766
   56CHL1   H2B 4119   2.851   6.747   6.988 -1.2599  1.5474  0.3200
   56CHL1   C20 4120   2.532   6.611   7.889  0.4521 -0.1961  0.1110
   56CHL1   H20 4121   2.626   6.557   7.864  1.1771  1.1178 -0.1010
   56CHL1   C21 4122   2.429   6.503   7.927  0.1459 -0.0577  0.8332
   56CHL1  H21A 4123   2.333   6.552   7.953  0.7673  1.8601 -0.3095
   56CHL1  H21B 4124   2.467   6.438   8.009  0.3017  0.1606  0.9348
   56CHL1  H21C 4125   2.419   6.437   7.839 -0.2862 -1.7055  2.0527
   56CHL1   C22 4126   2.551   6.703   8.008 -0.6676 -0.8581 -0.0718
   56CHL1  H22A 4127   2.595   6.797   7.970 -2.1854 -0.9761 -2.3808
   56CHL1  H22B 4128   2.452   6.729   8.051 -0.5333  0.3434 -0.4725
   56CHL1   C23 4129   2.646   6.648   8.116  0.3886  0.0409 -0.2309
   56CHL1  H23A 4130   2.592   6.559   8.156 -0.3501 -0.4378 -2.1984
   56CHL1  H23B 4131   2.742   6.615   8.071  0.4464  0.6263 -0.5399
   56CHL1   C24 4132   2.681   6.763   8.225  0.0328 -0.0149  1.1381
   56CHL1  H24A 4133   2.757   6.830   8.178 -0.6691 -0.4465 -0.6783
   56CHL1  H24B 4134   2.597   6.829   8.255  1.6740  1.9024  1.8201
   56CHL1   C25 4135   2.738   6.716   8.358 -0.6939  0.0245 -0.2528
   56CHL1   H25 4136   2.757   6.808   8.416 -1.5657  1.4888 -2.1724
   56CHL1   C26 4137   2.640   6.632   8.441  1.0418  0.4106  0.3142
   56CHL1  H26A 4138   2.691   6.575   8.521 -0.4621 -0.8907  0.3892
   56CHL1  H26B 4139   2.594   6.547   8.386 -2.2493  1.1122  1.7056
   56CHL1  H26C 4140   2.567   6.704   8.484  0.7943 -0.3113  1.1125
   56CHL1   C27 4141   2.874   6.655   8.330  0.7098 -0.2451 -0.3227
   56CHL1  H27A 4142   2.932   6.636   8.422 -0.8085 -0.0566  0.7171
   56CHL1  H27B 4143   2.870   6.561   8.271 -0.6451 -0.6804  0.4206
   56CHL1  H27C 4144   2.927   6.735   8.273  0.3183  1.2808  1.3503
   57SAPC     N 4145   2.416   1.196  11.256  0.1906 -0.4074 -0.2498
   57SAPC   C12 4146   2.413   1.085  11.154 -0.0824 -0.1800  0.1356
   57SAPC  H12A 4147   2.337   1.111  11.082 -0.2293  2.7319  1.1972
   57SAPC  H12B 4148   2.378   1.001  11.213  2.4003 -0.8396  0.8048
   57SAPC   C13 4149   2.289   1.188  11.329  0.1964  0.5022 -0.4646
   57SAPC  H13A 4150   2.284   1.092  11.378  3.3929  0.1080 -0.6784
   57SAPC  H13B 4151   2.287   1.251  11.417 -0.4889  1.6690 -1.2812
   57SAPC  H13C 4152   2.203   1.213  11.269  0.0253 -0.2242 -0.5271
   57SAPC   C14 4153   2.520   1.193  11.360 -1.0410  0.2075 -0.6236
   57SAPC  H14A 4154   2.533   1.100  11.413 -0.7653  1.4376  1.5727
   57SAPC  H14B 4155   2.618   1.211  11.318 -1.1224  0.0716 -0.8809
   57SAPC  H14C 4156   2.506   1.277  11.426  0.4313  0.3855 -0.5104
   57SAPC   C15 4157   2.420   1.330  11.189  0.0498  0.6742  0.1519
   57SAPC  H15A 4158   2.361   1.354  11.102 -0.6448  2.5824  1.1046
   57SAPC  H15B 4159   2.388   1.406  11.258  1.0519  0.6000  0.7200
   57SAPC  H15C 4160   2.522   1.336  11.153 -0.7238  2.4679 -1.9639
   57SAPC   C11 4161   2.545   1.058  11.080 -0.0423  0.2808  0.1657
   57SAPC  H11A 4162   2.550   0.958  11.032 -2.0108  0.4057 -0.3985
   57SAPC  H11B 4163   2.636   1.047  11.143  0.2562 -1.7364 -0.5658
   57SAPC     P 4164   2.482   1.173  10.855  0.3393 -0.3956 -0.0763
   57SAPC   O13 4165   2.338   1.194  10.883 -0.1500  0.5607 -0.1092
   57SAPC   O14 4166   2.554   1.274  10.771 -0.2129 -0.2242  0.7629
   57SAPC   O12 4167   2.570   1.154  10.979 -0.3995 -0.0037 -0.5129
   57SAPC   O11 4168   2.491   1.038  10.789  0.0233 -0.2263 -0.1789
   57SAPC    C1 4169   2.602   0.949  10.768  0.2442  0.0207  0.0798
   57SAPC    HA 4170   2.689   0.984  10.829 -1.3850  0.1098  2.4721
   57SAPC    HB 4171   2.570   0.853  10.814  1.0473  0.2920  1.2521
   57SAPC    C2 4172   2.632   0.921  10.615 -0.2454  0.6823  0.4549
   57SAPC    HS 4173   2.716   0.849  10.605 -1.0418 -0.0363 -1.6616
   57SAPC   O21 4174   2.638   1.049  10.542  0.3981 -0.6732  0.1420
   57SAPC   C21 4175   2.761   1.102  10.557 -0.3835  0.5939 -1.0545
   57SAPC   O22 4176   2.857   1.061  10.627 -0.2503 -0.7394 -0.2485
   57SAPC   C22 4177   2.782   1.222  10.468 -0.5395 -0.0620 -0.0904
   57SAPC   H2R 4178   2.684   1.240  10.420 -0.7055  0.3753  0.3917
   57SAPC   H2S 4179   2.813   1.310  10.529 -1.0551 -1.3352  2.1387
   57SAPC    C3 4180   2.508   0.840  10.550  0.5332 -0.5176 -0.4695
   57SAPC    HX 4181   2.423   0.911  10.552 -0.6662 -1.9128  0.1621
   57SAPC    HY 4182   2.479   0.756  10.618  1.7273  0.5067  1.3753
   57SAPC   O31 4183   2.527   0.800  10.412 -0.4455 -0.0818 -0.4560
   57SAPC   C31 4184   2.443   0.702  10.370  0.0806  0.2978  0.5927
   57SAPC   O32 4185   2.344   0.662  10.429  0.3422 -0.1968  0.0915
   57SAPC   C32 4186   2.477   0.662  10.224  0.1834 -0.6202 -0.2075
   57SAPC   H2X 4187   2.501   0.554  10.220 -2.3821 -1.3862  2.0543
   57SAPC   H2Y 4188   2.554   0.733  10.187 -2.6290  1.6421 -2.2806
   57SAPC   C23 4189   2.882   1.200  10.354 -0.0195  0.2878 -0.4963
   57SAPC   H3R 4190   2.960   1.124  10.373 -0.3565 -0.1812 -0.9559
   57SAPC   H3S 4191   2.926   1.302  10.346 -2.2161  1.2390 -1.3974
   57SAPC   C24 4192   2.820   1.178  10.213  0.7442  0.2335 -0.1076
   57SAPC   H4R 4193   2.905   1.193  10.144  1.3303  2.7953  1.0562
   57SAPC   H4S 4194   2.746   1.259  10.200  1.4238  0.6440 -1.6037
   57SAPC   C25 4195   2.749   1.044  10.205  0.2139 -0.7128 -0.3098
   57SAPC   H5R 4196   2.663   1.037  10.274  0.2852 -0.2590 -0.1735
   57SAPC   C26 4197   2.749   0.970  10.094  0.1209  0.3977  0.7550
   57SAPC   H6R 4198   2.697   0.875  10.113 -0.5281  0.8203  1.1327
   57SAPC   C27 4199   2.810   0.996   9.954 -0.0209  0.0280 -0.1331
   57SAPC   H7R 4200   2.902   1.057   9.972  0.8542 -1.3543  0.2486
   57SAPC   H7S 4201   2.738   1.050   9.889  1.2838  0.7318 -1.0547
   57SAPC   C28 4202   2.862   0.877   9.875  0.6658  0.1086 -0.1769
   57SAPC   H8R 4203   2.952   0.823   9.908 -0.5979 -1.4254  0.9102
   57SAPC   C29 4204   2.808   0.833   9.765  0.6801  0.7219 -0.6126
   57SAPC   H9R 4205   2.858   0.738   9.739 -2.0991 -1.1441  0.3676
   57SAPC  C210 4206   2.696   0.884   9.691  0.0006  0.8909  0.5719
   57SAPC  H10R 4207   2.725   0.979   9.642  0.0255  0.8363  0.4784
   57SAPC  H10S 4208   2.622   0.919   9.765 -1.9201  1.4945 -1.5141
   57SAPC  C211 4209   2.617   0.801   9.599 -0.2023 -0.9622 -0.5533
   57SAPC  H11R 4210   2.522   0.766   9.642  0.6892  0.4790  2.9098
   57SAPC  C212 4211   2.647   0.758   9.475 -0.0120  0.3415  0.3709
   57SAPC  H12R 4212   2.573   0.696   9.423  0.4363 -0.9811  1.2412
   57SAPC  C213 4213   2.778   0.777   9.404  0.2252 -0.0369 -0.9657
   57SAPC  H13R 4214   2.838   0.858   9.451 -2.3891  0.9994  0.7931
   57SAPC  H13S 4215   2.750   0.815   9.304  0.2972  2.3041 -0.1564
   57SAPC  C214 4216   2.861   0.657   9.384  0.1835 -0.5889 -0.0319
   57SAPC  H14R 4217   2.895   0.609   9.477  2.3009  2.7755  1.1179
   57SAPC  C215 4218   2.880   0.603   9.266 -0.5431  0.5001 -0.7636
   57SAPC  H15R 4219   2.943   0.513   9.266 -1.2223  0.0037  0.4600
   57SAPC  C216 4220   2.843   0.648   9.124  0.1161  0.0263 -0.4740
   57SAPC  H16R 4221   2.815   0.755   9.129 -1.6041 -0.2211 -3.0768
   57SAPC  H16S 4222   2.751   0.593   9.093 -0.3289 -0.3677  1.4227
   57SAPC  C217 4223   2.951   0.646   9.015 -0.1684  0.5242 -0.3171
   57SAPC  H17R 4224   2.992   0.543   9.006  0.8623  0.9037 -0.0416
   57SAPC  H17S 4225   3.036   0.702   9.058  0.7649 -1.3244  0.3752
   57SAPC  C218 4226   2.911   0.700   8.877  0.1701 -0.4335 -0.4886
   57SAPC  H18R 4227   3.005   0.715   8.820  2.1405 -0.2959  2.5619
   57SAPC  H18S 4228   2.861   0.797   8.898  0.5556 -0.2548 -0.3821
   57SAPC  C219 4229   2.800   0.625   8.805  0.8227  0.2632 -0.2188
   57SAPC  H19R 4230   2.764   0.688   8.721 -1.0170 -0.2253  0.1670
   57SAPC  H19S 4231   2.714   0.611   8.874  0.1026  0.4423 -1.0653
   57SAPC  C220 4232   2.850   0.487   8.762 -0.2066  0.3420  0.0725
   57SAPC  H20R 4233   2.793   0.438   8.680 -1.8717  2.1110  0.0935
   57SAPC  H20S 4234   2.842   0.420   8.850  2.2759 -0.8128 -0.4831
   57SAPC  H20T 4235   2.957   0.494   8.733 -0.7974  1.0324 -2.0927
   57SAPC   C33 4236   2.351   0.682  10.134  0.6143 -0.5946 -0.5514
   57SAPC   H3X 4237   2.321   0.789  10.139 -1.3029 -1.1634  2.1928
   57SAPC   H3Y 4238   2.265   0.616  10.159  1.0494 -1.7392 -1.9265
   57SAPC   C34 4239   2.364   0.668   9.983 -0.7706  0.6177  0.2694
   57SAPC   H4X 4240   2.461   0.704   9.942 -0.9626  1.0317  0.1710
   57SAPC   H4Y 4241   2.277   0.724   9.942  0.3347  0.8966 -1.8372
   57SAPC   C35 4242   2.338   0.528   9.931 -0.5173  0.4558 -0.4093
   57SAPC   H5X 4243   2.240   0.497   9.974 -0.9859 -1.6150 -2.7124
   57SAPC   H5Y 4244   2.418   0.457   9.961 -1.1865  0.2251  0.9018
   57SAPC   C36 4245   2.326   0.527   9.773  0.2276  0.6626 -0.4170
   57SAPC   H6X 4246   2.426   0.559   9.737 -0.7592  1.7058 -2.4310
   57SAPC   H6Y 4247   2.253   0.605   9.741  1.0325  1.8214  0.4879
   57SAPC   C37 4248   2.294   0.386   9.707  0.0717 -0.5423 -0.0062
   57SAPC   H7X 4249   2.195   0.372   9.754 -0.8365  1.7607 -1.0757
   57SAPC   H7Y 4250   2.365   0.314   9.753 -1.1698 -1.0155  1.2381
   57SAPC   C38 4251   2.284   0.392   9.555  0.2402 -0.5006 -0.4085
   57SAPC   H8X 4252   2.206   0.458   9.511 -0.6063 -0.6355  0.8412
   57SAPC   H8Y 4253   2.252   0.288   9.528 -1.8085 -0.0822  0.2185
   57SAPC   C39 4254   2.416   0.417   9.480  0.0853  0.4448  0.6451
   57SAPC   H9X 4255   2.501   0.354   9.515  0.3300 -0.3979 -1.3386
   57SAPC   H9Y 4256   2.445   0.524   9.492 -0.2424  0.4781  1.1548
   57SAPC  C310 4257   2.379   0.379   9.333 -0.0015 -0.3731 -0.4817
   57SAPC  H10X 4258   2.300   0.451   9.304 -0.4073 -1.4247 -2.1981
   57SAPC  H10Y 4259   2.339   0.275   9.333 -1.0289 -0.0877  2.6245
   57SAPC  C311 4260   2.499   0.385   9.235  0.1235  0.3378  0.4640
   57SAPC  H11X 4261   2.585   0.329   9.278 -0.1133 -0.0839  0.3914
   57SAPC  H11Y 4262   2.527   0.492   9.235 -3.3914  1.4193 -1.0650
   57SAPC  C312 4263   2.463   0.320   9.097 -0.3594  0.1372  0.4491
   57SAPC  H12X 4264   2.365   0.359   9.062  0.2726  1.9637  0.6228
   57SAPC  H12Y 4265   2.455   0.210   9.113  0.9012 -0.3488 -1.7714
   57SAPC  C313 4266   2.579   0.331   8.989 -0.2083 -0.1544  0.0139
   57SAPC  H13X 4267   2.673   0.290   9.032  0.7731  0.6196 -1.3082
   57SAPC  H13Y 4268   2.591   0.441   8.978 -0.4955 -0.1612 -0.3865
   57SAPC  C314 4269   2.557   0.258   8.858  0.0588  0.3669  0.0671
   57SAPC  H14X 4270   2.555   0.149   8.875 -1.8117  0.6865  2.3991
   57SAPC  H14Y 4271   2.631   0.283   8.779 -0.5128 -1.1623 -1.0055
   57SAPC  C315 4272   2.415   0.281   8.794  0.5652 -0.5054  0.1751
   57SAPC  H15X 4273   2.382   0.388   8.797  1.6804 -0.1490  0.0092
   57SAPC  H15Y 4274   2.341   0.233   8.861  0.4756  1.9376  1.9844
   57SAPC  C316 4275   2.391   0.231   8.649  0.2613 -0.8415  1.0333
   57SAPC  H16X 4276   2.435   0.130   8.634  2.2726  0.4013 -3.2756
   57SAPC  H16Y 4277   2.455   0.302   8.591 -1.4662  0.1464  0.2383
   57SAPC  C317 4278   2.245   0.246   8.610  0.6000 -0.2407  0.2926
   57SAPC  H17X 4279   2.186   0.313   8.676  0.2088 -0.2410 -0.0511
   57SAPC  H17Y 4280   2.189   0.152   8.629  1.2434 -0.8297 -0.6292
   57SAPC  C318 4281   2.229   0.271   8.458 -0.5961  0.0532  0.3733
   57SAPC  H18X 4282   2.122   0.264   8.430 -1.6373  0.7498  3.6903
   57SAPC  H18Y 4283   2.287   0.189   8.410  2.4201  1.6716  0.9662
   57SAPC  H18Z 4284   2.277   0.367   8.427  2.2699 -0.8970  1.5227
   58SAPC     N 4285   5.757   6.131  10.868  0.1009  0.6794  0.6318
   58SAPC   C12 4286   5.653   6.245  10.886 -0.6000 -0.8587  0.2045
   58SAPC  H12A 4287   5.566   6.202  10.932 -0.3532 -2.2820 -0.5817
   58SAPC  H12B 4288   5.624   6.267  10.784 -1.8224 -0.5677  0.6076
   58SAPC   C13 4289   5.682   6.005  10.826 -0.1224  0.4259 -0.5149
   58SAPC  H13A 4290   5.621   5.967  10.906  0.8674 -2.1964 -0.9038
   58SAPC  H13B 4291   5.610   6.015  10.746 -2.7387 -2.2984  1.2717
   58SAPC  H13C 4292   5.755   5.931  10.795  0.2563  0.8509 -0.6524
   58SAPC   C14 4293   5.846   6.169  10.755 -0.6681 -0.4718  0.5897
   58SAPC  H14A 4294   5.796   6.188  10.661  0.1135 -1.3563 -0.0261
   58SAPC  H14B 4295   5.901   6.256  10.787 -1.1110  1.0257 -2.4401
   58SAPC  H14C 4296   5.923   6.094  10.740  0.8125  1.4220 -2.0257
   58SAPC   C15 4297   5.827   6.105  10.997  0.0615 -0.3328 -0.1737
   58SAPC  H15A 4298   5.882   6.193  11.027 -1.3839  0.2141  0.9849
   58SAPC  H15B 4299   5.764   6.089  11.084 -0.0256  0.3489 -0.1121
   58SAPC  H15C 4300   5.897   6.025  10.978  0.2686  0.4596 -3.3441
   58SAPC   C11 4301   5.693   6.385  10.941  1.0913  0.2510  0.2569
   58SAPC  H11A 4302   5.718   6.378  11.049 -1.8361  0.8023  1.0778
   58SAPC  H11B 4303   5.597   6.441  10.940 -1.2687 -3.3837 -1.2842
   58SAPC     P 4304   5.855   6.576  10.923  0.0025 -0.2218  0.2101
   58SAPC   O13 4305   5.774   6.645  11.019  0.5512  0.1079 -0.4977
   58SAPC   O14 4306   5.993   6.540  10.960 -0.5764  0.5488  0.8279
   58SAPC   O12 4307   5.794   6.450  10.863  1.1571  0.1327  0.0043
   58SAPC   O11 4308   5.861   6.672  10.804  0.2123  0.2772  0.4192
   58SAPC    C1 4309   5.808   6.646  10.672  0.5613 -0.3891  0.2138
   58SAPC    HA 4310   5.735   6.562  10.673 -0.7025  0.6749  1.1976
   58SAPC    HB 4311   5.743   6.734  10.650  0.2066 -0.0619  2.3285
   58SAPC    C2 4312   5.936   6.623  10.578 -0.3123  0.0074  0.6136
   58SAPC    HS 4313   6.014   6.696  10.609 -0.2883  0.5248 -0.6011
   58SAPC   O21 4314   5.893   6.644  10.437  0.1047  0.0195 -0.1024
   58SAPC   C21 4315   5.874   6.765  10.410 -0.0114 -0.0768  0.2652
   58SAPC   O22 4316   5.896   6.862  10.484  0.1758  0.0104  0.3689
   58SAPC   C22 4317   5.809   6.793  10.275  0.0256  0.1697  0.7245
   58SAPC   H2R 4318   5.847   6.883  10.221  0.1691 -0.9593 -1.1285
   58SAPC   H2S 4319   5.843   6.709  10.210 -0.6480  1.3734 -1.2591
   58SAPC    C3 4320   5.987   6.478  10.587 -0.0327  0.0068 -0.2469
   58SAPC    HX 4321   5.909   6.416  10.538 -1.1471  0.1891  1.2208
   58SAPC    HY 4322   5.994   6.453  10.695 -1.8025 -3.1371 -0.7461
   58SAPC   O31 4323   6.114   6.456  10.525 -0.2331 -0.5330 -0.1259
   58SAPC   C31 4324   6.142   6.333  10.484 -0.1747 -0.3595  0.1427
   58SAPC   O32 4325   6.067   6.241  10.472  0.5988  0.0229 -0.0371
   58SAPC   C32 4326   6.293   6.334  10.450 -0.3997 -0.3276  0.5162
   58SAPC   H2X 4327   6.346   6.318  10.547  2.9816  1.7443 -0.8242
   58SAPC   H2Y 4328   6.333   6.434  10.424  1.8395 -1.5824 -1.1283
   58SAPC   C23 4329   5.655   6.802  10.273  0.0245 -0.6151 -0.5373
   58SAPC   H3R 4330   5.633   6.907  10.304  2.4138  0.5077 -2.2989
   58SAPC   H3S 4331   5.624   6.723  10.344  2.9390 -0.7600  0.6952
   58SAPC   C24 4332   5.593   6.769  10.141 -0.3565 -1.2057 -0.7681
   58SAPC   H4R 4333   5.485   6.748  10.159 -0.3382  0.0604  1.0718
   58SAPC   H4S 4334   5.647   6.675  10.115  0.3383 -1.5928  1.7967
   58SAPC   C25 4335   5.609   6.888  10.047 -0.4794 -0.1418 -0.3399
   58SAPC   H5R 4336   5.637   6.987  10.085  1.1893 -0.2955 -1.0744
   58SAPC   C26 4337   5.603   6.878   9.915 -0.9971 -0.5231 -0.2822
   58SAPC   H6R 4338   5.631   6.962   9.849 -0.8110 -1.6368 -1.6811
   58SAPC   C27 4339   5.566   6.754   9.833 -0.2643  0.0086  0.5944
   58SAPC   H7R 4340   5.490   6.787   9.759  2.6188  0.2689 -2.4935
   58SAPC   H7S 4341   5.524   6.681   9.906  0.4455 -0.5837  0.4195
   58SAPC   C28 4342   5.688   6.704   9.763  0.0576 -0.0211 -0.6183
   58SAPC   H8R 4343   5.764   6.647   9.818  1.4315 -0.9380 -3.3014
   58SAPC   C29 4344   5.723   6.726   9.631  0.5554 -0.2157 -0.3941
   58SAPC   H9R 4345   5.823   6.693   9.600  1.2210  2.8211 -1.7878
   58SAPC  C210 4346   5.643   6.810   9.535  0.4106 -0.5292 -0.7848
   58SAPC  H10R 4347   5.721   6.876   9.492  1.0419  0.5874  1.8844
   58SAPC  H10S 4348   5.577   6.881   9.590  0.2781 -0.8368 -0.5421
   58SAPC  C211 4349   5.567   6.735   9.429 -0.0092  0.1899 -0.2654
   58SAPC  H11R 4350   5.458   6.746   9.419 -0.2185  0.6490  1.9038
   58SAPC  C212 4351   5.624   6.672   9.319  0.7982  0.5328 -0.7956
   58SAPC  H12R 4352   5.555   6.638   9.240 -0.8523  1.9785 -0.0483
   58SAPC  C213 4353   5.772   6.660   9.282  0.5796  0.8712 -0.4990
   58SAPC  H13R 4354   5.835   6.722   9.349 -0.5849  0.0659  1.4394
   58SAPC  H13S 4355   5.785   6.697   9.178 -1.2455  0.3168 -0.9627
   58SAPC  C214 4356   5.816   6.519   9.296 -0.3653 -0.4595  0.1813
   58SAPC  H14R 4357   5.811   6.482   9.399  1.8171 -1.8903 -0.1717
   58SAPC  C215 4358   5.859   6.439   9.197 -0.1603  0.3830  0.3341
   58SAPC  H15R 4359   5.900   6.340   9.223  1.0871  0.5400 -0.9501
   58SAPC  C216 4360   5.881   6.473   9.050 -0.2904 -0.2940  0.4274
   58SAPC  H16R 4361   5.898   6.581   9.031  0.1201 -0.4123  0.0959
   58SAPC  H16S 4362   5.798   6.433   8.987 -1.2243 -0.1180  1.5232
   58SAPC  C217 4363   6.011   6.415   8.981  0.1727  0.8294 -0.2638
   58SAPC  H17R 4364   6.010   6.304   8.986  2.2843  0.8066  1.1391
   58SAPC  H17S 4365   6.100   6.456   9.034  1.3676  0.4139 -1.8996
   58SAPC  C218 4366   6.026   6.450   8.835 -0.6210 -0.0594  0.3739
   58SAPC  H18R 4367   6.064   6.553   8.826 -0.7893  0.0225  0.5933
   58SAPC  H18S 4368   5.924   6.447   8.790 -1.0745  1.9219  1.1865
   58SAPC  C219 4369   6.114   6.347   8.762  0.2614  0.1564  0.0198
   58SAPC  H19R 4370   6.054   6.256   8.738  1.0454 -0.1430 -0.8619
   58SAPC  H19S 4371   6.190   6.306   8.832 -1.6265 -3.7102  0.0945
   58SAPC  C220 4372   6.176   6.403   8.638 -0.5280 -0.4530  0.1424
   58SAPC  H20R 4373   6.115   6.385   8.547 -0.2076 -3.5724  0.4196
   58SAPC  H20S 4374   6.272   6.353   8.613  0.5968 -0.0965  3.3445
   58SAPC  H20T 4375   6.204   6.510   8.634  0.9747 -0.8451 -0.5514
   58SAPC   C33 4376   6.339   6.227  10.351 -0.3360 -0.2562  0.7798
   58SAPC   H3X 4377   6.303   6.126  10.382  0.0155 -0.1291  1.6191
   58SAPC   H3Y 4378   6.448   6.205  10.350 -0.0715  0.9882  0.4397
   58SAPC   C34 4379   6.302   6.262  10.197 -0.6987  0.1866 -0.2317
   58SAPC   H4X 4380   6.360   6.355  10.181 -2.4058  1.1736 -1.0040
   58SAPC   H4Y 4381   6.195   6.290  10.201 -1.0113 -1.0297  0.4549
   58SAPC   C35 4382   6.333   6.158  10.097 -0.1093  0.1819  0.1258
   58SAPC   H5X 4383   6.301   6.053  10.118  0.8758  0.2321  2.0233
   58SAPC   H5Y 4384   6.442   6.136  10.092 -0.5724 -2.1860 -2.0886
   58SAPC   C36 4385   6.286   6.194   9.948  0.1540  0.3846  0.1397
   58SAPC   H6X 4386   6.320   6.297   9.925  1.0564 -0.3245 -1.9372
   58SAPC   H6Y 4387   6.175   6.194   9.951  0.1562  1.3160  2.1925
   58SAPC   C37 4388   6.339   6.093   9.839  0.5265 -0.4087 -0.1658
   58SAPC   H7X 4389   6.312   5.992   9.874  1.1113 -0.2035  0.8900
   58SAPC   H7Y 4390   6.442   6.132   9.825 -0.0204  1.7921  1.3021
   58SAPC   C38 4391   6.269   6.117   9.706  0.2066  0.0801 -0.1127
   58SAPC   H8X 4392   6.268   6.227   9.693  1.4956  0.3582  1.7031
   58SAPC   H8Y 4393   6.169   6.069   9.714  0.2255  0.1207  0.4437
   58SAPC   C39 4394   6.337   6.048   9.587 -0.2152  0.0236 -0.6042
   58SAPC   H9X 4395   6.346   5.940   9.612 -1.9654  0.2533  1.2740
   58SAPC   H9Y 4396   6.439   6.087   9.572  0.6841 -0.6377  2.7751
   58SAPC  C310 4397   6.261   6.066   9.456 -0.8127 -0.4143 -0.5097
   58SAPC  H10X 4398   6.240   6.174   9.439 -2.0107 -0.4343  0.6657
   58SAPC  H10Y 4399   6.161   6.018   9.465 -1.3301  0.6896 -0.2548
   58SAPC  C311 4400   6.338   5.998   9.342  0.1156  0.6288  0.2215
   58SAPC  H11X 4401   6.358   5.892   9.366 -2.4303 -0.1378 -0.8176
   58SAPC  H11Y 4402   6.434   6.054   9.328  0.1553  0.8425  1.2686
   58SAPC  C312 4403   6.260   6.004   9.210  0.6917  0.1813  0.2756
   58SAPC  H12X 4404   6.251   6.109   9.174 -4.3581 -0.6398 -1.7209
   58SAPC  H12Y 4405   6.151   5.987   9.224 -0.5372  1.6863 -5.0898
   58SAPC  C313 4406   6.310   5.905   9.103  1.0642 -0.0936  1.1932
   58SAPC  H13X 4407   6.321   5.799   9.137 -0.3088 -0.8820 -0.6578
   58SAPC  H13Y 4408   6.404   5.950   9.065 -0.5880  2.2273 -0.4059
   58SAPC  C314 4409   6.220   5.907   8.973 -0.0578  0.5506  0.6294
   58SAPC  H14X 4410   6.209   6.012   8.939  2.4161  1.6573  2.8619
   58SAPC  H14Y 4411   6.124   5.870   9.016  0.3696 -1.0412  0.2820
   58SAPC  C315 4412   6.280   5.825   8.856 -0.3621 -0.0162 -0.2119
   58SAPC  H15X 4413   6.324   5.728   8.888  0.3682  0.6833  0.9869
   58SAPC  H15Y 4414   6.357   5.890   8.810 -1.2636  1.2995  0.0698
   58SAPC  C316 4415   6.178   5.790   8.741  0.5343  0.1165 -0.1791
   58SAPC  H16X 4416   6.134   5.887   8.709 -1.1469 -0.4749  0.2267
   58SAPC  H16Y 4417   6.103   5.718   8.780 -0.9761  2.0383  0.6963
   58SAPC  C317 4418   6.234   5.731   8.615 -0.3506 -0.6957  0.2050
   58SAPC  H17X 4419   6.305   5.804   8.571  0.6616 -1.4299  0.5933
   58SAPC  H17Y 4420   6.145   5.721   8.549 -0.4356  0.3511  0.1413
   58SAPC  C318 4421   6.306   5.599   8.643  0.1827 -0.1032 -0.4203
   58SAPC  H18X 4422   6.244   5.534   8.708 -1.3383 -0.5010 -2.1707
   58SAPC  H18Y 4423   6.402   5.627   8.692  0.1297 -0.0681 -0.3390
   58SAPC  H18Z 4424   6.322   5.551   8.544  1.2594  0.9475 -0.7823
   59SAPC     N 4425   5.370   0.126  11.213 -0.7242  0.6223 -0.1197
   59SAPC   C12 4426   5.291   0.089  11.087  0.3631  0.0255  0.2723
   59SAPC  H12A 4427   5.195   0.048  11.114  0.3244  0.6820  1.1606
   59SAPC  H12B 4428   5.337   0.006  11.035 -0.7467 -0.9068  0.7638
   59SAPC   C13 4429   5.505   0.186  11.181  0.0214  0.2491  0.2776
   59SAPC  H13A 4430   5.574   0.109  11.150 -1.4900 -0.6171 -1.1049
   59SAPC  H13B 4431   5.494   0.250  11.095  1.1773 -0.3951 -0.3723
   59SAPC  H13C 4432   5.557   0.234  11.262 -1.9785  2.0331  0.6028
   59SAPC   C14 4433   5.296   0.220  11.302  0.4659  0.5762  0.0985
   59SAPC  H14A 4434   5.192   0.198  11.317  0.8610 -1.2290  0.3418
   59SAPC  H14B 4435   5.330   0.227  11.405 -1.5233 -0.8271  0.9086
   59SAPC  H14C 4436   5.301   0.319  11.258 -1.7711  0.7331  0.0976
   59SAPC   C15 4437   5.396  -0.001  11.284 -1.1733 -0.3259 -0.3803
   59SAPC  H15A 4438   5.308  -0.036  11.336  0.4880  0.3855  3.1973
   59SAPC  H15B 4439   5.436  -0.075  11.216  0.4287 -0.2411  0.4215
   59SAPC  H15C 4440   5.478   0.013  11.353 -1.9440  1.7219  0.1864
   59SAPC   C11 4441   5.269   0.210  10.991  0.0699 -0.3160  0.2967
   59SAPC  H11A 4442   5.191   0.169  10.923 -0.9845 -0.9013  1.8079
   59SAPC  H11B 4443   5.357   0.227  10.926 -0.1304  0.1670  0.1477
   59SAPC     P 4444   5.075   0.365  11.077  0.3894 -0.0872 -0.1420
   59SAPC   O13 4445   5.019   0.276  11.176 -0.1191 -0.0157  0.6225
   59SAPC   O14 4446   5.051   0.510  11.092 -0.1651 -0.0763  0.6971
   59SAPC   O12 4447   5.231   0.330  11.059  0.6219  0.5908 -0.1641
   59SAPC   O11 4448   5.013   0.323  10.939 -0.0321  0.9263  0.7565
   59SAPC    C1 4449   5.056   0.383  10.816 -0.0618  0.3348 -0.2856
   59SAPC    HA 4450   5.161   0.416  10.827  1.2115 -2.9901 -1.3990
   59SAPC    HB 4451   5.062   0.309  10.734  0.7045 -0.5588  0.5544
   59SAPC    C2 4452   4.959   0.490  10.756  0.0695  0.2962 -0.6506
   59SAPC    HS 4453   4.945   0.558  10.843 -1.6587 -0.8136 -0.0142
   59SAPC   O21 4454   4.848   0.418  10.701 -0.4380  0.7845  0.2497
   59SAPC   C21 4455   4.749   0.403  10.779  0.7476  0.7692 -0.1886
   59SAPC   O22 4456   4.724   0.455  10.884  0.0523 -0.2177  0.4662
   59SAPC   C22 4457   4.650   0.303  10.713  0.1665  0.0287 -1.1957
   59SAPC   H2R 4458   4.566   0.371  10.690 -0.8474 -1.3801 -1.8463
   59SAPC   H2S 4459   4.704   0.261  10.626 -1.3310 -1.4375 -1.4777
   59SAPC    C3 4460   5.038   0.557  10.643  0.3427  0.0531  0.5410
   59SAPC    HX 4461   5.092   0.477  10.587 -0.4104 -1.5740  2.0434
   59SAPC    HY 4462   5.125   0.609  10.687  2.3208 -2.3268 -0.2857
   59SAPC   O31 4463   4.953   0.644  10.562 -0.5580 -0.1731  0.1051
   59SAPC   C31 4464   4.915   0.596  10.443 -0.0719 -0.4116  0.0802
   59SAPC   O32 4465   4.960   0.504  10.380  0.0176 -0.3955 -0.2607
   59SAPC   C32 4466   4.803   0.685  10.393  0.5109 -0.2214 -0.5124
   59SAPC   H2X 4467   4.828   0.792  10.379 -1.0427  0.5152  1.8464
   59SAPC   H2Y 4468   4.732   0.682  10.478  2.0085  3.7192  1.0713
   59SAPC   C23 4469   4.593   0.182  10.792 -0.1502  0.0542 -0.3041
   59SAPC   H3R 4470   4.544   0.224  10.883  0.7102  3.0226 -1.0978
   59SAPC   H3S 4471   4.682   0.125  10.826 -0.0262 -0.3105 -1.2126
   59SAPC   C24 4472   4.498   0.104  10.701  0.6888  0.0947  0.1139
   59SAPC   H4R 4473   4.463   0.014  10.757  0.0239  0.0080 -0.4229
   59SAPC   H4S 4474   4.556   0.068  10.613  0.1251  1.2825 -0.7686
   59SAPC   C25 4475   4.381   0.188  10.659 -0.4958 -0.3674  0.2245
   59SAPC   H5R 4476   4.290   0.176  10.720 -0.7432  1.5804  0.3029
   59SAPC   C26 4477   4.358   0.245  10.534 -0.4555 -0.6084  0.3220
   59SAPC   H6R 4478   4.265   0.302  10.519 -0.1463  0.5941  2.5372
   59SAPC   C27 4479   4.456   0.249  10.419  0.0056  0.3510  0.2920
   59SAPC   H7R 4480   4.436   0.157  10.360 -0.5335  0.5352  0.1805
   59SAPC   H7S 4481   4.561   0.245  10.456  0.4831 -0.1924 -1.0741
   59SAPC   C28 4482   4.440   0.382  10.354  0.2549 -0.2284  1.2011
   59SAPC   H8R 4483   4.506   0.460  10.394  3.1642 -0.8049 -1.9888
   59SAPC   C29 4484   4.365   0.407  10.241 -0.0518 -0.2556 -0.5719
   59SAPC   H9R 4485   4.364   0.512  10.209  3.0464 -0.0248 -0.2550
   59SAPC  C210 4486   4.281   0.305  10.168 -0.3896  0.8814  0.5021
   59SAPC  H10R 4487   4.198   0.350  10.110 -1.4208 -2.8379 -1.2155
   59SAPC  H10S 4488   4.233   0.238  10.243  1.2506  0.1767  0.9654
   59SAPC  C211 4489   4.352   0.208  10.078 -0.3701  0.2774 -0.2238
   59SAPC  H11R 4490   4.441   0.165  10.125 -1.2298 -0.3200  0.8968
   59SAPC  C212 4491   4.318   0.176   9.951 -0.0891 -0.1473  0.1664
   59SAPC  H12R 4492   4.379   0.096   9.907 -0.0984 -0.6304  1.0004
   59SAPC  C213 4493   4.203   0.218   9.865  0.0251 -0.7728  0.2128
   59SAPC  H13R 4494   4.115   0.235   9.931  1.0332  1.5268  1.0720
   59SAPC  H13S 4495   4.170   0.139   9.795 -0.1369 -0.0852 -0.5018
   59SAPC  C214 4496   4.234   0.342   9.784 -0.3517  0.0586  0.6604
   59SAPC  H14R 4497   4.235   0.432   9.847  2.8164 -0.5570  1.6519
   59SAPC  C215 4498   4.281   0.354   9.654  0.2801  0.3072 -0.1693
   59SAPC  H15R 4499   4.279   0.452   9.604 -0.6121  1.2433  1.6022
   59SAPC  C216 4500   4.304   0.232   9.562  0.3847 -0.4382  0.2723
   59SAPC  H16R 4501   4.302   0.132   9.610  1.3905 -0.9824 -0.7681
   59SAPC  H16S 4502   4.406   0.250   9.523  0.8166 -1.3208  0.9847
   59SAPC  C217 4503   4.227   0.228   9.432 -0.2793  0.4184  0.5014
   59SAPC  H17R 4504   4.260   0.309   9.364  1.3780  0.0370  0.7952
   59SAPC  H17S 4505   4.119   0.239   9.454 -0.0420 -0.7153  2.4541
   59SAPC  C218 4506   4.248   0.087   9.364 -0.2551 -0.6052  0.3375
   59SAPC  H18R 4507   4.202   0.003   9.420 -0.2847 -1.7307 -1.2924
   59SAPC  H18S 4508   4.358   0.076   9.369 -0.1108  0.7664  0.3976
   59SAPC  C219 4509   4.198   0.082   9.222  0.9069 -0.3555 -0.5940
   59SAPC  H19R 4510   4.088   0.089   9.212  0.9816  0.8327 -0.6856
   59SAPC  H19S 4511   4.219  -0.022   9.187  0.3761 -0.9969  0.9152
   59SAPC  C220 4512   4.250   0.186   9.124 -0.0242 -0.0945  0.8594
   59SAPC  H20R 4513   4.216   0.173   9.019  0.8595  1.6848  0.3223
   59SAPC  H20S 4514   4.360   0.175   9.132 -0.0401 -1.0374  0.0739
   59SAPC  H20T 4515   4.229   0.283   9.173  1.6094 -0.0520  1.5282
   59SAPC   C33 4516   4.732   0.630  10.263  0.3279  0.2784 -0.3042
   59SAPC   H3X 4517   4.624   0.653  10.280  0.5531 -0.4505  2.4741
   59SAPC   H3Y 4518   4.737   0.519  10.258 -1.8065  0.1739 -2.6964
   59SAPC   C34 4519   4.786   0.695  10.135 -0.6920  1.7434 -0.0752
   59SAPC   H4X 4520   4.895   0.673  10.142 -1.2718 -1.3241  0.9194
   59SAPC   H4Y 4521   4.767   0.804  10.133 -1.6353  1.6290  1.6426
   59SAPC   C35 4522   4.732   0.644  10.006  0.0373 -0.0132  0.2480
   59SAPC   H5X 4523   4.621   0.656  10.003  0.1104  1.1257  1.3576
   59SAPC   H5Y 4524   4.765   0.541   9.979 -1.9483 -0.4449 -0.7292
   59SAPC   C36 4525   4.788   0.735   9.885  0.6130  0.1827  0.2802
   59SAPC   H6X 4526   4.899   0.738   9.884  0.8307 -2.8574 -2.5583
   59SAPC   H6Y 4527   4.755   0.840   9.896  2.0960  0.6241  0.7314
   59SAPC   C37 4528   4.751   0.680   9.753  0.2946 -0.3087  0.0465
   59SAPC   H7X 4529   4.640   0.679   9.740  0.3764  2.0973 -1.6899
   59SAPC   H7Y 4530   4.788   0.576   9.740  0.1408 -0.2865 -0.6081
   59SAPC   C38 4531   4.806   0.759   9.637 -0.4749 -0.5336 -0.6045
   59SAPC   H8X 4532   4.917   0.769   9.644 -0.1910 -2.7083 -1.4100
   59SAPC   H8Y 4533   4.767   0.863   9.630  1.9066  0.3856 -1.3024
   59SAPC   C39 4534   4.778   0.715   9.494  0.5949  0.5714 -0.1959
   59SAPC   H9X 4535   4.818   0.793   9.427 -0.5845 -1.9046 -4.1514
   59SAPC   H9Y 4536   4.667   0.704   9.491  0.2115  3.0162  1.6100
   59SAPC  C310 4537   4.853   0.586   9.455  0.5440 -0.7411 -0.0398
   59SAPC  H10X 4538   4.809   0.505   9.517  0.2735 -2.0214 -1.8405
   59SAPC  H10Y 4539   4.951   0.611   9.501 -1.0982  0.3407  3.2579
   59SAPC  C311 4540   4.862   0.555   9.306  0.3923 -0.1028  0.3429
   59SAPC  H11X 4541   4.934   0.471   9.296 -0.3125 -1.0413  2.4138
   59SAPC  H11Y 4542   4.910   0.639   9.252 -0.1009 -0.3571 -0.5127
   59SAPC  C312 4543   4.735   0.502   9.248  0.0123 -0.5277 -0.1899
   59SAPC  H12X 4544   4.656   0.580   9.257  0.4775 -0.2701  2.7537
   59SAPC  H12Y 4545   4.697   0.416   9.307 -2.1610 -0.3777 -1.2824
   59SAPC  C313 4546   4.739   0.456   9.103  0.1388  0.0725  0.0176
   59SAPC  H13X 4547   4.824   0.386   9.088 -2.5043 -2.5987 -5.7068
   59SAPC  H13Y 4548   4.752   0.543   9.035  0.6557  0.3513  0.4659
   59SAPC  C314 4549   4.610   0.389   9.057  0.4630  0.4134 -0.6348
   59SAPC  H14X 4550   4.522   0.457   9.052 -0.8143 -1.0823  0.6384
   59SAPC  H14Y 4551   4.577   0.306   9.123  1.9087  0.5524  0.3091
   59SAPC  C315 4552   4.614   0.330   8.917  0.0814  0.1347 -0.2473
   59SAPC  H15X 4553   4.523   0.269   8.897  0.5284 -0.7030  0.1838
   59SAPC  H15Y 4554   4.702   0.263   8.903  2.1974  2.8078 -0.5036
   59SAPC  C316 4555   4.649   0.429   8.797  0.9150  0.1970 -0.3801
   59SAPC  H16X 4556   4.644   0.379   8.698 -2.4684  1.6602 -1.0770
   59SAPC  H16Y 4557   4.745   0.481   8.820  0.9264 -0.8837  2.3307
   59SAPC  C317 4558   4.546   0.536   8.784  0.0970 -0.1336  0.2594
   59SAPC  H17X 4559   4.543   0.601   8.874  2.6272 -0.1629  0.4199
   59SAPC  H17Y 4560   4.447   0.486   8.774  0.3558 -1.1573  2.2951
   59SAPC  C318 4561   4.574   0.633   8.670  0.1494  0.6801  0.8603
   59SAPC  H18X 4562   4.674   0.677   8.692  0.2242  0.0028  1.9640
   59SAPC  H18Y 4563   4.503   0.719   8.662  0.2167  0.6717  0.1285
   59SAPC  H18Z 4564   4.573   0.580   8.573 -1.2815  2.0951  0.0604
   60SAPC     N 4565   2.133   5.228  11.219  0.0708 -0.3709  0.3275
   60SAPC   C12 4566   2.127   5.109  11.122  0.0589 -0.3866  0.0352
   60SAPC  H12A 4567   2.070   5.034  11.176 -1.9666  0.8984 -0.1986
   60SAPC  H12B 4568   2.224   5.065  11.104  1.4696  3.0195 -1.5644
   60SAPC   C13 4569   1.989   5.270  11.234  0.1369 -0.5752 -0.3673
   60SAPC  H13A 4570   1.976   5.342  11.314 -0.1426 -1.7152  0.6287
   60SAPC  H13B 4571   1.949   5.315  11.144  0.3918  0.6146  0.0963
   60SAPC  H13C 4572   1.917   5.200  11.272 -2.8137  2.2431 -0.3176
   60SAPC   C14 4573   2.191   5.172  11.343  1.0577 -0.2430  0.1483
   60SAPC  H14A 4574   2.132   5.085  11.372  0.9970 -0.1776  0.2216
   60SAPC  H14B 4575   2.298   5.157  11.338  1.2026  0.4697  0.9755
   60SAPC  H14C 4576   2.176   5.242  11.424  0.3969  0.8138 -0.8674
   60SAPC   C15 4577   2.215   5.339  11.165  0.1289  0.7214 -0.5807
   60SAPC  H15A 4578   2.215   5.422  11.235 -1.7149  2.4534 -2.4796
   60SAPC  H15B 4579   2.310   5.295  11.140 -0.5261 -0.5635 -0.8708
   60SAPC  H15C 4580   2.182   5.378  11.070  1.9548  2.1254 -0.6944
   60SAPC   C11 4581   2.059   5.120  10.983 -0.2732 -0.3582  0.8799
   60SAPC  H11A 4582   1.961   5.171  10.996  1.1414  2.0925  2.9013
   60SAPC  H11B 4583   2.043   5.021  10.936 -0.0371  0.0328 -0.0623
   60SAPC     P 4584   2.270   5.152  10.832  0.1300 -0.6594 -0.1242
   60SAPC   O13 4585   2.323   5.258  10.745 -0.1872  0.6318  0.0283
   60SAPC   O14 4586   2.351   5.104  10.942 -0.6120 -0.4404 -0.8055
   60SAPC   O12 4587   2.132   5.203  10.892 -0.1455  0.5207  0.2467
   60SAPC   O11 4588   2.248   5.023  10.748 -0.0737 -0.5208  0.3378
   60SAPC    C1 4589   2.137   5.010  10.652 -0.2135 -0.5020  0.2060
   60SAPC    HA 4590   2.103   4.905  10.668  0.1031 -0.5528  0.5636
   60SAPC    HB 4591   2.052   5.073  10.686  1.5745  0.8349  2.5352
   60SAPC    C2 4592   2.173   5.047  10.509  0.4876 -0.5245 -0.2889
   60SAPC    HS 4593   2.165   5.157  10.502 -1.4490 -0.4388  1.9983
   60SAPC   O21 4594   2.091   4.974  10.414 -0.4427 -0.4121  0.1976
   60SAPC   C21 4595   2.004   5.043  10.343  0.5184 -0.1681 -0.2213
   60SAPC   O22 4596   1.981   5.158  10.361 -0.2284 -0.4318  0.4862
   60SAPC   C22 4597   1.940   4.948  10.244 -0.6256  0.1315 -0.1438
   60SAPC   H2R 4598   2.024   4.925  10.176  1.8517  1.3141  2.2919
   60SAPC   H2S 4599   1.914   4.860  10.307  2.0531 -1.2313 -0.7933
   60SAPC    C3 4600   2.325   5.002  10.486  0.1378 -0.9510  0.6874
   60SAPC    HX 4601   2.330   4.893  10.502 -0.6633 -0.9791  0.7577
   60SAPC    HY 4602   2.399   5.043  10.559  2.2177 -0.4747 -1.5375
   60SAPC   O31 4603   2.366   5.027  10.351  0.1832  0.0943  0.6998
   60SAPC   C31 4604   2.389   5.147  10.302 -0.0887 -0.0048  0.0959
   60SAPC   O32 4605   2.367   5.257  10.351  0.5261  0.1896 -0.6510
   60SAPC   C32 4606   2.445   5.143  10.159  0.3854 -0.3494 -0.2036
   60SAPC   H2X 4607   2.479   5.040  10.138  2.9181  0.0442  1.5236
   60SAPC   H2Y 4608   2.530   5.215  10.156  0.6623 -0.6939 -0.9534
   60SAPC   C23 4609   1.813   5.000  10.171  0.0374 -0.5492  0.2816
   60SAPC   H3R 4610   1.743   5.017  10.255 -2.4310  2.6511 -2.2067
   60SAPC   H3S 4611   1.759   4.928  10.105 -0.3981  0.6998 -0.7643
   60SAPC   C24 4612   1.824   5.129  10.077 -0.2186  0.0645  0.0178
   60SAPC   H4R 4613   1.860   5.213  10.140 -0.8897  1.0206 -0.8407
   60SAPC   H4S 4614   1.723   5.151  10.036  0.6383 -0.6361 -2.7251
   60SAPC   C25 4615   1.912   5.121   9.949  0.1236  0.1937 -0.2555
   60SAPC   H5R 4616   2.014   5.085   9.966  0.4279  0.9602 -0.3963
   60SAPC   C26 4617   1.880   5.165   9.826  0.4555  0.4078  0.0266
   60SAPC   H6R 4618   1.944   5.141   9.740 -0.2763  0.0867 -0.4318
   60SAPC   C27 4619   1.746   5.212   9.783 -0.3799  0.1084  0.5039
   60SAPC   H7R 4620   1.766   5.286   9.703  0.5123  0.4643  1.0412
   60SAPC   H7S 4621   1.701   5.270   9.866 -1.6916 -1.4954  0.9790
   60SAPC   C28 4622   1.670   5.090   9.751  0.3630 -0.4102  0.6906
   60SAPC   H8R 4623   1.649   5.027   9.839 -0.2056 -0.2516  0.6753
   60SAPC   C29 4624   1.654   5.032   9.631 -0.0348  0.1989  0.2017
   60SAPC   H9R 4625   1.592   4.943   9.611  1.0983 -0.6673  0.4562
   60SAPC  C210 4626   1.711   5.095   9.504  0.4122  0.1403  0.2628
   60SAPC  H10R 4627   1.764   5.191   9.519 -0.0847  0.9239 -2.4707
   60SAPC  H10S 4628   1.630   5.130   9.437  2.2403  1.5139 -1.3442
   60SAPC  C211 4629   1.807   5.006   9.428  0.4001  0.0190  0.2267
   60SAPC  H11R 4630   1.852   4.918   9.477 -0.8968 -1.6644 -1.4873
   60SAPC  C212 4631   1.854   5.030   9.309 -0.1128 -0.4163  0.0189
   60SAPC  H12R 4632   1.922   4.963   9.256 -1.2836 -0.1732 -1.9096
   60SAPC  C213 4633   1.822   5.149   9.217  0.0118  0.1272  0.7005
   60SAPC  H13R 4634   1.909   5.184   9.157 -0.8519  1.4380  0.1673
   60SAPC  H13S 4635   1.787   5.239   9.272  0.5675  0.2862  0.8014
   60SAPC  C214 4636   1.725   5.094   9.115  0.5379  0.2781  0.5329
   60SAPC  H14R 4637   1.671   5.001   9.137  0.2556  0.3408  0.1152
   60SAPC  C215 4638   1.681   5.157   9.007 -0.1019  0.2574  0.3363
   60SAPC  H15R 4639   1.608   5.107   8.942 -0.1159 -0.5801  0.9882
   60SAPC  C216 4640   1.715   5.303   8.974  0.0683 -0.5421  1.0748
   60SAPC  H16R 4641   1.761   5.360   9.057  1.2558 -0.7075  0.5608
   60SAPC  H16S 4642   1.615   5.351   8.970  1.2355  1.9593 -0.1655
   60SAPC  C217 4643   1.793   5.331   8.846 -0.4742  0.5367  1.0185
   60SAPC  H17R 4644   1.755   5.270   8.761  1.5282  1.6233 -0.7713
   60SAPC  H17S 4645   1.895   5.292   8.868 -0.7529 -1.5996 -1.0409
   60SAPC  C218 4646   1.794   5.489   8.834  0.5727  0.9036  0.4081
   60SAPC  H18R 4647   1.832   5.524   8.933 -0.2587  1.1425  0.6533
   60SAPC  H18S 4648   1.686   5.512   8.820  0.0702 -1.6340 -0.2835
   60SAPC  C219 4649   1.876   5.533   8.715 -0.2550 -0.1963 -0.2224
   60SAPC  H19R 4650   1.984   5.508   8.723 -0.1137 -0.4733 -2.3841
   60SAPC  H19S 4651   1.868   5.643   8.716  1.0478 -0.0776  1.6210
   60SAPC  C220 4652   1.814   5.480   8.585 -0.2889 -0.2633 -0.0416
   60SAPC  H20R 4653   1.808   5.369   8.579  1.0995 -0.2809 -2.1261
   60SAPC  H20S 4654   1.864   5.516   8.493  1.0850 -0.2563  0.6747
   60SAPC  H20T 4655   1.709   5.515   8.580 -0.2988 -0.0972  0.9995
   60SAPC   C33 4656   2.341   5.185  10.057  0.7689 -0.3901 -0.1672
   60SAPC   H3X 4657   2.316   5.292  10.071  0.1772 -0.9428  4.3643
   60SAPC   H3Y 4658   2.248   5.127  10.078 -1.5269  2.7940 -0.7689
   60SAPC   C34 4659   2.388   5.173   9.911  0.6191 -0.0744  0.3842
   60SAPC   H4X 4660   2.438   5.074   9.904 -0.2612 -0.4825 -0.4171
   60SAPC   H4Y 4661   2.466   5.247   9.883 -0.3633  0.6856 -0.4117
   60SAPC   C35 4662   2.283   5.193   9.800 -0.4313 -0.1001  0.7479
   60SAPC   H5X 4663   2.245   5.297   9.799  1.9842  0.8531  0.7091
   60SAPC   H5Y 4664   2.196   5.125   9.811 -0.6185 -0.0548 -0.2924
   60SAPC   C36 4665   2.338   5.155   9.662 -0.0249  0.4911 -0.0706
   60SAPC   H6X 4666   2.400   5.063   9.660 -1.4671 -0.5064 -0.4114
   60SAPC   H6Y 4667   2.399   5.244   9.634  0.1191  0.2185 -0.6344
   60SAPC   C37 4668   2.237   5.160   9.543  0.3728 -0.4386  0.4110
   60SAPC   H7X 4669   2.164   5.241   9.562  0.6050 -0.0697 -0.2320
   60SAPC   H7Y 4670   2.190   5.059   9.540  2.3950 -1.5722  3.1228
   60SAPC   C38 4671   2.303   5.184   9.410 -0.6651 -0.4745 -0.8399
   60SAPC   H8X 4672   2.382   5.107   9.393 -0.1304 -0.0280 -0.4285
   60SAPC   H8Y 4673   2.351   5.284   9.420 -4.6097  1.3789  3.3273
   60SAPC   C39 4674   2.201   5.189   9.292  0.0134  0.1680 -0.1361
   60SAPC   H9X 4675   2.120   5.262   9.312 -0.0503 -0.2663  1.3370
   60SAPC   H9Y 4676   2.140   5.098   9.277  0.3668  0.0758 -1.0436
   60SAPC  C310 4677   2.264   5.227   9.161 -0.4248 -0.3392  0.4244
   60SAPC  H10X 4678   2.333   5.144   9.134  0.3502  1.1109 -2.4580
   60SAPC  H10Y 4679   2.335   5.311   9.170  0.0312 -0.1684 -3.3075
   60SAPC  C311 4680   2.169   5.257   9.042  0.0450 -0.4983  0.1820
   60SAPC  H11X 4681   2.108   5.347   9.066 -0.1018 -0.6936  0.5484
   60SAPC  H11Y 4682   2.095   5.175   9.028  1.5981 -1.6513 -1.8827
   60SAPC  C312 4683   2.247   5.277   8.908 -0.7470  0.0698 -0.1317
   60SAPC  H12X 4684   2.178   5.283   8.821  0.6044  1.9273 -1.1535
   60SAPC  H12Y 4685   2.314   5.190   8.893 -1.4039 -0.2743 -1.1499
   60SAPC  C313 4686   2.333   5.403   8.909 -0.2502 -0.3736 -0.1455
   60SAPC  H13X 4687   2.380   5.415   9.009 -3.3038 -2.0223  1.6184
   60SAPC  H13Y 4688   2.260   5.485   8.893 -3.9138 -3.5827 -1.4736
   60SAPC  C314 4689   2.436   5.418   8.788  0.0590  0.0459 -0.6019
   60SAPC  H14X 4690   2.403   5.346   8.711 -0.3641 -0.9210  0.4507
   60SAPC  H14Y 4691   2.528   5.374   8.831 -0.4016 -0.0392  0.3356
   60SAPC  C315 4692   2.465   5.568   8.761  0.1873 -0.8045  0.2669
   60SAPC  H15X 4693   2.484   5.616   8.859  1.6368  1.3420 -0.9875
   60SAPC  H15Y 4694   2.373   5.611   8.715  0.7178 -0.6802 -0.7147
   60SAPC  C316 4695   2.587   5.596   8.673  0.9308 -0.3918 -0.7872
   60SAPC  H16X 4696   2.582   5.525   8.587 -0.4742  0.3162 -1.3186
   60SAPC  H16Y 4697   2.682   5.580   8.729  0.3078  0.2672  0.4977
   60SAPC  C317 4698   2.583   5.739   8.608  0.4894  0.0926 -0.2679
   60SAPC  H17X 4699   2.601   5.825   8.676 -1.1979 -1.0811  1.7778
   60SAPC  H17Y 4700   2.478   5.750   8.575  0.4239  0.0321 -0.0804
   60SAPC  C318 4701   2.685   5.751   8.493  0.2381 -0.2527 -0.3152
   60SAPC  H18X 4702   2.785   5.713   8.524 -0.8945 -2.6859  0.6353
   60SAPC  H18Y 4703   2.696   5.852   8.447  0.3227  0.6606  1.6287
   60SAPC  H18Z 4704   2.664   5.674   8.416  2.4467 -1.3407  0.0810
   61SAPC     N 4705   5.216   2.024  10.917 -0.0688 -0.0388 -0.2423
   61SAPC   C12 4706   5.169   2.143  10.831  0.0106  0.0970 -0.1400
   61SAPC  H12A 4707   5.251   2.168  10.765  0.6797  0.3949  0.7718
   61SAPC  H12B 4708   5.147   2.230  10.891  0.8315 -0.1092  0.4920
   61SAPC   C13 4709   5.341   2.052  10.991  0.4855  0.1678  0.6958
   61SAPC  H13A 4710   5.402   1.965  11.008  2.0822  1.2067  0.5079
   61SAPC  H13B 4711   5.402   2.117  10.931 -0.9883  0.3491 -0.6844
   61SAPC  H13C 4712   5.323   2.089  11.091 -0.3143  1.7655  0.0041
   61SAPC   C14 4713   5.113   1.973  11.009 -0.6146  0.4780  0.1620
   61SAPC  H14A 4714   5.160   1.890  11.060  1.5734  1.5934  0.1117
   61SAPC  H14B 4715   5.084   2.048  11.082 -0.4311 -0.4959  1.2727
   61SAPC  H14C 4716   5.019   1.949  10.963  0.6518 -3.3388 -0.7738
   61SAPC   C15 4717   5.255   1.912  10.823  0.4250 -0.0394 -0.1663
   61SAPC  H15A 4718   5.340   1.943  10.765  0.0596 -0.2566 -0.8297
   61SAPC  H15B 4719   5.292   1.828  10.881 -1.0038 -0.8962 -0.4485
   61SAPC  H15C 4720   5.184   1.883  10.747  0.5102 -1.9087  0.4017
   61SAPC   C11 4721   5.045   2.126  10.748  0.3555  0.4148 -0.6284
   61SAPC  H11A 4722   5.042   2.023  10.708 -0.2945  0.9336 -1.9572
   61SAPC  H11B 4723   5.047   2.194  10.660  1.7501 -0.0575 -0.9861
   61SAPC     P 4724   4.863   2.278  10.856  0.5637 -0.1595 -0.1497
   61SAPC   O13 4725   4.724   2.263  10.905 -0.3173  0.0557 -0.2100
   61SAPC   O14 4726   4.956   2.359  10.937 -0.5784  0.6469  0.6179
   61SAPC   O12 4727   4.924   2.136  10.820 -1.0325  0.4504  0.1255
   61SAPC   O11 4728   4.857   2.360  10.724  0.2085  0.2853  1.0275
   61SAPC    C1 4729   4.782   2.322  10.605  0.0235 -0.4733  0.0891
   61SAPC    HA 4730   4.848   2.263  10.538  0.9229 -0.2569  0.7647
   61SAPC    HB 4731   4.696   2.258  10.635 -0.2650  0.8075  2.1379
   61SAPC    C2 4732   4.721   2.447  10.542  0.5312  0.0429 -0.4303
   61SAPC    HS 4733   4.662   2.417  10.453 -1.2287  2.7333 -0.2992
   61SAPC   O21 4734   4.830   2.533  10.516 -0.3368 -0.5588  0.5930
   61SAPC   C21 4735   4.856   2.568  10.390  0.0685 -0.0176  0.0038
   61SAPC   O22 4736   4.815   2.510  10.292  0.0494  0.0533  0.2677
   61SAPC   C22 4737   4.950   2.687  10.389  0.9782 -0.1570 -0.4761
   61SAPC   H2R 4738   4.935   2.749  10.480  1.2988 -1.8979  0.8128
   61SAPC   H2S 4739   5.053   2.650  10.404  1.4656  1.4020  0.2071
   61SAPC    C3 4740   4.618   2.523  10.634 -0.5191 -0.0270 -0.6553
   61SAPC    HX 4741   4.683   2.582  10.703 -0.4239 -1.5743  0.6372
   61SAPC    HY 4742   4.567   2.447  10.698  1.7399 -0.0365  1.2588
   61SAPC   O31 4743   4.524   2.604  10.551  0.7475  0.0838  0.3643
   61SAPC   C31 4744   4.551   2.739  10.548  0.2494 -0.0154 -0.7150
   61SAPC   O32 4745   4.654   2.778  10.600 -0.1415 -0.6503 -0.4100
   61SAPC   C32 4746   4.460   2.825  10.462  0.1657 -0.5382  0.1583
   61SAPC   H2X 4747   4.356   2.816  10.500  0.3169 -0.0354  0.7164
   61SAPC   H2Y 4748   4.446   2.786  10.359  1.3955  1.3491 -0.7758
   61SAPC   C23 4749   4.950   2.751  10.251 -0.1746 -0.0131 -0.3817
   61SAPC   H3R 4750   4.955   2.682  10.164 -0.2551  2.9269 -2.8954
   61SAPC   H3S 4751   5.049   2.799  10.238  0.0037 -0.0624  0.7222
   61SAPC   C24 4752   4.832   2.845  10.233 -0.2784 -0.8771 -0.0723
   61SAPC   H4R 4753   4.739   2.787  10.252  0.5633 -0.8736  5.3581
   61SAPC   H4S 4754   4.834   2.886  10.129 -1.0573 -0.6126  0.0078
   61SAPC   C25 4755   4.845   2.960  10.334  0.2644  0.1268  0.5275
   61SAPC   H5R 4756   4.811   2.928  10.434 -1.2604  0.4001  0.1183
   61SAPC   C26 4757   4.876   3.087  10.302  0.2536 -0.0535 -0.2539
   61SAPC   H6R 4758   4.907   3.152  10.386  1.0626 -2.5027  1.4358
   61SAPC   C27 4759   4.906   3.144  10.168  0.0694  0.2374  0.1203
   61SAPC   H7R 4760   4.981   3.079  10.119  0.0283  0.1858  0.1245
   61SAPC   H7S 4761   4.961   3.240  10.178 -1.0526  0.9756 -0.5238
   61SAPC   C28 4762   4.792   3.157  10.072  0.8304 -0.0803  0.3391
   61SAPC   H8R 4763   4.692   3.169  10.116 -0.3987 -0.4877 -2.1264
   61SAPC   C29 4764   4.794   3.138   9.935 -0.3994  0.8126  0.3308
   61SAPC   H9R 4765   4.704   3.161   9.875 -1.3694  0.0515  1.4339
   61SAPC  C210 4766   4.913   3.103   9.854 -0.0803 -0.3292 -0.0301
   61SAPC  H10R 4767   4.885   3.038   9.768  0.4710 -1.6180  0.7400
   61SAPC  H10S 4768   4.976   3.023   9.897 -0.3998 -2.2788 -2.8759
   61SAPC  C211 4769   4.990   3.232   9.818 -0.2498 -0.5671  0.2506
   61SAPC  H11R 4770   4.993   3.314   9.892  1.6750  0.6078 -1.0284
   61SAPC  C212 4771   5.059   3.256   9.700  0.3208  0.4920  0.6296
   61SAPC  H12R 4772   5.110   3.353   9.694 -1.7756  1.5985 -2.8825
   61SAPC  C213 4773   5.064   3.178   9.572  0.1248 -0.0856 -0.1201
   61SAPC  H13R 4774   5.058   3.070   9.598  1.0431  0.1995  1.3534
   61SAPC  H13S 4775   5.162   3.200   9.523 -0.4818  2.3225 -0.3765
   61SAPC  C214 4776   4.945   3.218   9.489 -0.1421 -0.3278  0.1821
   61SAPC  H14R 4777   4.846   3.190   9.528  0.3420  0.0373  1.7508
   61SAPC  C215 4778   4.957   3.283   9.370  0.5692  0.1043  0.1318
   61SAPC  H15R 4779   4.865   3.320   9.321  2.6171  2.0949 -2.5451
   61SAPC  C216 4780   5.077   3.338   9.302 -0.0832 -0.2735  0.4821
   61SAPC  H16R 4781   5.170   3.287   9.334  2.4455  2.8213 -1.3094
   61SAPC  H16S 4782   5.098   3.442   9.334  1.3557 -0.5454  0.4723
   61SAPC  C217 4783   5.087   3.346   9.146  0.2276 -0.0269  0.1364
   61SAPC  H17R 4784   5.088   3.243   9.105  0.0003 -0.4044  1.0665
   61SAPC  H17S 4785   5.182   3.396   9.118 -1.2048  2.1308 -1.1629
   61SAPC  C218 4786   4.974   3.422   9.074 -0.1956 -0.0953  0.6303
   61SAPC  H18R 4787   4.975   3.533   9.082  0.7245 -0.1619  1.7855
   61SAPC  H18S 4788   4.881   3.404   9.132  0.3525 -0.5685  1.3799
   61SAPC  C219 4789   4.958   3.380   8.932 -0.0816 -0.0871  0.1846
   61SAPC  H19R 4790   4.968   3.270   8.923 -1.2982 -0.2944  1.1261
   61SAPC  H19S 4791   5.040   3.433   8.879  0.9353 -2.5603 -0.8759
   61SAPC  C220 4792   4.820   3.415   8.871 -0.2613 -0.2594  0.4269
   61SAPC  H20R 4793   4.828   3.406   8.761 -1.3793  1.3353  0.1686
   61SAPC  H20S 4794   4.788   3.520   8.891 -0.3835 -0.4032  1.0299
   61SAPC  H20T 4795   4.741   3.345   8.908 -0.2613  0.2467  1.4391
   61SAPC   C33 4796   4.508   2.966  10.449 -0.4011  0.1930  0.3288
   61SAPC   H3X 4797   4.611   2.965  10.410 -0.1375  3.5311  0.6540
   61SAPC   H3Y 4798   4.508   3.020  10.546  0.5270  0.0349  0.4167
   61SAPC   C34 4799   4.412   3.044  10.353 -0.2152 -0.6361 -0.7646
   61SAPC   H4X 4800   4.310   3.035  10.394  0.0892 -2.1916 -0.3005
   61SAPC   H4Y 4801   4.434   3.011  10.249 -1.9238  2.6208 -2.3144
   61SAPC   C35 4802   4.454   3.195  10.356 -0.8606 -0.5233  0.3410
   61SAPC   H5X 4803   4.557   3.210  10.317 -1.0198 -3.0837 -1.2542
   61SAPC   H5Y 4804   4.453   3.226  10.462  0.0315  0.4683  0.0760
   61SAPC   C36 4805   4.355   3.283  10.276  0.2236  0.5111 -0.6816
   61SAPC   H6X 4806   4.338   3.379  10.329  1.1031 -0.5234  1.6072
   61SAPC   H6Y 4807   4.259   3.227  10.276 -0.5910  1.8299 -1.9166
   61SAPC   C37 4808   4.398   3.286  10.128 -0.1535  0.0130  0.1440
   61SAPC   H7X 4809   4.414   3.180  10.096 -0.7900  0.4232 -1.6640
   61SAPC   H7Y 4810   4.496   3.338  10.132 -0.7026  1.0167  1.2243
   61SAPC   C38 4811   4.299   3.347  10.029  0.0676 -0.1943  0.0738
   61SAPC   H8X 4812   4.308   3.458  10.032 -1.6081 -0.0455  0.8694
   61SAPC   H8Y 4813   4.195   3.326  10.064 -0.6196  1.6971 -0.6727
   61SAPC   C39 4814   4.329   3.300   9.886  0.0368 -0.3233  0.7940
   61SAPC   H9X 4815   4.331   3.189   9.876 -2.9034 -0.4199  0.3493
   61SAPC   H9Y 4816   4.421   3.351   9.851 -0.7011  2.1749  2.2748
   61SAPC  C310 4817   4.230   3.328   9.777  0.3240 -0.1524  0.6546
   61SAPC  H10X 4818   4.206   3.437   9.776 -1.6688 -0.5553 -0.2460
   61SAPC  H10Y 4819   4.135   3.273   9.792  0.4092 -0.7358 -0.8391
   61SAPC  C311 4820   4.283   3.285   9.637  0.2144 -0.5596 -0.3488
   61SAPC  H11X 4821   4.291   3.175   9.625  1.8590 -1.1050  4.0305
   61SAPC  H11Y 4822   4.383   3.331   9.625 -1.0345  2.8488  1.0400
   61SAPC  C312 4823   4.208   3.360   9.519  0.0203 -0.4576  0.5997
   61SAPC  H12X 4824   4.220   3.470   9.510 -0.4223 -0.5646 -2.7298
   61SAPC  H12Y 4825   4.099   3.350   9.537 -0.5859  0.4979 -2.0864
   61SAPC  C313 4826   4.240   3.298   9.381 -0.0591 -0.1450  0.1779
   61SAPC  H13X 4827   4.213   3.191   9.366 -2.8973  0.5280 -0.1754
   61SAPC  H13Y 4828   4.350   3.307   9.365 -0.2803  1.0300 -0.7954
   61SAPC  C314 4829   4.186   3.364   9.252 -0.1760 -0.8376  0.1647
   61SAPC  H14X 4830   4.218   3.470   9.255  2.0579 -1.4099 -1.3103
   61SAPC  H14Y 4831   4.076   3.373   9.265 -0.1016 -0.5920  0.6526
   61SAPC  C315 4832   4.206   3.289   9.126 -0.3768 -0.3980 -0.3882
   61SAPC  H15X 4833   4.180   3.183   9.147 -2.3256  0.4561  2.1307
   61SAPC  H15Y 4834   4.312   3.294   9.093 -0.0366 -0.1942  0.6884
   61SAPC  C316 4835   4.107   3.331   9.008 -0.3780  0.3197 -0.9427
   61SAPC  H16X 4836   4.123   3.437   8.982  0.1135  0.4270 -0.2599
   61SAPC  H16Y 4837   4.005   3.331   9.052 -0.6220 -0.7679 -1.4793
   61SAPC  C317 4838   4.106   3.240   8.887 -0.0347  0.2288  0.1571
   61SAPC  H17X 4839   4.092   3.133   8.915  2.0274 -0.5693 -1.5852
   61SAPC  H17Y 4840   4.201   3.251   8.832  1.9117 -1.5458  2.8855
   61SAPC  C318 4841   3.999   3.288   8.791  0.4011  0.5686  0.6533
   61SAPC  H18X 4842   4.010   3.229   8.698  0.5934 -1.8318  2.1255
   61SAPC  H18Y 4843   3.991   3.393   8.756  0.3650  0.3465 -0.0089
   61SAPC  H18Z 4844   3.893   3.275   8.823  0.2164  0.2481 -0.0813
   62SAPC     N 4845   2.250   3.868  10.840  0.2111 -1.1317 -0.1535
   62SAPC   C12 4846   2.222   3.905  10.692  0.6705  0.1656 -0.3057
   62SAPC  H12A 4847   2.184   4.006  10.689 -2.1704 -0.8468 -0.7937
   62SAPC  H12B 4848   2.137   3.850  10.655  1.8841 -1.0798 -1.3381
   62SAPC   C13 4849   2.359   3.962  10.894 -0.5477  0.5978 -0.6616
   62SAPC  H13A 4850   2.387   3.939  10.996  0.5623  1.6409 -0.6967
   62SAPC  H13B 4851   2.453   3.959  10.841 -0.4298  2.4816 -0.6366
   62SAPC  H13C 4852   2.315   4.060  10.899 -1.9102 -0.0632  1.0625
   62SAPC   C14 4853   2.124   3.902  10.922  0.5131  0.3715 -0.9005
   62SAPC  H14A 4854   2.080   3.999  10.902  0.4363  0.1804 -1.6522
   62SAPC  H14B 4855   2.054   3.820  10.918  0.4081  0.3042  1.1004
   62SAPC  H14C 4856   2.147   3.912  11.028 -0.3875 -0.9565 -0.5632
   62SAPC   C15 4857   2.290   3.730  10.862  0.4625 -0.6348 -0.2513
   62SAPC  H15A 4858   2.209   3.672  10.820 -1.0483  1.7172 -0.7466
   62SAPC  H15B 4859   2.377   3.706  10.804  1.6473  0.5372  0.9633
   62SAPC  H15C 4860   2.309   3.711  10.967  2.7723 -0.5258 -0.5956
   62SAPC   C11 4861   2.338   3.898  10.586  0.3082  0.5518  0.2849
   62SAPC  H11A 4862   2.293   3.899  10.485 -1.6990  0.4016  1.1195
   62SAPC  H11B 4863   2.389   3.802  10.607 -1.4141 -0.2357  1.1408
   62SAPC     P 4864   2.397   4.144  10.560 -0.1133 -0.1620  0.0524
   62SAPC   O13 4865   2.259   4.183  10.601  0.0563 -0.1750 -0.5340
   62SAPC   O14 4866   2.506   4.230  10.606 -0.2931  0.6145 -0.3800
   62SAPC   O12 4867   2.433   3.995  10.610  1.1780 -0.1686 -0.9240
   62SAPC   O11 4868   2.402   4.147  10.392  0.0596  0.7837 -0.4754
   62SAPC    C1 4869   2.514   4.113  10.324 -0.0887  0.3151  0.4369
   62SAPC    HA 4870   2.570   4.032  10.376 -0.1273  0.3513  0.5368
   62SAPC    HB 4871   2.491   4.086  10.219  0.4104  0.5842  0.2521
   62SAPC    C2 4872   2.612   4.228  10.307  0.1143  0.2852  0.0365
   62SAPC    HS 4873   2.595   4.303  10.388  0.0030 -1.2270  1.4695
   62SAPC   O21 4874   2.589   4.284  10.172  0.8206  0.1130  0.3473
   62SAPC   C21 4875   2.634   4.404  10.160 -0.0451 -0.1505 -1.4522
   62SAPC   O22 4876   2.684   4.473  10.253 -0.0519  0.3228 -0.5505
   62SAPC   C22 4877   2.627   4.451  10.014 -0.4657  0.5738 -0.0489
   62SAPC   H2R 4878   2.647   4.359   9.955 -2.2136  0.5012 -0.5880
   62SAPC   H2S 4879   2.525   4.485   9.986 -1.4703 -2.3658 -0.2945
   62SAPC    C3 4880   2.752   4.167  10.320 -0.0210  0.3896 -0.0059
   62SAPC    HX 4881   2.774   4.120  10.418  2.1924 -0.4527 -0.8528
   62SAPC    HY 4882   2.819   4.255  10.313 -0.1281  0.3509 -2.4744
   62SAPC   O31 4883   2.783   4.070  10.222  0.2565 -0.3077  0.9457
   62SAPC   C31 4884   2.840   4.113  10.099 -0.4427 -0.9427 -0.3521
   62SAPC   O32 4885   2.870   4.231  10.074 -1.2677  0.2212 -0.6227
   62SAPC   C32 4886   2.843   3.996  10.003 -0.9543  0.5603  0.3341
   62SAPC   H2X 4887   2.883   3.907  10.055  0.0330  1.7691  1.7640
   62SAPC   H2Y 4888   2.921   4.023   9.928 -1.0009  0.1193  0.1255
   62SAPC   C23 4889   2.740   4.559   9.981 -0.6523  0.2974 -0.4512
   62SAPC   H3R 4890   2.839   4.514  10.002  1.6659  3.3986 -3.5585
   62SAPC   H3S 4891   2.715   4.646  10.046 -1.1645 -0.2715  0.1393
   62SAPC   C24 4892   2.748   4.596   9.831  0.0272  0.4439  0.5860
   62SAPC   H4R 4893   2.815   4.684   9.816  1.9284 -1.3366 -2.6409
   62SAPC   H4S 4894   2.654   4.641   9.792  1.3898  2.8053 -0.2019
   62SAPC   C25 4895   2.806   4.487   9.751 -0.4504  0.2413  0.6198
   62SAPC   H5R 4896   2.847   4.407   9.815 -1.2252 -0.0864  0.7118
   62SAPC   C26 4897   2.814   4.480   9.614  0.3941 -0.1024  0.7256
   62SAPC   H6R 4898   2.867   4.401   9.559 -1.3305  0.0791 -1.3299
   62SAPC   C27 4899   2.762   4.585   9.521 -0.2248  0.5955 -0.3670
   62SAPC   H7R 4900   2.840   4.664   9.513  2.3186 -1.4176  2.2606
   62SAPC   H7S 4901   2.676   4.634   9.572  0.2132 -0.7283  1.7588
   62SAPC   C28 4902   2.723   4.522   9.383 -0.0435  0.4496 -0.3737
   62SAPC   H8R 4903   2.711   4.413   9.376  1.4255  0.2711 -0.4606
   62SAPC   C29 4904   2.697   4.596   9.272  0.1092 -0.1360  0.3113
   62SAPC   H9R 4905   2.675   4.553   9.174  1.9600 -0.8948  0.1827
   62SAPC  C210 4906   2.708   4.749   9.260 -0.1577  0.2999  0.1831
   62SAPC  H10R 4907   2.796   4.775   9.197  0.6996 -0.3765  1.0776
   62SAPC  H10S 4908   2.736   4.801   9.354  0.9985  2.1454 -1.1056
   62SAPC  C211 4909   2.584   4.820   9.212 -0.3711 -0.1133 -0.3414
   62SAPC  H11R 4910   2.500   4.818   9.283 -0.1770  0.9011 -0.0633
   62SAPC  C212 4911   2.557   4.885   9.094 -0.2931 -0.7174 -0.0871
   62SAPC  H12R 4912   2.465   4.944   9.083 -0.7547 -1.7581 -2.1415
   62SAPC  C213 4913   2.654   4.908   8.982 -0.3359  0.1586  0.6548
   62SAPC  H13R 4914   2.718   4.819   8.964 -1.5751 -0.5668 -0.3001
   62SAPC  H13S 4915   2.732   4.981   9.013 -0.0030  0.2558 -0.3712
   62SAPC  C214 4916   2.589   4.951   8.852 -0.6478  0.0057  0.6123
   62SAPC  H14R 4917   2.603   5.057   8.826  4.3763 -0.6263 -0.4560
   62SAPC  C215 4918   2.528   4.863   8.768 -0.1698 -0.1793  0.2816
   62SAPC  H15R 4919   2.483   4.902   8.675  1.0819 -1.1081 -0.7548
   62SAPC  C216 4920   2.514   4.714   8.794 -0.4759 -0.3468  0.1627
   62SAPC  H16R 4921   2.418   4.694   8.847 -0.3793 -0.8127  0.1630
   62SAPC  H16S 4922   2.588   4.669   8.865  0.5379  1.0704  0.0417
   62SAPC  C217 4923   2.510   4.629   8.665  0.6532 -0.4489 -0.2735
   62SAPC  H17R 4924   2.442   4.679   8.592  1.1862  2.1136  0.8731
   62SAPC  H17S 4925   2.463   4.531   8.683 -0.5217 -0.0298 -0.9264
   62SAPC  C218 4926   2.641   4.606   8.590  0.7824  0.5611  0.5522
   62SAPC  H18R 4927   2.719   4.571   8.661  0.0529 -0.4792  0.8574
   62SAPC  H18S 4928   2.665   4.708   8.554  0.1113  0.7030  0.4809
   62SAPC  C219 4929   2.631   4.497   8.481 -0.2322  0.2096 -0.2924
   62SAPC  H19R 4930   2.528   4.499   8.439 -0.0397 -1.0815 -0.8735
   62SAPC  H19S 4931   2.635   4.398   8.530 -1.4272  0.8870  1.2773
   62SAPC  C220 4932   2.741   4.497   8.376  0.2692  0.3258  0.2840
   62SAPC  H20R 4933   2.728   4.415   8.303 -0.9102 -0.8577  1.7618
   62SAPC  H20S 4934   2.839   4.470   8.421 -0.1463  2.0864  2.4675
   62SAPC  H20T 4935   2.756   4.591   8.319  2.8911 -1.1892 -1.7542
   62SAPC   C33 4936   2.710   3.962   9.931 -0.4567  0.5979  0.1828
   62SAPC   H3X 4937   2.631   3.927  10.001 -0.2701  0.5707  0.3821
   62SAPC   H3Y 4938   2.750   3.876   9.874  0.7454  1.2101  0.0762
   62SAPC   C34 4939   2.640   4.064   9.833 -0.3346  0.3333  0.2835
   62SAPC   H4X 4940   2.581   4.137   9.892 -1.0053 -1.6866  2.2431
   62SAPC   H4Y 4941   2.569   4.002   9.773 -1.8689  0.4863  1.8490
   62SAPC   C35 4942   2.741   4.122   9.739  0.8220 -0.5664  0.8105
   62SAPC   H5X 4943   2.816   4.184   9.792  2.2429 -1.0104 -0.5898
   62SAPC   H5Y 4944   2.686   4.204   9.689  1.7452 -0.4453 -0.0336
   62SAPC   C36 4945   2.784   4.034   9.622 -0.2314  0.3498  0.2435
   62SAPC   H6X 4946   2.844   3.952   9.668  1.8793  2.2584  1.1039
   62SAPC   H6Y 4947   2.846   4.092   9.551 -0.5756  0.1735 -0.2073
   62SAPC   C37 4948   2.671   3.971   9.532  0.2859 -0.3081 -0.5755
   62SAPC   H7X 4949   2.579   4.033   9.540  1.6645  1.8511 -0.6944
   62SAPC   H7Y 4950   2.633   3.874   9.571  0.8041 -1.1486 -2.0550
   62SAPC   C38 4951   2.684   3.939   9.383  0.0336  0.1394 -0.2497
   62SAPC   H8X 4952   2.757   3.859   9.360  0.5684  0.6028 -0.1843
   62SAPC   H8Y 4953   2.718   4.031   9.331  1.5968 -2.0717 -3.4468
   62SAPC   C39 4954   2.549   3.899   9.324 -0.0246 -0.6354 -0.2348
   62SAPC   H9X 4955   2.475   3.978   9.350  0.1850 -0.4707 -0.1310
   62SAPC   H9Y 4956   2.521   3.806   9.377  0.5065  0.3709  1.9648
   62SAPC  C310 4957   2.545   3.885   9.172  0.3090  0.0139 -0.2307
   62SAPC  H10X 4958   2.637   3.833   9.135  0.5266 -0.0306  0.3592
   62SAPC  H10Y 4959   2.542   3.982   9.119  0.4079  0.0806 -0.1148
   62SAPC  C311 4960   2.422   3.810   9.117  0.1491 -0.0753 -0.3294
   62SAPC  H11X 4961   2.326   3.846   9.161  0.9562  2.4435 -0.4363
   62SAPC  H11Y 4962   2.441   3.704   9.142  1.1185  0.4831  1.4841
   62SAPC  C312 4963   2.420   3.819   8.965 -0.0939 -0.4210  0.4923
   62SAPC  H12X 4964   2.523   3.826   8.923 -0.7520  0.6135 -1.0242
   62SAPC  H12Y 4965   2.369   3.912   8.932  1.0594 -0.7404 -2.4590
   62SAPC  C313 4966   2.353   3.697   8.906  0.4851 -0.0612  0.0290
   62SAPC  H13X 4967   2.258   3.685   8.963  0.1950 -1.5568 -0.7131
   62SAPC  H13Y 4968   2.410   3.603   8.925 -0.2912 -0.2611  1.5125
   62SAPC  C314 4969   2.330   3.716   8.754 -0.1616  0.1445 -0.6725
   62SAPC  H14X 4970   2.410   3.787   8.723  0.5846 -1.2268 -2.0274
   62SAPC  H14Y 4971   2.227   3.748   8.728 -1.3573 -2.8798 -0.0321
   62SAPC  C315 4972   2.331   3.581   8.675 -0.1862 -0.6267  0.2800
   62SAPC  H15X 4973   2.290   3.603   8.574  1.7390  2.0444 -0.0123
   62SAPC  H15Y 4974   2.254   3.517   8.723 -1.2393 -0.4190 -1.0811
   62SAPC  C316 4975   2.471   3.507   8.663  0.2038 -0.0572 -0.8846
   62SAPC  H16X 4976   2.499   3.459   8.759  0.5390  2.2104  0.2267
   62SAPC  H16Y 4977   2.554   3.580   8.656 -1.1995  1.9320  1.6623
   62SAPC  C317 4978   2.473   3.397   8.569 -0.6686  0.5751  0.1543
   62SAPC  H17X 4979   2.466   3.438   8.466 -1.0410  1.7095  0.6175
   62SAPC  H17Y 4980   2.386   3.331   8.591  1.6324 -2.5593  0.6289
   62SAPC  C318 4981   2.594   3.308   8.591 -0.2741 -0.7551  0.3644
   62SAPC  H18X 4982   2.682   3.375   8.584  0.2463 -1.6244 -2.4109
   62SAPC  H18Y 4983   2.593   3.222   8.521 -2.5503 -1.6156  1.3536
   62SAPC  H18Z 4984   2.601   3.259   8.691  1.1606 -0.5383  0.3948
   63SAPC     N 4985   6.367   4.052   6.350 -0.1898  0.3493 -0.2448
   63SAPC   C12 4986   6.386   4.171   6.436  0.2472  0.0914 -0.1972
   63SAPC  H12A 4987   6.295   4.182   6.494  0.8179 -2.9164  1.4811
   63SAPC  H12B 4988   6.395   4.258   6.372  1.8971 -1.4800 -2.2024
   63SAPC   C13 4989   6.238   4.055   6.278  0.3438 -0.1904 -0.0053
   63SAPC  H13A 4990   6.154   4.081   6.340  0.4548 -0.8745  0.4370
   63SAPC  H13B 4991   6.242   4.119   6.191  0.1723  1.2619  1.0384
   63SAPC  H13C 4992   6.212   3.956   6.243  0.6534 -0.4277  0.4269
   63SAPC   C14 4993   6.482   4.044   6.249  1.2342  0.4091  0.1407
   63SAPC  H14A 4994   6.487   4.106   6.161  0.8696 -1.8467 -1.5464
   63SAPC  H14B 4995   6.576   4.055   6.302  1.9849  1.2727 -1.3120
   63SAPC  H14C 4996   6.474   3.949   6.200 -4.5588  0.9032 -0.5439
   63SAPC   C15 4997   6.381   3.925   6.424 -0.0575 -0.2306  0.0246
   63SAPC  H15A 4998   6.468   3.931   6.487  0.1417 -1.9836 -0.0419
   63SAPC  H15B 4999   6.290   3.899   6.477 -0.4029  0.2701 -0.3099
   63SAPC  H15C 5000   6.395   3.838   6.360  0.0670  0.1483 -0.4731
   63SAPC   C11 5001   6.501   4.184   6.534  0.4385  0.5077 -0.0879
   63SAPC  H11A 5002   6.497   4.097   6.604  1.0533  0.1181 -0.5361
   63SAPC  H11B 5003   6.485   4.269   6.604  0.4046 -1.6429  2.7325
   63SAPC     P 5004   6.689   4.309   6.399  0.1297 -0.6480 -0.1138
   63SAPC   O13 5005   6.823   4.270   6.357 -0.2719  0.0008  0.0093
   63SAPC   O14 5006   6.594   4.363   6.301  0.4517  0.7361  0.2378
   63SAPC   O12 5007   6.623   4.185   6.471 -0.5567 -0.2725  0.3614
   63SAPC   O11 5008   6.698   4.409   6.516 -0.1458 -0.0821 -0.0813
   63SAPC    C1 5009   6.810   4.395   6.611 -0.3697 -0.4032 -0.3560
   63SAPC    HA 5010   6.908   4.379   6.562 -0.7824  2.2279 -2.2620
   63SAPC    HB 5011   6.812   4.496   6.659 -1.7296  0.8565 -2.7462
   63SAPC    C2 5012   6.780   4.287   6.720  0.2337 -0.2887  0.2030
   63SAPC    HS 5013   6.758   4.185   6.681  2.1495 -1.7574  2.6599
   63SAPC   O21 5014   6.666   4.343   6.803 -0.6756  0.3374 -0.6142
   63SAPC   C21 5015   6.610   4.241   6.878  0.0945 -0.1690 -0.1264
   63SAPC   O22 5016   6.653   4.126   6.876  0.1755 -0.2762 -0.3101
   63SAPC   C22 5017   6.486   4.293   6.956  0.8262 -0.8614 -0.0325
   63SAPC   H2R 5018   6.520   4.394   6.986  2.0852 -0.8700 -1.3133
   63SAPC   H2S 5019   6.402   4.325   6.891  0.2486 -1.6385  0.3201
   63SAPC    C3 5020   6.907   4.263   6.810 -1.0908 -0.3793 -0.5696
   63SAPC    HX 5021   6.969   4.196   6.747 -1.3230  1.8172 -3.3488
   63SAPC    HY 5022   6.898   4.191   6.894  2.2224 -1.1769 -0.7780
   63SAPC   O31 5023   6.961   4.393   6.858 -0.2567  0.0983  0.9226
   63SAPC   C31 5024   7.071   4.430   6.808 -0.0361 -0.5556  0.4187
   63SAPC   O32 5025   7.123   4.381   6.704  0.1240  0.0885 -0.0355
   63SAPC   C32 5026   7.131   4.540   6.887  0.3642 -0.6494 -0.3915
   63SAPC   H2X 5027   7.043   4.589   6.933  0.4597 -1.2812  0.4795
   63SAPC   H2Y 5028   7.188   4.600   6.813 -0.0115 -0.5208 -0.5837
   63SAPC   C23 5029   6.443   4.218   7.090 -0.1925 -0.7476  0.0031
   63SAPC   H3R 5030   6.358   4.277   7.131  0.7783  0.2984  0.5622
   63SAPC   H3S 5031   6.522   4.227   7.168  1.2990 -1.5873 -1.3494
   63SAPC   C24 5032   6.407   4.075   7.067 -0.1718 -0.0165 -0.4144
   63SAPC   H4R 5033   6.503   4.020   7.059  1.2210  2.0978  0.8657
   63SAPC   H4S 5034   6.342   4.078   6.977 -0.7905  1.8783  0.0469
   63SAPC   C25 5035   6.335   4.024   7.196 -0.5889 -0.7552  0.4111
   63SAPC   H5R 5036   6.396   4.029   7.288 -0.9420  0.3867  0.5974
   63SAPC   C26 5037   6.214   3.972   7.211  0.4534 -0.3169 -0.2958
   63SAPC   H6R 5038   6.184   3.931   7.308 -0.8724 -2.1354 -1.4143
   63SAPC   C27 5039   6.111   3.957   7.102 -0.2638  0.1761 -0.0415
   63SAPC   H7R 5040   6.136   3.990   6.999 -1.2414  0.4882 -0.1854
   63SAPC   H7S 5041   6.037   4.033   7.136  0.3843  0.8370 -0.0674
   63SAPC   C28 5042   6.060   3.817   7.100 -0.6336  0.0500  0.3206
   63SAPC   H8R 5043   6.098   3.759   7.014 -1.1632  1.5955 -1.0087
   63SAPC   C29 5044   5.959   3.764   7.180  0.0566 -1.0374 -0.1753
   63SAPC   H9R 5045   5.943   3.656   7.169  0.8960 -1.1749 -0.1650
   63SAPC  C210 5046   5.882   3.843   7.289 -0.7446  0.5958  0.1997
   63SAPC  H10R 5047   5.788   3.880   7.243 -1.5355  0.2833  1.5244
   63SAPC  H10S 5048   5.942   3.933   7.312 -0.4604  0.4066  0.2151
   63SAPC  C211 5049   5.850   3.766   7.414 -0.4906  0.4838 -0.0247
   63SAPC  H11R 5050   5.786   3.679   7.392  1.7088 -0.7359 -2.1141
   63SAPC  C212 5051   5.900   3.787   7.535 -0.6508  0.0898  0.2636
   63SAPC  H12R 5052   5.883   3.720   7.621 -2.2945 -0.8540 -0.7322
   63SAPC  C213 5053   5.996   3.896   7.571  0.8725  0.9001  0.4527
   63SAPC  H13R 5054   5.959   3.945   7.664 -0.7559  1.8869 -0.6598
   63SAPC  H13S 5055   5.980   3.975   7.495 -0.3249 -0.4834 -0.7831
   63SAPC  C214 5056   6.138   3.832   7.582 -0.0945 -0.0433  0.0608
   63SAPC  H14R 5057   6.174   3.766   7.501  1.4570  0.8918 -0.0496
   63SAPC  C215 5058   6.224   3.833   7.687 -0.1888 -0.3635 -0.1924
   63SAPC  H15R 5059   6.323   3.787   7.676 -0.1342 -0.5131  0.8921
   63SAPC  C216 5060   6.211   3.912   7.820  0.1376  0.4270 -0.2075
   63SAPC  H16R 5061   6.110   3.954   7.838  0.4378  2.0885 -2.0987
   63SAPC  H16S 5062   6.271   4.005   7.808 -2.6318  2.1283 -1.9221
   63SAPC  C217 5063   6.248   3.823   7.944  0.7425 -0.3782 -0.5118
   63SAPC  H17R 5064   6.197   3.725   7.953 -0.0645  0.1108  0.3761
   63SAPC  H17S 5065   6.206   3.896   8.016  2.9257  1.1595 -0.6713
   63SAPC  C218 5066   6.391   3.801   7.961  0.0897  0.1696  0.1620
   63SAPC  H18R 5067   6.447   3.895   7.941 -0.5631  0.6418  0.5193
   63SAPC  H18S 5068   6.428   3.719   7.896  3.1749 -2.3894  4.5908
   63SAPC  C219 5069   6.420   3.759   8.110 -0.9533  0.1268 -0.6468
   63SAPC  H19R 5070   6.349   3.678   8.137 -1.3557  1.3808  2.5767
   63SAPC  H19S 5071   6.402   3.843   8.180 -2.1058 -0.2196 -0.4985
   63SAPC  C220 5072   6.558   3.697   8.123  0.3902 -0.4880  0.1932
   63SAPC  H20R 5073   6.555   3.600   8.068 -0.1680  0.7643 -2.0856
   63SAPC  H20S 5074   6.588   3.688   8.229  1.6048 -1.1560 -0.1926
   63SAPC  H20T 5075   6.638   3.759   8.079  2.0548 -1.3412  1.8876
   63SAPC   C33 5076   7.209   4.494   7.005 -0.2619  0.6191 -0.4970
   63SAPC   H3X 5077   7.303   4.446   6.970  0.9556  1.1848  1.8289
   63SAPC   H3Y 5078   7.157   4.415   7.063  0.1511 -0.2092 -1.2282
   63SAPC   C34 5079   7.261   4.607   7.103  0.4039 -0.5096 -0.2468
   63SAPC   H4X 5080   7.193   4.641   7.184  1.0446 -0.5054  0.3029
   63SAPC   H4Y 5081   7.285   4.695   7.041 -2.7004  1.1896  0.7888
   63SAPC   C35 5082   7.397   4.573   7.161  0.3630  0.0915  0.3836
   63SAPC   H5X 5083   7.444   4.672   7.177  0.0513  0.5556 -1.3539
   63SAPC   H5Y 5084   7.458   4.514   7.089  3.0698  1.6276  1.2696
   63SAPC   C36 5085   7.404   4.500   7.298 -0.3068 -0.2952 -0.5895
   63SAPC   H6X 5086   7.371   4.399   7.266 -0.7292 -0.2938 -0.1640
   63SAPC   H6Y 5087   7.328   4.546   7.365  2.6768  0.3726  2.6043
   63SAPC   C37 5088   7.538   4.503   7.365  0.0742 -0.5118 -0.8421
   63SAPC   H7X 5089   7.560   4.607   7.398  0.1682 -0.2310 -1.7488
   63SAPC   H7Y 5090   7.621   4.475   7.297  0.0166 -0.3412 -0.9843
   63SAPC   C38 5091   7.544   4.422   7.491 -0.1522 -0.6858 -0.2030
   63SAPC   H8X 5092   7.513   4.317   7.473 -2.1449 -0.2645  0.5766
   63SAPC   H8Y 5093   7.469   4.454   7.567 -0.4679 -0.7803 -0.4758
   63SAPC   C39 5094   7.677   4.450   7.563 -1.3501 -0.2642  1.2085
   63SAPC   H9X 5095   7.680   4.561   7.577 -2.5360 -0.2035  1.0452
   63SAPC   H9Y 5096   7.767   4.431   7.500 -1.5328  1.5824  0.3130
   63SAPC  C310 5097   7.690   4.389   7.705  1.0142  0.9456  0.2753
   63SAPC  H10X 5098   7.690   4.280   7.682 -1.7905  0.8076  0.5859
   63SAPC  H10Y 5099   7.589   4.405   7.747  0.3527 -0.3914 -0.7070
   63SAPC  C311 5100   7.808   4.426   7.794  0.9608  0.1607  0.5219
   63SAPC  H11X 5101   7.781   4.527   7.833 -1.8395 -0.7006  1.0051
   63SAPC  H11Y 5102   7.899   4.433   7.730  2.0333 -0.9455  1.8468
   63SAPC  C312 5103   7.834   4.338   7.914  0.3026 -0.4115 -0.4999
   63SAPC  H12X 5104   7.887   4.248   7.876 -1.1938 -1.6957  0.3396
   63SAPC  H12Y 5105   7.742   4.293   7.957  0.1267  0.2256 -0.1880
   63SAPC  C313 5106   7.918   4.406   8.024 -0.4077  0.4319  0.0696
   63SAPC  H13X 5107   7.871   4.504   8.048 -1.7547 -0.4977  1.4143
   63SAPC  H13Y 5108   8.015   4.433   7.977 -0.6437  0.4619 -0.4050
   63SAPC  C314 5109   7.914   4.316   8.147  0.6592  0.8808 -0.5868
   63SAPC  H14X 5110   7.977   4.229   8.120 -0.4004 -0.4304  0.9800
   63SAPC  H14Y 5111   7.812   4.274   8.160  0.0178  1.4887 -3.1003
   63SAPC  C315 5112   7.962   4.369   8.281  0.4747 -0.0302 -0.5483
   63SAPC  H15X 5113   7.954   4.291   8.360  1.3822 -0.1606 -0.5663
   63SAPC  H15Y 5114   7.889   4.448   8.309 -0.0686 -1.5121  2.7053
   63SAPC  C316 5115   8.109   4.429   8.262  0.4103 -0.4146 -0.2689
   63SAPC  H16X 5116   8.118   4.510   8.187 -1.1819 -0.8009 -0.9132
   63SAPC  H16Y 5117   8.175   4.346   8.227  1.6333 -0.3225  1.6845
   63SAPC  C317 5118   8.170   4.482   8.393 -0.7152  0.1196 -0.1986
   63SAPC  H17X 5119   8.169   4.400   8.468 -0.6346  0.3079  0.0075
   63SAPC  H17Y 5120   8.099   4.556   8.434  1.1692  0.1006  3.4361
   63SAPC  C318 5121   8.310   4.538   8.375 -0.2966  0.3190 -0.1393
   63SAPC  H18X 5122   8.320   4.620   8.300  1.6182 -1.4686 -1.9640
   63SAPC  H18Y 5123   8.364   4.459   8.319 -1.4514  0.0003 -0.8396
   63SAPC  H18Z 5124   8.372   4.553   8.467  0.0728 -0.7211 -0.2131
   64SAPC     N 5125   2.111   6.154   5.834 -0.8124  0.0306  0.1368
   64SAPC   C12 5126   2.041   6.108   5.957 -0.0218 -0.0593  0.3351
   64SAPC  H12A 5127   2.081   6.014   5.993  0.1459  0.9081  2.9225
   64SAPC  H12B 5128   1.937   6.094   5.933  0.1991  0.5082 -1.0137
   64SAPC   C13 5129   2.090   6.051   5.729 -0.6480  0.3132  0.6380
   64SAPC  H13A 5130   2.126   5.956   5.763  0.7418  0.7030  0.3373
   64SAPC  H13B 5131   1.985   6.040   5.708 -0.5985  0.5668  0.2300
   64SAPC  H13C 5132   2.137   6.077   5.635 -0.1478 -1.2054  0.4428
   64SAPC   C14 5133   2.055   6.284   5.776  0.1830 -0.1300 -0.0145
   64SAPC  H14A 5134   2.060   6.368   5.844 -0.2595 -0.5953  0.6033
   64SAPC  H14B 5135   2.119   6.308   5.692 -0.5868 -2.5608 -1.3772
   64SAPC  H14C 5136   1.954   6.260   5.747 -0.1117 -1.0342  1.6405
   64SAPC   C15 5137   2.259   6.173   5.859 -0.4915 -0.0876 -0.1127
   64SAPC  H15A 5138   2.292   6.223   5.769 -0.6815 -0.4521 -0.3865
   64SAPC  H15B 5139   2.276   6.242   5.940  1.3401 -0.4717 -0.1411
   64SAPC  H15C 5140   2.307   6.079   5.882 -1.4582 -0.7208 -0.6071
   64SAPC   C11 5141   2.054   6.204   6.083  0.1473 -0.2321 -0.0939
   64SAPC  H11A 5142   2.159   6.204   6.117  0.4023  0.4053 -0.8725
   64SAPC  H11B 5143   2.001   6.142   6.160  1.1588 -2.3104 -0.9962
   64SAPC     P 5144   1.870   6.378   6.154  0.6593  0.2684  0.4159
   64SAPC   O13 5145   1.887   6.524   6.174  0.0582  0.2745  0.7527
   64SAPC   O14 5146   1.740   6.335   6.089 -0.4079  0.2910  0.3729
   64SAPC   O12 5147   1.998   6.334   6.074  0.3057  0.5056  0.3443
   64SAPC   O11 5148   1.899   6.305   6.290  0.3549  0.5953 -1.2978
   64SAPC    C1 5149   1.802   6.217   6.346 -0.2100 -0.5582 -0.4092
   64SAPC    HA 5150   1.712   6.270   6.384  0.4528  0.8459 -0.7386
   64SAPC    HB 5151   1.762   6.140   6.277 -0.8949 -1.5142  0.9854
   64SAPC    C2 5152   1.856   6.128   6.456 -0.2771  0.3661 -0.0261
   64SAPC    HS 5153   1.782   6.074   6.518  2.4097 -0.2108  2.9409
   64SAPC   O21 5154   1.924   6.202   6.554  0.1859  0.0202 -0.8782
   64SAPC   C21 5155   1.863   6.294   6.629 -0.5155  0.6656 -0.0827
   64SAPC   O22 5156   1.742   6.315   6.630  0.0058 -0.4998  0.4908
   64SAPC   C22 5157   1.955   6.351   6.737 -0.1803 -0.2585  0.5810
   64SAPC   H2R 5158   1.963   6.459   6.715  0.7499 -0.1406  1.4050
   64SAPC   H2S 5159   1.907   6.336   6.836 -1.1948 -0.7824  0.0264
   64SAPC    C3 5160   1.951   6.016   6.414  0.4526  0.0364  0.2800
   64SAPC    HX 5161   2.026   6.068   6.351 -0.1964  1.0107  0.3009
   64SAPC    HY 5162   1.896   5.945   6.349  0.8721 -2.8238  2.8217
   64SAPC   O31 5163   2.000   5.944   6.535 -0.2171 -0.0852  0.1414
   64SAPC   C31 5164   2.112   5.871   6.510 -0.4415 -0.1754 -0.0214
   64SAPC   O32 5165   2.151   5.840   6.400  0.3955  0.0628 -0.6616
   64SAPC   C32 5166   2.170   5.824   6.638 -0.3447 -0.4197  0.6598
   64SAPC   H2X 5167   2.177   5.713   6.640 -1.7760 -0.5615 -0.4700
   64SAPC   H2Y 5168   2.110   5.857   6.725 -1.8039  0.2702 -0.5552
   64SAPC   C23 5169   2.102   6.290   6.740  0.9911 -0.0958  0.1032
   64SAPC   H3R 5170   2.144   6.294   6.637 -0.6729  1.5103 -0.5670
   64SAPC   H3S 5171   2.093   6.184   6.772  3.3502 -0.4256 -0.1963
   64SAPC   C24 5172   2.209   6.347   6.830 -0.3079  0.4472 -0.4667
   64SAPC   H4R 5173   2.305   6.291   6.824 -0.0865  0.6967  0.5524
   64SAPC   H4S 5174   2.174   6.331   6.934 -0.4474  0.3340 -0.5311
   64SAPC   C25 5175   2.222   6.496   6.810  0.1891  0.5026  0.5306
   64SAPC   H5R 5176   2.272   6.534   6.720 -1.5977 -0.2951 -0.8427
   64SAPC   C26 5177   2.182   6.587   6.901  0.2933 -0.0613 -0.1187
   64SAPC   H6R 5178   2.188   6.695   6.883 -2.0165  0.2838  0.7443
   64SAPC   C27 5179   2.126   6.549   7.035  0.2685 -0.5034 -0.5597
   64SAPC   H7R 5180   2.057   6.461   7.031 -2.1406  1.1074  1.9524
   64SAPC   H7S 5181   2.056   6.625   7.075 -0.5294 -1.5785  0.1405
   64SAPC   C28 5182   2.229   6.531   7.143  0.5247  0.6207  0.4342
   64SAPC   H8R 5183   2.329   6.498   7.112 -0.2944 -1.2780 -0.3159
   64SAPC   C29 5184   2.212   6.548   7.279  0.0498  0.9654  0.2578
   64SAPC   H9R 5185   2.291   6.534   7.354  1.0291 -0.4503 -0.9805
   64SAPC  C210 5186   2.078   6.578   7.346 -0.3636 -0.2069  0.3721
   64SAPC  H10R 5187   1.995   6.548   7.278  0.2126  0.8146 -0.8164
   64SAPC  H10S 5188   2.057   6.686   7.358 -0.9656 -0.4312  1.5034
   64SAPC  C211 5189   2.065   6.499   7.478 -0.6192  0.0968  0.4505
   64SAPC  H11R 5190   2.084   6.392   7.459  0.0762  0.6621 -2.5786
   64SAPC  C212 5191   2.042   6.546   7.600 -0.3372 -0.4955 -0.5187
   64SAPC  H12R 5192   2.031   6.476   7.684  2.4463  1.3451  1.5766
   64SAPC  C213 5193   2.021   6.689   7.651  0.2774  0.8904 -0.4257
   64SAPC  H13R 5194   2.075   6.759   7.584  1.8671 -0.0385 -0.1548
   64SAPC  H13S 5195   2.067   6.684   7.752  0.1605  1.0148 -0.3653
   64SAPC  C214 5196   1.873   6.725   7.658 -0.2193 -0.3627 -0.6816
   64SAPC  H14R 5197   1.823   6.695   7.565  0.7080 -0.8670 -1.0357
   64SAPC  C215 5198   1.813   6.796   7.758 -0.6755  0.3026 -0.0652
   64SAPC  H15R 5199   1.703   6.800   7.762 -0.8907 -1.0616 -2.5471
   64SAPC  C216 5200   1.882   6.842   7.884  0.3233 -0.1332  1.1966
   64SAPC  H16R 5201   1.828   6.932   7.923  0.2463 -0.4622  1.8748
   64SAPC  H16S 5202   1.986   6.872   7.859  0.6339  0.2670  2.8289
   64SAPC  C217 5203   1.891   6.734   7.992 -0.8902  0.5991  0.2717
   64SAPC  H17R 5204   1.934   6.639   7.953 -0.1098 -0.1903  2.8509
   64SAPC  H17S 5205   1.791   6.692   8.017 -0.3787 -0.9657 -0.2080
   64SAPC  C218 5206   1.960   6.786   8.116 -0.3278  0.5531  0.0180
   64SAPC  H18R 5207   1.935   6.892   8.138  2.6629  1.3153  0.3121
   64SAPC  H18S 5208   2.070   6.800   8.106  0.2350 -1.9542  1.8575
   64SAPC  C219 5209   1.936   6.686   8.239 -0.2782 -0.2856 -0.1823
   64SAPC  H19R 5210   1.967   6.584   8.208 -0.0981 -0.2883  0.0047
   64SAPC  H19S 5211   1.830   6.697   8.272 -0.0962  1.7648 -0.1454
   64SAPC  C220 5212   2.032   6.711   8.361  0.4296 -0.6025 -0.2566
   64SAPC  H20R 5213   2.135   6.682   8.328  0.4818 -0.8758  0.1407
   64SAPC  H20S 5214   2.010   6.659   8.457  0.1236  0.4759  0.2749
   64SAPC  H20T 5215   2.026   6.816   8.394 -3.0992 -1.2200  1.4960
   64SAPC   C33 5216   2.315   5.894   6.663  1.3368  0.3844 -0.2731
   64SAPC   H3X 5217   2.314   6.000   6.630 -1.4554  0.9033  1.1739
   64SAPC   H3Y 5218   2.382   5.832   6.600 -0.0991 -1.8650  0.3061
   64SAPC   C34 5219   2.361   5.885   6.812 -0.1931  0.7352  0.1389
   64SAPC   H4X 5220   2.470   5.903   6.819 -0.0897  0.9565 -1.7315
   64SAPC   H4Y 5221   2.335   5.784   6.853  1.7418 -0.4502 -1.3846
   64SAPC   C35 5222   2.283   5.986   6.904 -0.1679  0.1065 -0.5360
   64SAPC   H5X 5223   2.176   5.957   6.904 -0.4969  1.0775 -2.9050
   64SAPC   H5Y 5224   2.275   6.083   6.850  0.9899  0.4648 -0.1002
   64SAPC   C36 5225   2.343   6.007   7.044  0.4946 -0.2761 -0.1243
   64SAPC   H6X 5226   2.329   6.116   7.062  2.7582  0.2329 -1.0699
   64SAPC   H6Y 5227   2.452   6.003   7.025  0.8835  0.3746  1.7488
   64SAPC   C37 5228   2.300   5.903   7.147 -0.4331 -0.9740 -0.2855
   64SAPC   H7X 5229   2.325   5.800   7.113  2.3491 -0.0169 -1.4786
   64SAPC   H7Y 5230   2.189   5.911   7.143 -0.2849  2.1064 -0.4818
   64SAPC   C38 5231   2.355   5.929   7.293 -0.1114  0.0362  0.1859
   64SAPC   H8X 5232   2.465   5.943   7.288  0.0321 -1.3095 -1.1373
   64SAPC   H8Y 5233   2.347   5.834   7.350 -0.7916  0.6529  1.1359
   64SAPC   C39 5234   2.296   6.059   7.354  0.2008  0.6465  0.1314
   64SAPC   H9X 5235   2.213   6.099   7.291 -0.8758  0.4820  1.3882
   64SAPC   H9Y 5236   2.381   6.130   7.361  2.7737 -2.2922  0.7137
   64SAPC  C310 5237   2.241   6.026   7.488  0.6842  0.0716  0.8004
   64SAPC  H10X 5238   2.309   5.952   7.535  1.1445 -1.2599 -1.7916
   64SAPC  H10Y 5239   2.149   5.963   7.479  2.1704 -1.9917 -1.0808
   64SAPC  C311 5240   2.201   6.151   7.569  0.4574 -0.5242 -0.0061
   64SAPC  H11X 5241   2.115   6.200   7.519 -0.0624 -2.8274 -1.5442
   64SAPC  H11Y 5242   2.290   6.218   7.567  0.3851 -0.3388  1.8663
   64SAPC  C312 5243   2.170   6.110   7.718 -0.5034  0.4136  0.7234
   64SAPC  H12X 5244   2.260   6.059   7.760  0.9718  2.1467 -0.1678
   64SAPC  H12Y 5245   2.081   6.045   7.713 -1.0490  1.2427 -1.4103
   64SAPC  C313 5246   2.138   6.229   7.816  0.4955  0.4040  0.3252
   64SAPC  H13X 5247   2.065   6.294   7.763  0.3431  0.7154  0.9026
   64SAPC  H13Y 5248   2.227   6.295   7.822 -0.0032  1.0771  0.4413
   64SAPC  C314 5249   2.082   6.188   7.953 -0.5889 -0.1102 -0.2484
   64SAPC  H14X 5250   2.123   6.095   7.997 -1.1387 -1.8364 -3.1737
   64SAPC  H14Y 5251   1.971   6.178   7.956 -0.7275  1.3139  0.1245
   64SAPC  C315 5252   2.114   6.305   8.046  0.2306  0.1907 -0.1736
   64SAPC  H15X 5253   2.054   6.395   8.021  0.2899  0.3498  0.2564
   64SAPC  H15Y 5254   2.219   6.339   8.045  0.0366  0.9516  1.9163
   64SAPC  C316 5255   2.086   6.261   8.198  0.5967  0.4134 -0.1178
   64SAPC  H16X 5256   2.107   6.156   8.227  0.6203  0.1727 -0.9969
   64SAPC  H16Y 5257   1.976   6.264   8.213  0.5724 -0.2743 -0.1320
   64SAPC  C317 5258   2.154   6.350   8.300 -0.8729 -0.6726  0.2758
   64SAPC  H17X 5259   2.151   6.307   8.402 -0.0226 -1.2673  0.0649
   64SAPC  H17Y 5260   2.092   6.442   8.302  0.5867  0.4432 -1.9527
   64SAPC  C318 5261   2.305   6.395   8.267  0.1650  0.2011 -0.0516
   64SAPC  H18X 5262   2.310   6.449   8.170  1.0694  1.3992  0.6344
   64SAPC  H18Y 5263   2.370   6.305   8.269 -0.8443 -0.5516 -0.4453
   64SAPC  H18Z 5264   2.352   6.455   8.348  1.7788 -1.0186 -0.0232
   65SAPC     N 5265   0.516   0.738   6.322  0.2808  0.7380 -0.0037
   65SAPC   C12 5266   0.399   0.731   6.421 -0.1764  0.0719  0.2535
   65SAPC  H12A 5267   0.415   0.654   6.496  1.6542 -0.9977 -1.1406
   65SAPC  H12B 5268   0.313   0.693   6.368 -1.1980 -0.5597  2.2410
   65SAPC   C13 5269   0.540   0.611   6.257 -0.2895 -0.0657  0.3312
   65SAPC  H13A 5270   0.468   0.584   6.182  1.4774  0.1680 -1.5560
   65SAPC  H13B 5271   0.630   0.602   6.198 -1.0148  2.4981 -1.3329
   65SAPC  H13C 5272   0.546   0.534   6.332 -0.4524  0.0626  0.4780
   65SAPC   C14 5273   0.466   0.843   6.224 -1.0049 -0.7407 -0.5978
   65SAPC  H14A 5274   0.534   0.847   6.140 -1.2049  0.3434 -0.7097
   65SAPC  H14B 5275   0.367   0.811   6.195 -1.1898 -1.2524  0.5514
   65SAPC  H14C 5276   0.458   0.940   6.270 -1.1818 -0.8066 -0.4907
   65SAPC   C15 5277   0.643   0.779   6.384  0.2181  0.2232  0.6796
   65SAPC  H15A 5278   0.678   0.712   6.461 -1.2010  0.3666  1.5039
   65SAPC  H15B 5279   0.717   0.787   6.307  0.3488  0.8779  0.8720
   65SAPC  H15C 5280   0.630   0.874   6.433 -4.0970 -0.7270  1.8373
   65SAPC   C11 5281   0.364   0.858   6.498 -0.4652 -0.2864  0.0035
   65SAPC  H11A 5282   0.287   0.817   6.566  0.1586 -1.3167  0.1185
   65SAPC  H11B 5283   0.320   0.930   6.426 -0.7809 -1.6855 -1.2443
   65SAPC     P 5284   0.524   1.055   6.588  0.4321  0.0945 -0.0932
   65SAPC   O13 5285   0.662   1.062   6.609  0.3644  0.3880 -1.1419
   65SAPC   O14 5286   0.485   1.138   6.470  0.2493  0.3306 -0.8227
   65SAPC   O12 5287   0.477   0.903   6.581  0.3845  0.7060  0.0245
   65SAPC   O11 5288   0.437   1.104   6.710 -0.0706  0.2977  0.0670
   65SAPC    C1 5289   0.495   1.146   6.835  0.6078 -0.1262 -0.7175
   65SAPC    HA 5290   0.582   1.082   6.862  0.0320  0.0931  1.9583
   65SAPC    HB 5291   0.523   1.253   6.834 -0.9308  0.3306 -3.1478
   65SAPC    C2 5292   0.396   1.133   6.950 -0.1184  0.5165 -1.0121
   65SAPC    HS 5293   0.309   1.193   6.915 -0.7436 -1.0970 -2.3882
   65SAPC   O21 5294   0.464   1.180   7.069  0.1095  0.3631 -0.0873
   65SAPC   C21 5295   0.396   1.258   7.142 -0.7096 -0.5787 -0.3796
   65SAPC   O22 5296   0.279   1.294   7.135  1.1435  0.1410 -0.6548
   65SAPC   C22 5297   0.489   1.306   7.257  0.6551  0.5336 -0.1670
   65SAPC   H2R 5298   0.595   1.309   7.223  0.4982  0.6858 -0.6632
   65SAPC   H2S 5299   0.463   1.406   7.299  0.4294  0.2281  0.4319
   65SAPC    C3 5300   0.348   0.983   6.974  0.3821  0.3921 -0.3175
   65SAPC    HX 5301   0.445   0.933   6.998 -0.1006 -0.6321 -0.4331
   65SAPC    HY 5302   0.312   0.930   6.884  0.6917  0.9295 -0.7590
   65SAPC   O31 5303   0.266   0.961   7.090  0.4290 -0.0546 -0.2695
   65SAPC   C31 5304   0.137   0.988   7.068 -0.7977 -0.0575  0.0390
   65SAPC   O32 5305   0.090   1.027   6.966  0.4207  0.5560  0.0696
   65SAPC   C32 5306   0.060   0.971   7.199  0.0392 -0.8765 -0.1625
   65SAPC   H2X 5307   0.063   0.861   7.218  1.3561 -0.9811 -0.9271
   65SAPC   H2Y 5308  -0.044   1.003   7.175  0.6810 -0.0176 -1.9588
   65SAPC   C23 5309   0.482   1.204   7.380  0.3999 -0.2418 -0.0889
   65SAPC   H3R 5310   0.523   1.105   7.350 -1.1314  0.0516 -3.6340
   65SAPC   H3S 5311   0.379   1.193   7.420 -0.5284  1.3810 -1.8655
   65SAPC   C24 5312   0.571   1.265   7.491 -0.5129 -0.0691 -0.3471
   65SAPC   H4R 5313   0.528   1.366   7.504  1.2589  0.8396 -1.2261
   65SAPC   H4S 5314   0.674   1.265   7.448 -0.3279 -2.7264 -0.0694
   65SAPC   C25 5315   0.571   1.191   7.625  0.5503 -0.1936 -0.7231
   65SAPC   H5R 5316   0.510   1.239   7.703  1.6355 -2.1250  1.4419
   65SAPC   C26 5317   0.647   1.081   7.656  0.2222 -0.0498 -0.0026
   65SAPC   H6R 5318   0.654   1.045   7.760 -1.4933  2.5507  1.1341
   65SAPC   C27 5319   0.748   1.016   7.566 -0.3891  0.4085 -0.1159
   65SAPC   H7R 5320   0.836   1.084   7.573  1.2271 -1.6910  1.6700
   65SAPC   H7S 5321   0.720   1.016   7.459  0.1901 -1.2676 -0.3043
   65SAPC   C28 5322   0.800   0.881   7.606  0.3206  0.4441 -0.2157
   65SAPC   H8R 5323   0.894   0.865   7.660 -0.5334 -2.8661  0.5724
   65SAPC   C29 5324   0.729   0.768   7.577  0.1762  0.7301  0.4637
   65SAPC   H9R 5325   0.775   0.674   7.610  1.4876  0.7172 -1.2672
   65SAPC  C210 5326   0.597   0.762   7.506  0.6723  0.4076  0.2718
   65SAPC  H10R 5327   0.589   0.673   7.440  0.2781  1.1504 -0.7088
   65SAPC  H10S 5328   0.590   0.845   7.431  0.0548 -0.4017 -0.5886
   65SAPC  C211 5329   0.485   0.768   7.606 -0.3340 -0.5471 -0.1926
   65SAPC  H11R 5330   0.504   0.836   7.691 -1.8271  2.2149 -1.8963
   65SAPC  C212 5331   0.360   0.716   7.590  0.9435  0.0965  0.3083
   65SAPC  H12R 5332   0.291   0.723   7.675 -0.2801  0.9647 -0.7239
   65SAPC  C213 5333   0.313   0.645   7.463  0.2154  0.0615 -0.0842
   65SAPC  H13R 5334   0.380   0.558   7.447  0.8512  0.3736  0.7672
   65SAPC  H13S 5335   0.344   0.709   7.377 -0.6228 -0.3189 -0.6751
   65SAPC  C214 5336   0.165   0.618   7.461 -0.7971 -0.0368  0.0774
   65SAPC  H14R 5337   0.102   0.677   7.528  0.9596  1.2754  0.6474
   65SAPC  C215 5338   0.114   0.528   7.374 -0.3013  0.3702  0.9867
   65SAPC  H15R 5339   0.006   0.508   7.371 -0.6774  2.2146 -0.7432
   65SAPC  C216 5340   0.194   0.449   7.270  0.4101  0.3249 -0.4492
   65SAPC  H16R 5341   0.170   0.343   7.291 -1.3393  0.2902 -2.3185
   65SAPC  H16S 5342   0.305   0.449   7.278  0.3887 -0.5735 -0.1165
   65SAPC  C217 5343   0.161   0.499   7.128  0.2776 -0.2186  0.6563
   65SAPC  H17R 5344   0.186   0.607   7.123  1.1151 -0.4140  0.5383
   65SAPC  H17S 5345   0.051   0.503   7.107  1.0023  2.1755 -3.9839
   65SAPC  C218 5346   0.235   0.419   7.016  0.8046 -0.7804  0.5209
   65SAPC  H18R 5347   0.225   0.310   7.035 -1.1415 -0.3871  2.0617
   65SAPC  H18S 5348   0.344   0.441   7.027  1.1770 -1.4746 -1.3546
   65SAPC  C219 5349   0.187   0.449   6.873 -0.0891  0.7091 -0.9629
   65SAPC  H19R 5350   0.084   0.408   6.858  0.2771 -0.4856 -0.3541
   65SAPC  H19S 5351   0.247   0.387   6.802 -1.4473  1.1973 -2.6319
   65SAPC  C220 5352   0.188   0.604   6.848 -0.5018  0.0364 -0.1552
   65SAPC  H20R 5353   0.290   0.646   6.860  0.1438 -1.7428  0.7997
   65SAPC  H20S 5354   0.121   0.662   6.915  1.5580  0.6387  1.4594
   65SAPC  H20T 5355   0.148   0.620   6.745 -1.0428  1.3570  0.2391
   65SAPC   C33 5356   0.120   1.038   7.331 -0.3490 -0.6210 -0.3446
   65SAPC   H3X 5357   0.088   1.144   7.322 -0.9526 -0.7773 -0.1390
   65SAPC   H3Y 5358   0.231   1.035   7.336 -0.3880 -0.4290  1.3720
   65SAPC   C34 5359   0.076   0.975   7.462  0.1031 -0.3084 -0.9119
   65SAPC   H4X 5360   0.157   0.919   7.514 -1.1994 -1.7874 -0.3749
   65SAPC   H4Y 5361   0.012   0.888   7.435  0.2812 -0.3803 -1.1021
   65SAPC   C35 5362   0.009   1.081   7.548 -0.2384 -0.3639  0.0364
   65SAPC   H5X 5363  -0.086   1.122   7.508 -0.8681 -1.1773  0.6703
   65SAPC   H5Y 5364   0.082   1.163   7.568 -1.3611  0.9145 -0.9106
   65SAPC   C36 5365  -0.005   1.030   7.697  0.2179 -0.5469 -0.0539
   65SAPC   H6X 5366   0.098   1.023   7.739  1.0455  1.9744 -1.4185
   65SAPC   H6Y 5367  -0.057   0.933   7.693  0.9835 -0.9531 -0.3660
   65SAPC   C37 5368  -0.091   1.129   7.781 -0.1250  0.1808  0.3189
   65SAPC   H7X 5369  -0.188   1.141   7.728  0.1897  1.9705  0.0905
   65SAPC   H7Y 5370  -0.046   1.230   7.778 -2.3486  1.2388  0.7566
   65SAPC   C38 5371  -0.113   1.083   7.926 -0.1417  0.1472 -0.1907
   65SAPC   H8X 5372  -0.015   1.074   7.978 -1.2204 -0.6864  1.7881
   65SAPC   H8Y 5373  -0.162   0.984   7.932  0.1848 -0.1575 -1.8845
   65SAPC   C39 5374  -0.199   1.181   8.012 -0.2187 -0.0090  0.1578
   65SAPC   H9X 5375  -0.294   1.194   7.955  0.7992 -1.9532 -2.1237
   65SAPC   H9Y 5376  -0.145   1.277   8.031  0.1946  0.0312 -1.1076
   65SAPC  C310 5377  -0.224   1.135   8.152 -0.3311 -0.1317 -0.2776
   65SAPC  H10X 5378  -0.290   1.046   8.146 -1.0548  0.4256 -0.8049
   65SAPC  H10Y 5379  -0.279   1.206   8.217 -1.2580 -1.5709  0.5406
   65SAPC  C311 5380  -0.101   1.093   8.228 -0.1676 -0.5941 -0.6556
   65SAPC  H11X 5381  -0.025   1.174   8.229  0.2167 -0.8660  2.8623
   65SAPC  H11Y 5382  -0.064   0.996   8.187 -0.3724 -1.7000  1.6431
   65SAPC  C312 5383  -0.118   1.070   8.380 -0.2172 -0.1246  0.1922
   65SAPC  H12X 5384  -0.147   0.964   8.401  0.1110  0.0037  1.3313
   65SAPC  H12Y 5385  -0.210   1.123   8.412 -0.3401 -0.8309  1.0302
   65SAPC  C313 5386   0.003   1.098   8.467  0.0093 -0.5086 -1.0587
   65SAPC  H13X 5387  -0.017   1.068   8.571  1.8594 -1.2705 -0.8769
   65SAPC  H13Y 5388   0.025   1.207   8.472 -2.4831  0.0835 -1.8617
   65SAPC  C314 5389   0.121   1.020   8.419 -0.5317 -0.2983  0.1632
   65SAPC  H14X 5390   0.161   1.058   8.323  1.3172 -1.0057  0.6281
   65SAPC  H14Y 5391   0.104   0.911   8.406 -0.2873 -0.3832  0.5337
   65SAPC  C315 5392   0.230   1.043   8.527  0.4075 -0.2624 -0.6347
   65SAPC  H15X 5393   0.194   1.023   8.630  0.5888  0.5644 -0.4070
   65SAPC  H15Y 5394   0.255   1.150   8.512  0.0519 -0.1274 -0.2690
   65SAPC  C316 5395   0.356   0.961   8.511 -0.3608 -0.1419 -0.5714
   65SAPC  H16X 5396   0.412   1.021   8.436 -0.2430 -0.7566 -0.9860
   65SAPC  H16Y 5397   0.344   0.863   8.460 -0.2480 -1.0189  1.0475
   65SAPC  C317 5398   0.444   0.943   8.640  0.1974  0.9197 -0.4778
   65SAPC  H17X 5399   0.410   0.858   8.704 -1.0094  3.0597  1.9122
   65SAPC  H17Y 5400   0.433   1.030   8.708  0.8149  0.2921  0.4662
   65SAPC  C318 5401   0.593   0.932   8.607 -0.3009  0.4370 -0.0586
   65SAPC  H18X 5402   0.646   0.954   8.702 -0.6767  1.8291 -0.1355
   65SAPC  H18Y 5403   0.616   1.013   8.534 -0.1289  0.8590  0.4565
   65SAPC  H18Z 5404   0.625   0.833   8.570  2.8786 -0.1363  3.6258
   66SAPC     N 5405   5.229   1.400   6.103  0.7213  0.4185  0.0310
   66SAPC   C12 5406   5.310   1.357   6.222 -0.3881  0.2866 -0.8569
   66SAPC  H12A 5407   5.272   1.264   6.263 -1.3388  1.3937  0.8663
   66SAPC  H12B 5408   5.293   1.426   6.303 -1.7334 -0.7743 -0.1916
   66SAPC   C13 5409   5.245   1.295   5.997  0.4320  0.8583  0.0165
   66SAPC  H13A 5410   5.349   1.264   5.991  0.0336 -2.0660  3.8984
   66SAPC  H13B 5411   5.192   1.206   6.029 -0.1560  0.7167 -1.2838
   66SAPC  H13C 5412   5.193   1.331   5.910 -3.3472 -1.9456  0.8530
   66SAPC   C14 5413   5.081   1.411   6.147  0.1809 -0.1972  0.0215
   66SAPC  H14A 5414   5.017   1.434   6.063  0.5735 -2.0565 -0.8388
   66SAPC  H14B 5415   5.053   1.324   6.204  1.0175 -0.1615  0.5068
   66SAPC  H14C 5416   5.079   1.494   6.215  1.7619 -0.3619  0.3203
   66SAPC   C15 5417   5.266   1.536   6.047 -0.8619  0.3429 -0.8325
   66SAPC  H15A 5418   5.371   1.524   6.024 -0.8080 -1.0956  0.0008
   66SAPC  H15B 5419   5.213   1.552   5.954  2.3464 -1.9565 -3.2981
   66SAPC  H15C 5420   5.259   1.621   6.113  0.7029  0.9724 -1.4485
   66SAPC   C11 5421   5.465   1.344   6.203  0.5043  0.1623  0.2299
   66SAPC  H11A 5422   5.497   1.308   6.303  1.6348  0.8078  0.1155
   66SAPC  H11B 5423   5.508   1.446   6.190 -0.3846  0.8084  1.9735
   66SAPC     P 5424   5.517   1.108   6.122  0.5349 -0.2605  0.1702
   66SAPC   O13 5425   5.378   1.046   6.146  0.1623  0.3416 -0.0916
   66SAPC   O14 5426   5.596   1.044   6.013  0.0420 -0.3718  0.3480
   66SAPC   O12 5427   5.496   1.264   6.090 -0.4138  0.0499 -0.1951
   66SAPC   O11 5428   5.602   1.110   6.255 -0.8264 -0.2141  0.0241
   66SAPC    C1 5429   5.736   1.160   6.248 -0.0371  0.3521  0.5306
   66SAPC    HA 5430   5.807   1.104   6.183 -0.2011 -0.6985  1.2261
   66SAPC    HB 5431   5.738   1.269   6.227  0.6038  0.4669  1.1842
   66SAPC    C2 5432   5.802   1.160   6.391 -0.0022  1.1638  0.2333
   66SAPC    HS 5433   5.910   1.172   6.368  0.8060 -3.1158  1.0338
   66SAPC   O21 5434   5.778   1.033   6.460  0.8406  0.5181 -0.2226
   66SAPC   C21 5435   5.847   0.928   6.409 -0.5340  0.6846 -0.2532
   66SAPC   O22 5436   5.924   0.934   6.316  0.1515 -0.0055  0.3866
   66SAPC   C22 5437   5.798   0.811   6.486  0.1794  0.3039  0.2811
   66SAPC   H2R 5438   5.694   0.821   6.522  0.5863  0.0392  1.6029
   66SAPC   H2S 5439   5.785   0.730   6.413 -1.1618  0.8370 -0.0936
   66SAPC    C3 5440   5.756   1.272   6.485  0.7006  0.5365  1.1364
   66SAPC    HX 5441   5.663   1.234   6.532  2.3798 -3.6544  1.4533
   66SAPC    HY 5442   5.728   1.361   6.425 -0.6179  0.6064  1.8129
   66SAPC   O31 5443   5.854   1.295   6.581 -0.4046  0.0354 -0.0439
   66SAPC   C31 5444   5.850   1.412   6.645 -0.4787 -0.0952 -0.3126
   66SAPC   O32 5445   5.780   1.505   6.611  0.4340 -0.0986  0.3927
   66SAPC   C32 5446   5.968   1.417   6.747 -0.0046  0.8620 -0.0502
   66SAPC   H2X 5447   6.049   1.354   6.703 -0.7483  0.0259 -0.2345
   66SAPC   H2Y 5448   5.927   1.373   6.840 -0.0050 -1.3123 -1.0109
   66SAPC   C23 5449   5.901   0.758   6.594 -0.2940  0.4554  0.9970
   66SAPC   H3R 5450   6.003   0.751   6.551 -0.1891  0.7402  1.1933
   66SAPC   H3S 5451   5.879   0.661   6.643  2.2593 -1.7174 -1.8444
   66SAPC   C24 5452   5.917   0.848   6.723 -0.2534  0.2084 -1.2026
   66SAPC   H4R 5453   5.955   0.947   6.688  0.8550  0.0975 -0.3880
   66SAPC   H4S 5454   6.002   0.812   6.786 -1.5281  0.2851  0.6305
   66SAPC   C25 5455   5.794   0.853   6.811  1.3819 -0.8515  0.1626
   66SAPC   H5R 5456   5.725   0.769   6.792 -0.1163  0.0682  1.3539
   66SAPC   C26 5457   5.772   0.954   6.899 -0.8372  0.1987  0.3605
   66SAPC   H6R 5458   5.676   0.954   6.953 -0.4584  1.1973  1.0757
   66SAPC   C27 5459   5.865   1.068   6.927  0.3648  0.0858 -0.0113
   66SAPC   H7R 5460   5.890   1.115   6.829 -1.6213 -1.5863 -1.4264
   66SAPC   H7S 5461   5.962   1.030   6.966  0.7465  1.0975  0.0434
   66SAPC   C28 5462   5.806   1.166   7.028  0.2175  0.1591  0.5536
   66SAPC   H8R 5463   5.764   1.261   6.992 -1.4076 -0.6203  0.2857
   66SAPC   C29 5464   5.801   1.141   7.160 -0.7249  0.0006 -0.6881
   66SAPC   H9R 5465   5.764   1.223   7.223 -3.4656 -0.5606 -1.4372
   66SAPC  C210 5466   5.849   1.021   7.237 -0.1333  0.3782 -0.2928
   66SAPC  H10R 5467   5.954   1.044   7.264  0.1112 -1.6079  0.6320
   66SAPC  H10S 5468   5.857   0.926   7.179 -0.3698 -0.7475  1.4527
   66SAPC  C211 5469   5.763   0.992   7.359 -0.2017 -0.7981 -0.5267
   66SAPC  H11R 5470   5.660   0.957   7.347  0.2638 -2.4401 -0.0218
   66SAPC  C212 5471   5.800   1.017   7.483 -0.1588  0.1855 -0.4563
   66SAPC  H12R 5472   5.726   0.982   7.557  0.2186 -2.1645 -1.1097
   66SAPC  C213 5473   5.923   1.075   7.542 -0.7516  0.1851 -0.7097
   66SAPC  H13R 5474   5.994   1.097   7.459  0.3251 -0.4229  0.0257
   66SAPC  H13S 5475   5.979   1.000   7.602  0.0703 -0.0345 -1.7326
   66SAPC  C214 5476   5.907   1.204   7.618  0.1303  0.3575 -0.6251
   66SAPC  H14R 5477   5.929   1.300   7.567  0.7260  1.0421  0.8645
   66SAPC  C215 5478   5.900   1.209   7.752  0.9517  0.7854  0.3423
   66SAPC  H15R 5479   5.883   1.306   7.802 -0.2558  0.0765  1.3642
   66SAPC  C216 5480   5.876   1.096   7.845  0.3435 -0.1112  0.3313
   66SAPC  H16R 5481   5.966   1.032   7.853  1.0982  1.1369  2.6847
   66SAPC  H16S 5482   5.788   1.034   7.818  0.9300 -0.1728 -1.5907
   66SAPC  C217 5483   5.861   1.137   7.991 -0.6513  0.0944 -0.2190
   66SAPC  H17R 5484   5.766   1.194   8.001 -1.8492 -1.4269 -2.1869
   66SAPC  H17S 5485   5.939   1.202   8.036 -1.6337  1.7870 -0.8344
   66SAPC  C218 5486   5.845   1.001   8.067  0.1683 -0.6183 -0.1975
   66SAPC  H18R 5487   5.928   0.930   8.047 -0.2330 -0.8581 -1.0599
   66SAPC  H18S 5488   5.745   0.960   8.039  0.8312 -1.6820 -1.1206
   66SAPC  C219 5489   5.845   1.022   8.222 -0.5063  0.3773  0.0895
   66SAPC  H19R 5490   5.758   1.083   8.256 -1.3718  0.0811 -1.5177
   66SAPC  H19S 5491   5.938   1.077   8.249 -0.7065 -0.4292  2.7327
   66SAPC  C220 5492   5.847   0.884   8.288  0.5912  0.4550 -0.4192
   66SAPC  H20R 5493   5.920   0.822   8.232 -0.0140 -1.0028  0.3488
   66SAPC  H20S 5494   5.748   0.833   8.280  1.0079 -1.0693  2.6042
   66SAPC  H20T 5495   5.879   0.893   8.394  0.3112 -0.2214 -0.2685
   66SAPC   C33 5496   6.039   1.549   6.764  0.7146  0.6961 -0.2149
   66SAPC   H3X 5497   5.969   1.620   6.813  2.3384  1.4925  1.0413
   66SAPC   H3Y 5498   6.050   1.590   6.661 -0.2598  0.4457 -0.4232
   66SAPC   C34 5499   6.166   1.523   6.837  0.3125  0.1624 -1.0747
   66SAPC   H4X 5500   6.222   1.618   6.846 -0.5745  0.4956  3.4295
   66SAPC   H4Y 5501   6.225   1.450   6.777 -0.1787 -0.8955 -0.2941
   66SAPC   C35 5502   6.170   1.458   6.974  0.3678  0.4950 -0.6723
   66SAPC   H5X 5503   6.274   1.419   6.986  0.3859  0.6358 -0.3549
   66SAPC   H5Y 5504   6.106   1.369   6.987 -0.5783  1.3235  0.5910
   66SAPC   C36 5505   6.132   1.550   7.089  0.4765 -0.0563  0.0129
   66SAPC   H6X 5506   6.025   1.582   7.087  1.0937  2.3474 -3.6965
   66SAPC   H6Y 5507   6.190   1.641   7.064  0.2641 -0.0506 -0.4829
   66SAPC   C37 5508   6.162   1.504   7.237  0.4138  0.5690 -0.1564
   66SAPC   H7X 5509   6.266   1.465   7.240  0.5013  0.8442  1.6430
   66SAPC   H7Y 5510   6.085   1.425   7.247 -0.7066  1.7732  1.2254
   66SAPC   C38 5511   6.140   1.609   7.350  0.5942  0.4692 -0.3272
   66SAPC   H8X 5512   6.033   1.640   7.343  0.9957  2.0590  0.1158
   66SAPC   H8Y 5513   6.204   1.697   7.326  0.9308 -0.2140 -2.0750
   66SAPC   C39 5514   6.194   1.545   7.478  0.3407  0.2163  0.5743
   66SAPC   H9X 5515   6.285   1.486   7.453 -0.9187 -1.3841 -0.4117
   66SAPC   H9Y 5516   6.114   1.488   7.529  0.5816 -0.2799  0.3965
   66SAPC  C310 5517   6.240   1.671   7.567 -0.1738  0.5156 -0.1708
   66SAPC  H10X 5518   6.147   1.732   7.570  0.4870  1.6989 -2.2999
   66SAPC  H10Y 5519   6.314   1.729   7.509  1.7308 -1.0106  0.6275
   66SAPC  C311 5520   6.295   1.638   7.704 -0.4478 -0.0385  0.1699
   66SAPC  H11X 5521   6.319   1.738   7.745 -0.5628  0.0627 -0.0059
   66SAPC  H11Y 5522   6.386   1.574   7.699  0.3575  1.0657  0.5047
   66SAPC  C312 5523   6.196   1.557   7.803 -0.1948 -0.3843 -0.5272
   66SAPC  H12X 5524   6.150   1.476   7.742 -1.7093 -0.7083  0.9800
   66SAPC  H12Y 5525   6.105   1.604   7.846  0.1810  0.9429 -1.1351
   66SAPC  C313 5526   6.271   1.479   7.921 -0.4524  0.1882  0.2960
   66SAPC  H13X 5527   6.349   1.551   7.951 -0.8154  0.9995 -0.6428
   66SAPC  H13Y 5528   6.325   1.389   7.885 -1.6454 -1.0841  1.5587
   66SAPC  C314 5529   6.176   1.440   8.040  0.2719  0.4155 -1.1440
   66SAPC  H14X 5530   6.098   1.381   7.988  1.5283 -2.2137 -0.2087
   66SAPC  H14Y 5531   6.145   1.534   8.090  2.1905  0.1944  0.6375
   66SAPC  C315 5532   6.253   1.345   8.134  0.2540  0.5602  0.0043
   66SAPC  H15X 5533   6.344   1.396   8.172  0.8128 -1.2327  1.1712
   66SAPC  H15Y 5534   6.281   1.257   8.072 -0.8223  0.0915  0.1596
   66SAPC  C316 5535   6.170   1.303   8.256  0.2738  0.0290  0.0753
   66SAPC  H16X 5536   6.082   1.239   8.229  0.7487 -0.1851 -1.0271
   66SAPC  H16Y 5537   6.140   1.389   8.319 -1.1454 -0.5841  0.2865
   66SAPC  C317 5538   6.251   1.212   8.355  0.2991 -0.2892  0.2002
   66SAPC  H17X 5539   6.325   1.271   8.412 -0.9326 -0.6157  2.2526
   66SAPC  H17Y 5540   6.304   1.135   8.296 -1.0820 -0.0079 -1.4879
   66SAPC  C318 5541   6.152   1.150   8.447 -0.4529  0.5766 -0.3003
   66SAPC  H18X 5542   6.085   1.214   8.508 -1.6671 -0.2296 -0.7360
   66SAPC  H18Y 5543   6.201   1.071   8.509  0.8990 -1.1526 -3.3563
   66SAPC  H18Z 5544   6.085   1.081   8.391  0.0649 -2.3708  2.3856
   67SAPC     N 5545   0.539   1.877   6.280 -0.8656  0.7156  0.4751
   67SAPC   C12 5546   0.467   1.991   6.218 -0.2428  0.1232 -0.3249
   67SAPC  H12A 5547   0.366   1.963   6.193 -0.3995 -0.7026  1.1168
   67SAPC  H12B 5548   0.524   2.006   6.128  1.9043  0.1293  0.9526
   67SAPC   C13 5549   0.470   1.834   6.407  0.1651 -0.4940 -0.1756
   67SAPC  H13A 5550   0.466   1.914   6.480  0.4834  0.3638 -1.0682
   67SAPC  H13B 5551   0.367   1.810   6.384  0.8601 -1.3601 -2.7522
   67SAPC  H13C 5552   0.513   1.750   6.459 -0.4607 -1.6517 -1.4764
   67SAPC   C14 5553   0.545   1.758   6.190 -0.0623 -0.2844  0.4892
   67SAPC  H14A 5554   0.569   1.786   6.088 -1.2302 -0.5073  0.1402
   67SAPC  H14B 5555   0.614   1.681   6.222  1.7859  0.5278 -1.2964
   67SAPC  H14C 5556   0.444   1.721   6.187 -0.4386  0.3388  3.1864
   67SAPC   C15 5557   0.681   1.908   6.312  0.9477 -0.5387  0.3444
   67SAPC  H15A 5558   0.723   1.821   6.360  0.1977 -0.7748  0.5787
   67SAPC  H15B 5559   0.744   1.931   6.227  2.1546 -1.9784  0.8158
   67SAPC  H15C 5560   0.684   1.990   6.382 -0.7467  0.6535 -0.9027
   67SAPC   C11 5561   0.448   2.118   6.303 -0.0758 -0.0468  0.1923
   67SAPC  H11A 5562   0.402   2.193   6.236 -0.0343  1.1201  1.4222
   67SAPC  H11B 5563   0.544   2.161   6.338 -2.0845  2.7400  2.7836
   67SAPC     P 5564   0.211   2.085   6.397  0.6283  0.4776 -0.1907
   67SAPC   O13 5565   0.178   2.197   6.313  0.5069 -0.0242  0.0353
   67SAPC   O14 5566   0.164   1.951   6.353  0.5005 -0.1568 -0.0576
   67SAPC   O12 5567   0.365   2.085   6.421  1.1184 -0.2595 -0.1694
   67SAPC   O11 5568   0.164   2.125   6.545  0.6577 -0.3092  0.4857
   67SAPC    C1 5569   0.133   2.020   6.632  0.7892 -0.2644  0.2683
   67SAPC    HA 5570   0.041   1.966   6.601 -0.4596  1.7275  0.2938
   67SAPC    HB 5571   0.214   1.945   6.640  1.6002  0.6280  0.4882
   67SAPC    C2 5572   0.107   2.081   6.771  0.3149 -0.7939  0.3153
   67SAPC    HS 5573   0.189   2.150   6.802  0.2012  0.0453 -1.1416
   67SAPC   O21 5574   0.086   1.980   6.877  0.2999 -0.1016 -0.1534
   67SAPC   C21 5575   0.198   1.916   6.909 -0.5667 -0.4959 -0.0104
   67SAPC   O22 5576   0.308   1.945   6.864  0.6047  0.2748 -0.2094
   67SAPC   C22 5577   0.165   1.799   7.004 -0.8631  0.5820 -0.3428
   67SAPC   H2R 5578   0.096   1.833   7.084  0.3713  0.4560  0.7948
   67SAPC   H2S 5579   0.122   1.726   6.932  1.4531  0.9612 -2.2274
   67SAPC    C3 5580  -0.025   2.167   6.751  0.4756  0.3671  0.3252
   67SAPC    HX 5581  -0.105   2.107   6.703 -0.2255  0.3882  1.4436
   67SAPC    HY 5582   0.002   2.257   6.691  1.7229  1.5613  2.5291
   67SAPC   O31 5583  -0.078   2.209   6.877  0.3606 -0.4310 -0.0667
   67SAPC   C31 5584  -0.014   2.307   6.946 -0.1014 -0.2178  0.0927
   67SAPC   O32 5585   0.076   2.378   6.903  0.0659  0.7265  0.3923
   67SAPC   C32 5586  -0.073   2.312   7.080  0.3981  0.4043 -0.3110
   67SAPC   H2X 5587  -0.039   2.222   7.136 -3.0134 -0.7613  0.1437
   67SAPC   H2Y 5588  -0.183   2.306   7.066  0.1210 -0.0844  1.7288
   67SAPC   C23 5589   0.279   1.728   7.069  0.0597  0.2382 -0.0891
   67SAPC   H3R 5590   0.363   1.695   7.003  0.7970 -0.6123  1.2221
   67SAPC   H3S 5591   0.229   1.636   7.106 -0.2423  0.8206  0.9917
   67SAPC   C24 5592   0.343   1.783   7.193 -0.2246 -0.3524  0.1732
   67SAPC   H4R 5593   0.412   1.864   7.164 -0.1174 -0.0556  1.2172
   67SAPC   H4S 5594   0.409   1.707   7.240 -0.9834 -0.9909  0.2267
   67SAPC   C25 5595   0.250   1.832   7.303  0.9975  0.2292 -0.8198
   67SAPC   H5R 5596   0.171   1.902   7.272 -0.4329 -0.8048  0.3672
   67SAPC   C26 5597   0.252   1.782   7.430  0.0203 -1.1731  0.2995
   67SAPC   H6R 5598   0.172   1.823   7.493  1.0791 -0.4148  1.2164
   67SAPC   C27 5599   0.327   1.666   7.487 -0.1933 -0.4484 -0.0900
   67SAPC   H7R 5600   0.377   1.608   7.406 -0.4737  1.7739 -1.9401
   67SAPC   H7S 5601   0.242   1.604   7.522 -0.8048  0.7431  0.6191
   67SAPC   C28 5602   0.415   1.714   7.599 -0.6417 -0.0587 -0.4960
   67SAPC   H8R 5603   0.453   1.817   7.595  1.7626 -0.8027  0.9187
   67SAPC   C29 5604   0.431   1.651   7.713 -0.1844  0.2127 -0.2289
   67SAPC   H9R 5605   0.511   1.698   7.773  0.7268 -0.3919 -0.9295
   67SAPC  C210 5606   0.367   1.516   7.745  0.3098  0.2601  0.9511
   67SAPC  H10R 5607   0.449   1.441   7.749  0.4486  0.4637  2.7739
   67SAPC  H10S 5608   0.299   1.478   7.666  0.4856  1.8753 -0.0214
   67SAPC  C211 5609   0.297   1.515   7.877 -0.1648 -0.0423  0.3120
   67SAPC  H11R 5610   0.283   1.613   7.926  1.7623 -0.0735  1.0435
   67SAPC  C212 5611   0.263   1.408   7.953  0.1897 -0.2227 -1.0476
   67SAPC  H12R 5612   0.204   1.430   8.043  0.3616  0.4948 -1.1083
   67SAPC  C213 5613   0.279   1.263   7.925  0.1862  0.3158  0.1468
   67SAPC  H13R 5614   0.369   1.244   7.863 -1.2114  0.5564 -2.0307
   67SAPC  H13S 5615   0.201   1.247   7.848  1.4837 -0.2963 -1.0637
   67SAPC  C214 5616   0.259   1.170   8.043 -0.5925 -0.3099  0.2284
   67SAPC  H14R 5617   0.172   1.187   8.109 -0.6316  0.3321  0.0233
   67SAPC  C215 5618   0.335   1.067   8.070 -0.0645 -0.3576 -0.8127
   67SAPC  H15R 5619   0.302   0.994   8.145  0.6379  1.4059  1.3403
   67SAPC  C216 5620   0.455   1.026   7.988  0.6035  0.8390 -0.3966
   67SAPC  H16R 5621   0.544   1.085   8.020  2.2820 -1.3216 -0.7974
   67SAPC  H16S 5622   0.442   1.044   7.880  0.8899 -1.5269 -0.8728
   67SAPC  C217 5623   0.509   0.879   7.995 -0.6147  0.2287  0.0713
   67SAPC  H17R 5624   0.603   0.871   7.935 -0.0646 -0.3485  0.9749
   67SAPC  H17S 5625   0.444   0.807   7.940 -1.2009 -0.8863  2.0946
   67SAPC  C218 5626   0.559   0.829   8.136 -1.3905  0.2499  0.0189
   67SAPC  H18R 5627   0.478   0.823   8.212 -0.7493  1.3450  0.8150
   67SAPC  H18S 5628   0.633   0.908   8.159  0.4084 -1.9614  2.4285
   67SAPC  C219 5629   0.646   0.700   8.130  1.1223 -0.5058 -0.5621
   67SAPC  H19R 5630   0.720   0.716   8.049  0.7484 -1.2039 -1.0580
   67SAPC  H19S 5631   0.583   0.617   8.090  1.4164 -1.2553  0.4963
   67SAPC  C220 5632   0.696   0.664   8.273 -0.0260  0.3983  0.7320
   67SAPC  H20R 5633   0.798   0.706   8.283 -0.0766  0.9762 -0.9149
   67SAPC  H20S 5634   0.703   0.553   8.280  1.8836  0.4840  0.6003
   67SAPC  H20T 5635   0.619   0.685   8.351  1.0376 -1.3103  2.3150
   67SAPC   C33 5636  -0.036   2.435   7.167  0.2276  0.4225 -0.7103
   67SAPC   H3X 5637  -0.066   2.528   7.114  2.1890  0.8584 -1.1305
   67SAPC   H3Y 5638   0.074   2.425   7.180 -0.0064 -1.9894 -0.1453
   67SAPC   C34 5639  -0.124   2.431   7.292 -0.4332 -0.0098  0.1386
   67SAPC   H4X 5640  -0.127   2.329   7.335 -0.9678  0.6944  1.8905
   67SAPC   H4Y 5641  -0.230   2.449   7.265 -0.8419 -0.0337  1.6063
   67SAPC   C35 5642  -0.077   2.529   7.400  0.3049 -0.4949  0.3620
   67SAPC   H5X 5643   0.031   2.514   7.419  0.6785  1.0141 -0.3905
   67SAPC   H5Y 5644  -0.136   2.524   7.494  0.4870 -2.0608  0.4121
   67SAPC   C36 5645  -0.105   2.668   7.349  0.7014 -0.5216  0.5653
   67SAPC   H6X 5646  -0.214   2.690   7.359  0.8898  1.2513 -0.8448
   67SAPC   H6Y 5647  -0.082   2.679   7.241  0.7517 -1.3325  0.4881
   67SAPC   C37 5648  -0.025   2.776   7.418 -0.2503  0.0430 -0.2607
   67SAPC   H7X 5649  -0.057   2.869   7.366 -1.9238  0.4782  1.4436
   67SAPC   H7Y 5650   0.082   2.754   7.395 -0.2104  0.2892 -0.3181
   67SAPC   C38 5651  -0.036   2.778   7.573 -0.1857 -0.0080 -0.3706
   67SAPC   H8X 5652   0.031   2.856   7.615  1.2782 -0.8288 -1.1155
   67SAPC   H8Y 5653  -0.014   2.678   7.616 -2.2804  0.9099  3.2117
   67SAPC   C39 5654  -0.178   2.817   7.619  0.1142 -0.4043  0.8736
   67SAPC   H9X 5655  -0.249   2.745   7.574  1.3724 -0.9266 -0.3343
   67SAPC   H9Y 5656  -0.204   2.921   7.587 -1.0642 -0.1923  2.3762
   67SAPC  C310 5657  -0.202   2.815   7.769  0.7384  0.6428 -0.1179
   67SAPC  H10X 5658  -0.151   2.725   7.810  0.4899  0.6340  0.1793
   67SAPC  H10Y 5659  -0.312   2.807   7.785  0.6573 -0.5412 -1.1462
   67SAPC  C311 5660  -0.151   2.923   7.860  0.4486  0.2793 -0.3178
   67SAPC  H11X 5661  -0.191   3.022   7.828 -1.9472 -0.7894 -0.8402
   67SAPC  H11Y 5662  -0.040   2.910   7.859  0.3046 -0.9727 -1.1165
   67SAPC  C312 5663  -0.206   2.905   8.000  0.3131 -0.5942 -0.0802
   67SAPC  H12X 5664  -0.199   2.802   8.041 -2.1908 -0.4117  0.9854
   67SAPC  H12Y 5665  -0.315   2.923   8.008  0.5196  0.6702  0.1023
   67SAPC  C313 5666  -0.151   2.992   8.105 -0.5518 -0.6643  0.2257
   67SAPC  H13X 5667  -0.180   3.098   8.087 -0.7587 -1.0392 -1.8525
   67SAPC  H13Y 5668  -0.040   2.994   8.100 -0.5897 -0.4467 -0.6934
   67SAPC  C314 5669  -0.197   2.975   8.245  0.0523 -0.4271 -0.0512
   67SAPC  H14X 5670  -0.181   2.867   8.267  2.2320 -0.1213  0.1602
   67SAPC  H14Y 5671  -0.306   2.995   8.247  0.1889  0.4019 -0.6495
   67SAPC  C315 5672  -0.122   3.065   8.346  0.0252  0.1846 -0.0634
   67SAPC  H15X 5673  -0.163   3.039   8.446  2.6301  0.0031  1.0413
   67SAPC  H15Y 5674  -0.143   3.166   8.307  0.0199 -0.5039 -1.9444
   67SAPC  C316 5675   0.023   3.015   8.373 -0.2337  0.4420 -0.2456
   67SAPC  H16X 5676   0.077   3.016   8.276  1.1660 -1.6612  0.4294
   67SAPC  H16Y 5677   0.015   2.906   8.393  0.8128  0.3151 -0.4534
   67SAPC  C317 5678   0.101   3.084   8.487  0.5724  0.8808 -0.7745
   67SAPC  H17X 5679   0.191   3.028   8.521 -1.4826 -0.9289  2.1353
   67SAPC  H17Y 5680   0.044   3.092   8.582  2.9338  0.8886  0.7241
   67SAPC  C318 5681   0.138   3.229   8.462 -0.9837  0.3273  0.2099
   67SAPC  H18X 5682   0.052   3.285   8.419  0.1989  2.6268  0.7023
   67SAPC  H18Y 5683   0.232   3.225   8.403 -1.5202  1.6161 -0.7825
   67SAPC  H18Z 5684   0.164   3.282   8.556 -3.6666  1.4690  0.4000
   68SAPC     N 5685   4.997   2.070   6.434  0.2573  0.4568 -0.1386
   68SAPC   C12 5686   5.144   2.039   6.442 -1.3890 -0.3696  0.3277
   68SAPC  H12A 5687   5.201   2.125   6.473  0.9397 -0.9241 -2.0894
   68SAPC  H12B 5688   5.170   2.021   6.339 -2.0575  1.2462 -0.1455
   68SAPC   C13 5689   4.986   2.191   6.349  0.3269 -1.0576  0.3816
   68SAPC  H13A 5690   5.012   2.271   6.416  1.3244 -0.5145 -0.6199
   68SAPC  H13B 5691   5.052   2.171   6.266 -0.4772  0.4536 -0.6802
   68SAPC  H13C 5692   4.885   2.210   6.314 -0.4326  1.3495  3.3915
   68SAPC   C14 5693   4.921   1.958   6.376  0.8471  0.0251  0.2409
   68SAPC  H14A 5694   4.946   1.870   6.434 -0.0641 -0.4920 -0.1388
   68SAPC  H14B 5695   4.813   1.965   6.372  0.9079  0.4214 -2.3000
   68SAPC  H14C 5696   4.952   1.938   6.275 -0.5526 -2.7566  0.2561
   68SAPC   C15 5697   4.950   2.101   6.572  0.3369  0.6423  0.1831
   68SAPC  H15A 5698   4.969   2.020   6.641  1.3314  0.0085 -0.7961
   68SAPC  H15B 5699   5.000   2.189   6.610  0.5929  0.2667  0.7465
   68SAPC  H15C 5700   4.843   2.114   6.573  0.1188 -0.9723 -0.2907
   68SAPC   C11 5701   5.192   1.915   6.522 -0.7820  0.2999 -0.3663
   68SAPC  H11A 5702   5.167   1.921   6.631 -0.0242  1.8206 -0.2483
   68SAPC  H11B 5703   5.302   1.929   6.522 -0.6304 -0.7511 -1.1607
   68SAPC     P 5704   5.245   1.691   6.414  0.3381  0.2319 -0.0541
   68SAPC   O13 5705   5.266   1.715   6.269  0.5599 -0.0881  0.1761
   68SAPC   O14 5706   5.373   1.681   6.491 -0.1019  0.1004 -0.2835
   68SAPC   O12 5707   5.143   1.792   6.477  0.5816 -0.3219  0.2005
   68SAPC   O11 5708   5.164   1.552   6.422 -0.1997  0.0114 -0.1584
   68SAPC    C1 5709   5.038   1.535   6.491  0.6234  0.0871  0.8759
   68SAPC    HA 5710   4.999   1.630   6.532  1.6206  2.6653 -3.4723
   68SAPC    HB 5711   4.957   1.495   6.426 -2.2709  2.0883  3.0068
   68SAPC    C2 5712   5.047   1.437   6.614 -0.6839 -0.5848  0.1937
   68SAPC    HS 5713   4.947   1.429   6.662  0.0035 -0.3422  1.7008
   68SAPC   O21 5714   5.149   1.478   6.706  0.4543  0.3604  0.4981
   68SAPC   C21 5715   5.123   1.585   6.780  0.2877  0.7896 -0.5769
   68SAPC   O22 5716   5.020   1.652   6.774  0.0042  0.0209 -0.2793
   68SAPC   C22 5717   5.229   1.608   6.884  0.2042  0.0516  0.1265
   68SAPC   H2R 5718   5.322   1.557   6.850 -0.7307 -2.1310  0.6921
   68SAPC   H2S 5719   5.257   1.715   6.888  0.9854 -0.0703 -1.1752
   68SAPC    C3 5720   5.081   1.298   6.552 -0.7661  0.1321 -0.4549
   68SAPC    HX 5721   5.191   1.287   6.560 -0.9211 -0.3801  2.0370
   68SAPC    HY 5722   5.054   1.290   6.445 -0.4862 -1.8524 -0.4077
   68SAPC   O31 5723   5.011   1.193   6.618 -0.0501 -0.2356 -0.2814
   68SAPC   C31 5724   5.073   1.128   6.719 -1.5071  0.2675  0.1777
   68SAPC   O32 5725   5.189   1.146   6.750 -0.6608  0.4130 -0.0480
   68SAPC   C32 5726   4.973   1.044   6.791 -0.1204  0.4229 -0.3968
   68SAPC   H2X 5727   4.987   0.937   6.762 -0.0335  0.7766 -1.7188
   68SAPC   H2Y 5728   4.872   1.081   6.764  0.6652  2.6479 -0.4407
   68SAPC   C23 5729   5.197   1.553   7.026  0.3375 -0.9644 -0.1548
   68SAPC   H3R 5730   5.095   1.593   7.047 -0.2304 -1.7483 -1.3059
   68SAPC   H3S 5731   5.266   1.606   7.094  0.3829 -0.0901 -0.8568
   68SAPC   C24 5732   5.194   1.400   7.034  0.1600  0.1548 -0.7866
   68SAPC   H4R 5733   5.126   1.351   6.961 -1.5490  0.9267  0.2512
   68SAPC   H4S 5734   5.144   1.373   7.129 -1.7390 -0.3185 -1.8593
   68SAPC   C25 5735   5.340   1.350   7.026  0.3235 -0.3534  0.7473
   68SAPC   H5R 5736   5.381   1.365   6.926 -0.8197  2.6988  0.6398
   68SAPC   C26 5737   5.414   1.293   7.124  0.4053 -0.2534  0.3918
   68SAPC   H6R 5738   5.508   1.251   7.085  0.4792 -0.2384  0.5532
   68SAPC   C27 5739   5.382   1.272   7.265 -0.6288  0.9794 -0.0609
   68SAPC   H7R 5740   5.323   1.178   7.274  1.1282  0.0177  3.2789
   68SAPC   H7S 5741   5.320   1.356   7.302 -1.7656 -0.4258  1.4051
   68SAPC   C28 5742   5.492   1.249   7.361  0.0326  0.7728  0.2548
   68SAPC   H8R 5743   5.574   1.184   7.325 -1.1212  0.8048 -2.6760
   68SAPC   C29 5744   5.505   1.294   7.489 -0.7718 -0.3720  0.5174
   68SAPC   H9R 5745   5.595   1.271   7.548 -2.7376  0.7303  4.3059
   68SAPC  C210 5746   5.412   1.385   7.561  0.4820 -0.0731 -0.3665
   68SAPC  H10R 5747   5.392   1.478   7.504 -1.5746  0.3453  0.9153
   68SAPC  H10S 5748   5.454   1.417   7.659  1.3742 -3.0590  0.3138
   68SAPC  C211 5749   5.284   1.305   7.588 -0.6691 -0.4166  0.0916
   68SAPC  H11R 5750   5.241   1.260   7.497  1.5169 -0.7217 -0.8508
   68SAPC  C212 5751   5.235   1.266   7.708 -0.7897 -0.1347  0.3626
   68SAPC  H12R 5752   5.134   1.223   7.714 -1.3863  1.1789  0.0893
   68SAPC  C213 5753   5.305   1.304   7.836  0.4956  0.4179  0.3134
   68SAPC  H13R 5754   5.320   1.414   7.827  0.7663  0.2995 -0.9146
   68SAPC  H13S 5755   5.399   1.244   7.830 -0.7411 -1.5578 -0.2837
   68SAPC  C214 5756   5.231   1.271   7.965  0.3582  0.5141 -0.1642
   68SAPC  H14R 5757   5.221   1.164   7.988  1.2987  0.8144  1.8316
   68SAPC  C215 5758   5.169   1.353   8.053 -0.3835 -0.2983  0.3380
   68SAPC  H15R 5759   5.126   1.304   8.142 -0.8872  0.7245  0.6672
   68SAPC  C216 5760   5.159   1.504   8.056  0.4279  0.1084 -0.2288
   68SAPC  H16R 5761   5.116   1.545   7.963 -0.6562 -0.4483  0.0144
   68SAPC  H16S 5762   5.263   1.545   8.062  1.1967 -1.9413  1.8699
   68SAPC  C217 5763   5.083   1.568   8.172  0.0143  0.7213 -0.1169
   68SAPC  H17R 5764   4.982   1.522   8.180 -0.0304  0.7533 -0.4748
   68SAPC  H17S 5765   5.081   1.676   8.148  2.1953  0.3796 -2.2261
   68SAPC  C218 5766   5.141   1.545   8.313 -0.7649  0.9978  0.6134
   68SAPC  H18R 5767   5.250   1.563   8.310 -0.5772  0.2527  2.0817
   68SAPC  H18S 5768   5.142   1.435   8.329 -0.4422  0.7616 -0.8722
   68SAPC  C219 5769   5.080   1.615   8.437  0.0368  0.4600  0.3441
   68SAPC  H19R 5770   4.969   1.618   8.435  0.0495  1.0642  0.0125
   68SAPC  H19S 5771   5.097   1.725   8.432  1.7947  0.1885 -0.5054
   68SAPC  C220 5772   5.137   1.565   8.566 -0.7341  0.1894 -1.2352
   68SAPC  H20R 5773   5.141   1.638   8.649  0.0186 -0.6288 -0.5326
   68SAPC  H20S 5774   5.241   1.528   8.558 -0.9022 -0.5179 -0.2154
   68SAPC  H20T 5775   5.083   1.474   8.601 -0.5416 -0.3545 -2.2916
   68SAPC   C33 5776   4.990   1.058   6.947 -0.1056  0.0645 -0.4120
   68SAPC   H3X 5777   4.967   1.158   6.990  0.3498 -0.8922  2.2297
   68SAPC   H3Y 5778   5.097   1.034   6.965 -0.1233  0.5943  0.4613
   68SAPC   C34 5779   4.904   0.952   7.018 -0.0014  0.7785  0.5708
   68SAPC   H4X 5780   4.911   0.848   6.978 -1.2813  1.0099 -0.3305
   68SAPC   H4Y 5781   4.796   0.969   6.997 -1.4935 -3.7961  3.1988
   68SAPC   C35 5782   4.928   0.959   7.172  0.0737 -0.8125  0.0034
   68SAPC   H5X 5783   4.847   0.906   7.227 -0.1917 -0.3982  0.0255
   68SAPC   H5Y 5784   4.927   1.066   7.204 -0.8163 -0.2826 -1.6487
   68SAPC   C36 5785   5.055   0.897   7.218  0.0840  0.2529 -0.0745
   68SAPC   H6X 5786   5.132   0.905   7.139 -1.0620 -0.0229 -1.2551
   68SAPC   H6Y 5787   5.049   0.786   7.223 -1.6482  0.3203 -0.0593
   68SAPC   C37 5788   5.108   0.937   7.354  0.2575  0.8516 -0.2470
   68SAPC   H7X 5789   5.152   1.039   7.345 -3.1404  2.4128 -0.5968
   68SAPC   H7Y 5790   5.199   0.880   7.385 -0.6172  0.4592  1.7079
   68SAPC   C38 5791   5.011   0.935   7.472 -0.8030  0.1690  0.3237
   68SAPC   H8X 5792   4.936   0.855   7.455  1.2013 -1.3470 -1.8389
   68SAPC   H8Y 5793   4.966   1.037   7.479  0.8141  1.0320 -1.2845
   68SAPC   C39 5794   5.082   0.900   7.603  0.1942  0.2124 -0.2993
   68SAPC   H9X 5795   5.139   0.988   7.639 -0.6377  0.2324  1.0060
   68SAPC   H9Y 5796   5.154   0.815   7.603  1.5726  1.3024  1.3732
   68SAPC  C310 5797   4.982   0.872   7.713  0.0255  0.4822 -0.2959
   68SAPC  H10X 5798   4.936   0.776   7.680  1.2447  0.2338 -1.3404
   68SAPC  H10Y 5799   4.901   0.947   7.728 -0.6385 -0.3663  0.4763
   68SAPC  C311 5800   5.053   0.861   7.848 -0.3018 -0.8353  0.4615
   68SAPC  H11X 5801   5.101   0.958   7.872  1.0042 -1.5012  0.6678
   68SAPC  H11Y 5802   5.136   0.788   7.841  0.3221 -0.1689  0.7962
   68SAPC  C312 5803   4.967   0.821   7.965  0.2679 -0.9003  0.1073
   68SAPC  H12X 5804   4.944   0.713   7.951 -1.4672 -0.3618 -1.7695
   68SAPC  H12Y 5805   4.871   0.874   7.948  0.2320 -1.0298 -0.1036
   68SAPC  C313 5806   5.029   0.849   8.097  0.1103  0.3122 -0.6654
   68SAPC  H13X 5807   5.092   0.940   8.105  0.3581  0.0100  1.3317
   68SAPC  H13Y 5808   5.097   0.763   8.115 -0.8741 -0.6527 -1.4139
   68SAPC  C314 5809   4.924   0.841   8.208  0.7620 -0.7309  0.0528
   68SAPC  H14X 5810   4.858   0.756   8.179 -1.5458  0.2544  2.0043
   68SAPC  H14Y 5811   4.855   0.928   8.200 -0.5354 -1.5990  1.1876
   68SAPC  C315 5812   4.989   0.819   8.345  0.0445 -0.0556  0.4557
   68SAPC  H15X 5813   5.060   0.733   8.349  0.7758  0.4554 -0.8292
   68SAPC  H15Y 5814   4.914   0.803   8.425 -0.5391  0.0549 -0.0668
   68SAPC  C316 5815   5.079   0.937   8.398 -0.2225  0.4326 -0.0253
   68SAPC  H16X 5816   5.173   0.948   8.340 -0.8200  1.7113 -0.7931
   68SAPC  H16Y 5817   5.100   0.908   8.504  0.8115 -0.0385 -0.3498
   68SAPC  C317 5818   5.005   1.070   8.392 -0.3343 -0.3096  0.4144
   68SAPC  H17X 5819   5.010   1.116   8.291  0.7331 -1.0937  0.0900
   68SAPC  H17Y 5820   5.074   1.140   8.443 -1.2307  1.1016 -0.2450
   68SAPC  C318 5821   4.882   1.085   8.469  0.2339  0.1885 -0.4878
   68SAPC  H18X 5822   4.854   1.189   8.497 -0.6938 -0.1984  0.0764
   68SAPC  H18Y 5823   4.903   1.042   8.570  0.0706  1.3264  0.0442
   68SAPC  H18Z 5824   4.791   1.032   8.432  0.2115  1.0054 -1.6440
   69SLPC     N 5825   4.441   4.292  11.483  0.1374 -0.4080 -0.0204
   69SLPC   C13 5826   4.423   4.253  11.627 -0.0346 -0.4551 -0.1629
   69SLPC  H13A 5827   4.518   4.240  11.678  0.7734  0.2175 -1.4445
   69SLPC  H13B 5828   4.369   4.328  11.683  1.4132  0.1332  0.5184
   69SLPC  H13C 5829   4.363   4.164  11.635 -0.1720 -0.6540 -2.7089
   69SLPC   C14 5830   4.492   4.433  11.470  0.1153 -0.0668 -0.1531
   69SLPC  H14A 5831   4.494   4.467  11.368 -0.3000 -1.0529 -0.5019
   69SLPC  H14B 5832   4.444   4.509  11.530  0.6578  0.8577 -0.8666
   69SLPC  H14C 5833   4.594   4.429  11.506  0.2384  1.5456 -0.2659
   69SLPC   C15 5834   4.298   4.289  11.432  0.5442  1.1634  0.1523
   69SLPC  H15A 5835   4.237   4.356  11.491  0.2593  0.8553  0.2117
   69SLPC  H15B 5836   4.290   4.328  11.331 -1.5683  0.6868  0.1077
   69SLPC  H15C 5837   4.253   4.191  11.434  0.2026  1.2895 -0.9360
   69SLPC   C12 5838   4.522   4.200  11.402 -0.3458  0.2053 -0.0104
   69SLPC  H12A 5839   4.484   4.099  11.402  2.1586 -0.7989  0.7603
   69SLPC  H12B 5840   4.616   4.181  11.451 -0.8902  0.5599  1.2038
   69SLPC   C11 5841   4.550   4.234  11.259  0.7347  0.3143 -0.2811
   69SLPC  H11A 5842   4.622   4.161  11.216  0.8901  0.0731  0.3836
   69SLPC  H11B 5843   4.596   4.335  11.260 -2.6481  1.9726 -0.7001
   69SLPC     P 5844   4.364   4.114  11.128 -0.6662  0.4463 -0.1868
   69SLPC   O13 5845   4.373   4.008  11.236 -0.3527  0.2083 -0.2337
   69SLPC   O14 5846   4.228   4.146  11.086 -0.1254  0.3699  0.6695
   69SLPC   O12 5847   4.440   4.243  11.177 -0.1249  0.6685 -0.1986
   69SLPC   O11 5848   4.440   4.070  10.995  0.0592  0.5868  0.3680
   69SLPC    C1 5849   4.483   4.182  10.912  0.0257 -0.6646  0.4872
   69SLPC    HA 5850   4.424   4.275  10.927  0.9614 -0.3342  2.3416
   69SLPC    HB 5851   4.591   4.203  10.918 -0.0467  0.3977 -1.1771
   69SLPC    C2 5852   4.465   4.144  10.765 -0.2226 -0.4443  0.6783
   69SLPC    HS 5853   4.552   4.083  10.730  0.2055  0.5895 -0.1162
   69SLPC   O21 5854   4.449   4.255  10.676  0.2155 -0.3040 -0.2022
   69SLPC   C21 5855   4.552   4.334  10.658 -0.4594  0.1209  0.6656
   69SLPC   O22 5856   4.658   4.322  10.712  0.0565  0.1090 -0.6500
   69SLPC   C22 5857   4.511   4.449  10.561  0.1537 -0.1607 -0.3293
   69SLPC   H2R 5858   4.404   4.475  10.577  0.2079 -0.5560  0.7636
   69SLPC   H2S 5859   4.568   4.541  10.586  0.4432 -0.2655 -0.6007
   69SLPC    C3 5860   4.348   4.036  10.734 -0.3233 -0.0270  0.5356
   69SLPC    HX 5861   4.249   4.084  10.748 -0.7714 -0.0823 -1.9836
   69SLPC    HY 5862   4.353   3.949  10.803  1.7357 -2.0693 -1.9595
   69SLPC   O31 5863   4.375   3.986  10.598  0.6319 -0.1913 -0.5139
   69SLPC   C31 5864   4.283   4.039  10.510 -0.5907  0.4249  0.9485
   69SLPC   O32 5865   4.189   4.111  10.529  0.4001 -0.3563 -0.3441
   69SLPC   C32 5866   4.321   3.977  10.369  0.4737 -0.3141  0.3266
   69SLPC   H2X 5867   4.413   4.032  10.341  0.9122 -0.1364  2.0212
   69SLPC   H2Y 5868   4.241   4.009  10.298 -1.8412 -1.1313  2.4142
   69SLPC   C23 5869   4.538   4.420  10.408  0.2036  0.0894 -0.2554
   69SLPC   H3R 5870   4.645   4.394  10.395  0.3268  1.5662 -2.6099
   69SLPC   H3S 5871   4.511   4.515  10.357 -2.1095 -1.2801 -1.7324
   69SLPC   C24 5872   4.439   4.323  10.341 -0.4475  0.6547 -0.8329
   69SLPC   H4R 5873   4.334   4.349  10.365 -1.5700 -0.4975 -4.0567
   69SLPC   H4S 5874   4.468   4.218  10.365  1.1254  0.9614 -1.2384
   69SLPC   C25 5875   4.444   4.332  10.191  0.3335 -0.0559  0.5392
   69SLPC   H5R 5876   4.542   4.301  10.149  0.7679  3.6974 -1.6776
   69SLPC   H5S 5877   4.433   4.441  10.175 -0.5422 -0.0942  0.8043
   69SLPC   C26 5878   4.326   4.265  10.124  0.1886 -0.1074  0.3774
   69SLPC   H6R 5879   4.233   4.317  10.156  0.5150  2.3793 -2.2560
   69SLPC   H6S 5880   4.324   4.161  10.162  0.3523 -0.9250 -1.7017
   69SLPC   C27 5881   4.344   4.264   9.968  0.1493 -0.2807  0.2069
   69SLPC   H7R 5882   4.434   4.202   9.950 -0.3325 -1.2210  0.9755
   69SLPC   H7S 5883   4.367   4.368   9.936 -0.3066 -0.1793  0.2034
   69SLPC   C28 5884   4.224   4.197   9.894  0.7236  0.0140  0.1645
   69SLPC   H8R 5885   4.129   4.249   9.922  0.2694  0.2022 -1.6309
   69SLPC   H8S 5886   4.214   4.093   9.930 -2.0273  0.1408  0.0058
   69SLPC   C29 5887   4.253   4.203   9.751  0.0009 -0.3785  0.4055
   69SLPC   H9R 5888   4.350   4.185   9.703 -0.8330  0.5150 -1.7727
   69SLPC  C210 5889   4.156   4.230   9.657 -0.6542  0.2973  0.3988
   69SLPC  H10R 5890   4.189   4.246   9.553  1.9536  0.8885  1.2430
   69SLPC  C211 5891   4.009   4.251   9.680  0.3357 -0.0056  0.8389
   69SLPC  H11R 5892   3.984   4.358   9.662 -0.1288 -0.2850 -0.3041
   69SLPC  H11S 5893   3.968   4.221   9.778 -3.0116  0.1778 -0.3667
   69SLPC  C212 5894   3.934   4.157   9.577 -0.3727 -0.2665  0.8999
   69SLPC  H12R 5895   3.943   4.050   9.601 -0.2767 -0.3766  0.3786
   69SLPC  C213 5896   3.876   4.187   9.461  0.4687 -0.2455  0.2984
   69SLPC  H13R 5897   3.842   4.106   9.395  0.7272  1.7492 -2.4548
   69SLPC  C214 5898   3.872   4.320   9.402  0.4075 -0.1812 -0.5130
   69SLPC  H14R 5899   3.878   4.395   9.484  0.3201 -1.2802  0.5411
   69SLPC  H14S 5900   3.780   4.339   9.343  0.6622 -0.6519 -1.0769
   69SLPC  C215 5901   3.995   4.352   9.314 -0.0831 -0.7403 -0.8334
   69SLPC  H15R 5902   4.085   4.340   9.378 -0.0985  2.4025 -0.0335
   69SLPC  H15S 5903   3.986   4.462   9.296 -0.0279 -0.3008  1.5209
   69SLPC  C216 5904   4.003   4.279   9.189 -0.1351 -0.2664  0.9190
   69SLPC  H16R 5905   4.017   4.172   9.213  0.5064 -0.5896 -0.7391
   69SLPC  H16S 5906   4.094   4.307   9.131 -0.0016  1.7071  1.9953
   69SLPC  C217 5907   3.879   4.286   9.093 -0.1833 -0.5556  0.2589
   69SLPC  H17R 5908   3.787   4.248   9.142  0.7855 -2.4247  0.6908
   69SLPC  H17S 5909   3.894   4.218   9.006 -1.6294  2.5913 -2.6968
   69SLPC  C218 5910   3.863   4.422   9.029 -0.5844  0.5220 -0.3276
   69SLPC  H18R 5911   3.794   4.423   8.942 -0.8327  1.4911 -0.1308
   69SLPC  H18S 5912   3.963   4.455   8.993  0.8546 -2.9407  0.0884
   69SLPC  H18T 5913   3.818   4.492   9.102 -0.7264 -1.0293  1.1092
   69SLPC   C33 5914   4.334   3.825  10.349  0.1952  0.0656 -0.0276
   69SLPC   H3X 5915   4.235   3.785  10.378  0.8751 -1.2673  0.5064
   69SLPC   H3Y 5916   4.420   3.793  10.412  0.7497  1.4327 -0.0595
   69SLPC   C34 5917   4.360   3.790  10.202 -1.0313 -0.0037 -0.0480
   69SLPC   H4X 5918   4.400   3.687  10.193  2.8032  1.3741 -0.8066
   69SLPC   H4Y 5919   4.436   3.861  10.162 -0.2505 -1.5976 -1.5386
   69SLPC   C35 5920   4.246   3.800  10.108 -0.1041  0.0836  0.5430
   69SLPC   H5X 5921   4.206   3.903  10.127 -0.3429  0.3708 -1.3485
   69SLPC   H5Y 5922   4.170   3.721  10.125 -0.9676  1.2156  2.3410
   69SLPC   C36 5923   4.290   3.790   9.960 -0.1838 -0.0886  0.4094
   69SLPC   H6X 5924   4.346   3.694   9.966  1.3730  0.6419 -1.3238
   69SLPC   H6Y 5925   4.363   3.872   9.938 -1.0516  0.0889 -2.1881
   69SLPC   C37 5926   4.179   3.783   9.860 -0.0261 -0.2228 -0.8415
   69SLPC   H7X 5927   4.113   3.870   9.878 -1.6366 -0.8026 -3.4623
   69SLPC   H7Y 5928   4.127   3.687   9.880  0.3590 -0.0166  1.4340
   69SLPC   C38 5929   4.217   3.771   9.712  0.0050  0.2981 -0.0042
   69SLPC   H8X 5930   4.284   3.683   9.702 -2.8845 -2.0092 -0.2580
   69SLPC   H8Y 5931   4.275   3.861   9.681  1.7653 -0.8287 -0.0964
   69SLPC   C39 5932   4.102   3.764   9.615  0.6070 -0.0274 -0.6632
   69SLPC   H9X 5933   4.040   3.854   9.632 -0.8604 -0.8688 -1.2938
   69SLPC   H9Y 5934   4.034   3.677   9.627 -0.5801  0.9949  0.2856
   69SLPC  C310 5935   4.153   3.771   9.470 -1.0380 -0.1042 -0.3905
   69SLPC  H10X 5936   4.232   3.692   9.467  1.4177  2.2610 -2.4279
   69SLPC  H10Y 5937   4.206   3.865   9.444  2.8769 -1.9475  0.1173
   69SLPC  C311 5938   4.049   3.727   9.369  0.8795 -1.2781 -0.0225
   69SLPC  H11X 5939   3.980   3.651   9.411  0.3752 -0.1896  1.1621
   69SLPC  H11Y 5940   4.106   3.697   9.279  0.5752  0.9206 -1.0137
   69SLPC  C312 5941   3.966   3.848   9.335 -0.0147 -0.0899 -0.6570
   69SLPC  H12X 5942   4.031   3.928   9.294  2.0103 -0.4063  1.6761
   69SLPC  H12Y 5943   3.930   3.892   9.431 -3.7128 -1.0101 -1.4786
   69SLPC  C313 5944   3.847   3.824   9.238 -0.4005  0.5553 -0.2000
   69SLPC  H13X 5945   3.802   3.925   9.226  0.5191  1.3222  2.2645
   69SLPC  H13Y 5946   3.773   3.750   9.275 -0.2671  0.3170 -0.4029
   69SLPC  C314 5947   3.910   3.780   9.099 -0.5514 -0.0586 -0.0685
   69SLPC  H14X 5948   3.966   3.684   9.107  1.2794  0.4501 -4.1697
   69SLPC  H14Y 5949   3.990   3.854   9.078  2.9364 -2.6191  2.8953
   69SLPC  C315 5950   3.801   3.743   9.001  0.3053 -0.5288  0.1747
   69SLPC  H15X 5951   3.732   3.830   8.999  2.0888  0.9589  0.0715
   69SLPC  H15Y 5952   3.745   3.652   9.033 -1.5683 -0.8126 -3.4221
   69SLPC  C316 5953   3.853   3.707   8.864 -0.3240 -0.4629 -0.2668
   69SLPC  H16X 5954   3.872   3.598   8.858 -0.9841 -0.5081 -3.7305
   69SLPC  H16Y 5955   3.955   3.747   8.846 -0.8410  0.7292 -0.6799
   69SLPC  C317 5956   3.747   3.719   8.753  0.8521  0.2605 -1.6522
   69SLPC  H17X 5957   3.656   3.676   8.799  1.3089 -0.9895 -1.8840
   69SLPC  H17Y 5958   3.791   3.650   8.677  3.3660 -1.8112  1.4189
   69SLPC  C318 5959   3.718   3.861   8.706 -0.2589 -0.2026 -0.1563
   69SLPC  H18X 5960   3.656   3.915   8.780  3.2278  1.8871  1.4525
   69SLPC  H18Y 5961   3.661   3.861   8.610  2.8606  1.1360 -2.1715
   69SLPC  H18Z 5962   3.811   3.917   8.686 -0.5144  0.3045  0.0597
   70SLPC     N 5963   4.028   0.970  11.079  0.4775 -0.1305 -0.1658
   70SLPC   C13 5964   3.922   1.051  11.020 -0.1847  0.5039  0.4614
   70SLPC  H13A 5965   3.869   1.000  10.942  0.3292  2.8423 -1.5344
   70SLPC  H13B 5966   3.858   1.098  11.093  0.7430  0.9967  0.9896
   70SLPC  H13C 5967   3.971   1.129  10.964  0.5291 -1.9195 -2.5631
   70SLPC   C14 5968   3.965   0.855  11.154  0.6979  0.0227  0.3292
   70SLPC  H14A 5969   3.888   0.806  11.097  0.6419  0.7997 -0.2721
   70SLPC  H14B 5970   4.044   0.783  11.169  1.5740  0.6502 -1.0547
   70SLPC  H14C 5971   3.915   0.892  11.242 -0.9583  1.3164 -1.0700
   70SLPC   C15 5972   4.102   1.050  11.174 -0.0117 -0.1735  0.5891
   70SLPC  H15A 5973   4.162   1.126  11.126  2.8553 -1.8215  1.3314
   70SLPC  H15B 5974   4.036   1.098  11.246 -1.5079  1.6240 -1.8233
   70SLPC  H15C 5975   4.175   0.984  11.217 -1.3534 -2.3045 -0.2810
   70SLPC   C12 5976   4.109   0.915  10.960  0.1033 -0.8112 -0.2670
   70SLPC  H12A 5977   4.184   0.845  10.995  0.5314 -1.0447 -1.5907
   70SLPC  H12B 5978   4.157   0.998  10.911 -1.2405  1.0122  1.3727
   70SLPC   C11 5979   4.038   0.838  10.845  0.3845 -0.2715 -0.1121
   70SLPC  H11A 5980   4.115   0.798  10.775 -1.3338  0.6489 -2.6720
   70SLPC  H11B 5981   3.975   0.909  10.788  2.0359  0.7512 -0.7344
   70SLPC     P 5982   3.855   0.649  10.813  0.6218 -0.3088 -0.1467
   70SLPC   O13 5983   3.840   0.509  10.858 -0.2529  0.0965  0.0052
   70SLPC   O14 5984   3.727   0.724  10.821  0.2882 -0.3133 -0.1918
   70SLPC   O12 5985   3.967   0.728  10.901 -0.5466 -0.3064 -0.9252
   70SLPC   O11 5986   3.910   0.652  10.659 -0.1192  0.0881 -0.0211
   70SLPC    C1 5987   4.021   0.566  10.621 -0.0108  0.2298 -0.0670
   70SLPC    HA 5988   4.111   0.597  10.679 -1.1700  0.1128  1.8632
   70SLPC    HB 5989   3.997   0.461  10.647  1.7874 -0.1431  0.2486
   70SLPC    C2 5990   4.053   0.588  10.469 -0.2348 -0.1952  0.1474
   70SLPC    HS 5991   4.141   0.533  10.429 -1.1777 -0.3592 -1.8165
   70SLPC   O21 5992   4.073   0.730  10.436 -0.2228 -0.0999 -0.0811
   70SLPC   C21 5993   4.198   0.758  10.475  0.4298 -0.6495  0.0962
   70SLPC   O22 5994   4.275   0.681  10.530 -0.0101 -0.0048  0.3260
   70SLPC   C22 5995   4.234   0.903  10.442  0.3872  0.3226 -0.0831
   70SLPC   H2R 5996   4.147   0.952  10.394  0.5165 -0.1027 -0.7532
   70SLPC   H2S 5997   4.248   0.964  10.534 -0.7214 -0.9294  0.9519
   70SLPC    C3 5998   3.931   0.541  10.383  0.1280 -0.0283 -0.2535
   70SLPC    HX 5999   3.839   0.587  10.425  0.9884  1.6418 -0.1319
   70SLPC    HY 6000   3.908   0.435  10.407 -1.1997  0.4954  0.9273
   70SLPC   O31 6001   3.957   0.568  10.247  0.7368  0.7456  0.2261
   70SLPC   C31 6002   3.860   0.624  10.173  0.0630 -0.5060  0.0903
   70SLPC   O32 6003   3.749   0.654  10.214  0.6122 -0.6673  0.0802
   70SLPC   C32 6004   3.912   0.644  10.033  0.2744 -0.0048 -0.3452
   70SLPC   H2X 6005   4.020   0.619  10.041  0.1478 -0.2666  0.8250
   70SLPC   H2Y 6006   3.913   0.749   9.997 -0.9410 -0.3975 -1.6078
   70SLPC   C23 6007   4.342   0.908  10.336  0.4831  0.4151  0.9179
   70SLPC   H3R 6008   4.434   0.863  10.380  0.4114  1.7137  2.5351
   70SLPC   H3S 6009   4.372   1.012  10.311  2.3013 -0.4617 -0.8250
   70SLPC   C24 6010   4.293   0.835  10.201 -0.1755 -0.1015  0.4782
   70SLPC   H4R 6011   4.196   0.880  10.171  0.0603 -0.6280 -1.1606
   70SLPC   H4S 6012   4.271   0.727  10.217 -1.8679 -0.3785 -2.8039
   70SLPC   C25 6013   4.385   0.848  10.084  0.4485 -0.0500  0.1321
   70SLPC   H5R 6014   4.484   0.801  10.102 -0.1985 -1.7162 -0.3993
   70SLPC   H5S 6015   4.411   0.954  10.065  2.6198 -0.9523 -2.5741
   70SLPC   C26 6016   4.322   0.787   9.959 -0.5019 -0.3846 -0.5045
   70SLPC   H6R 6017   4.211   0.794   9.948 -0.5117 -1.1842 -0.9672
   70SLPC   H6S 6018   4.356   0.682   9.953 -0.7384 -0.9161  4.0837
   70SLPC   C27 6019   4.385   0.859   9.837  0.2601 -0.0609  0.1252
   70SLPC   H7R 6020   4.494   0.873   9.856  0.3420  0.8371 -0.8891
   70SLPC   H7S 6021   4.339   0.959   9.822  0.5314 -0.0987 -1.0346
   70SLPC   C28 6022   4.391   0.781   9.703 -0.4309  0.1230 -0.7200
   70SLPC   H8R 6023   4.439   0.685   9.731  2.7939  1.7367 -0.2570
   70SLPC   H8S 6024   4.469   0.820   9.634  2.3549 -4.2718 -0.3982
   70SLPC   C29 6025   4.264   0.771   9.624  0.2640  0.0855  0.5244
   70SLPC   H9R 6026   4.174   0.788   9.685  0.6037  0.1058  1.0228
   70SLPC  C210 6027   4.243   0.749   9.488 -0.5161 -0.2621 -0.0350
   70SLPC  H10R 6028   4.139   0.752   9.451 -0.9452  2.4364  1.1419
   70SLPC  C211 6029   4.360   0.742   9.389 -0.0729  0.1243  0.5112
   70SLPC  H11R 6030   4.452   0.704   9.438  0.2177 -0.7614 -0.6771
   70SLPC  H11S 6031   4.381   0.841   9.344  0.7946 -1.2850 -2.4754
   70SLPC  C212 6032   4.328   0.647   9.272  0.3757  0.0759 -0.1987
   70SLPC  H12R 6033   4.367   0.546   9.291  1.0161  0.1928 -0.8465
   70SLPC  C213 6034   4.272   0.678   9.155  0.0907 -0.0089 -0.0347
   70SLPC  H13R 6035   4.254   0.603   9.075  0.1513  0.5217 -0.5533
   70SLPC  C214 6036   4.212   0.810   9.129 -0.4638 -0.7810 -0.8366
   70SLPC  H14R 6037   4.229   0.893   9.201 -2.0048  0.6952 -2.0752
   70SLPC  H14S 6038   4.101   0.817   9.128 -0.5443 -0.8624  1.6374
   70SLPC  C215 6039   4.273   0.860   8.992 -0.4080  0.1496 -0.3912
   70SLPC  H15R 6040   4.384   0.874   8.987 -0.3775  1.6330  2.2324
   70SLPC  H15S 6041   4.239   0.966   8.992 -0.3177  0.1791 -0.2635
   70SLPC  C216 6042   4.222   0.787   8.866  0.8263  0.1114  0.1463
   70SLPC  H16R 6043   4.115   0.773   8.890  1.0381 -0.2765  0.9208
   70SLPC  H16S 6044   4.270   0.687   8.876  0.2816  0.0057  2.2445
   70SLPC  C217 6045   4.247   0.865   8.736  0.9341  0.1066  0.2299
   70SLPC  H17R 6046   4.353   0.885   8.712  1.5215 -2.9461 -0.0379
   70SLPC  H17S 6047   4.210   0.969   8.752  1.2298  0.0843  1.1213
   70SLPC  C218 6048   4.156   0.808   8.620  0.0347  0.4977 -0.2012
   70SLPC  H18R 6049   4.050   0.814   8.655  0.2169 -0.0329  0.4673
   70SLPC  H18S 6050   4.172   0.701   8.594  0.3023  0.3792  0.4219
   70SLPC  H18T 6051   4.167   0.877   8.534 -1.4175  0.0317 -0.8012
   70SLPC   C33 6052   3.830   0.551   9.938 -0.4669 -0.2191 -0.5684
   70SLPC   H3X 6053   3.720   0.560   9.954  0.0465  2.5469  2.5106
   70SLPC   H3Y 6054   3.856   0.450   9.975  1.7452  0.6328  0.3631
   70SLPC   C34 6055   3.877   0.575   9.792  0.5625 -0.2368  0.3561
   70SLPC   H4X 6056   3.984   0.601   9.792 -0.0181  2.4184  0.0090
   70SLPC   H4Y 6057   3.824   0.667   9.760 -3.5513 -1.5984  2.4942
   70SLPC   C35 6058   3.849   0.457   9.694 -0.8835 -0.1589  0.5031
   70SLPC   H5X 6059   3.740   0.447   9.675 -1.1488  3.0527 -0.2225
   70SLPC   H5Y 6060   3.887   0.365   9.745 -1.0036 -1.1615 -1.1583
   70SLPC   C36 6061   3.910   0.494   9.553  0.2791 -0.1048  0.1439
   70SLPC   H6X 6062   4.020   0.478   9.555  0.3082 -0.4701 -1.9251
   70SLPC   H6Y 6063   3.899   0.600   9.521 -0.6399 -0.2969 -0.2197
   70SLPC   C37 6064   3.852   0.406   9.438 -0.3764  0.5210 -0.2938
   70SLPC   H7X 6065   3.745   0.438   9.434 -0.4362  0.4734  0.6580
   70SLPC   H7Y 6066   3.861   0.296   9.454  1.6789  0.2483 -2.5992
   70SLPC   C38 6067   3.910   0.456   9.296 -0.4753  0.0562  0.4851
   70SLPC   H8X 6068   4.022   0.455   9.294 -0.3870  2.4101 -1.7344
   70SLPC   H8Y 6069   3.873   0.561   9.293 -3.4895 -0.9048 -3.0409
   70SLPC   C39 6070   3.854   0.381   9.177 -0.9093 -0.0019 -0.6526
   70SLPC   H9X 6071   3.744   0.387   9.188 -0.8326  1.1247 -0.2614
   70SLPC   H9Y 6072   3.881   0.274   9.172  0.0514  0.2896 -3.3269
   70SLPC  C310 6073   3.886   0.449   9.046 -0.3310 -0.1159  0.0868
   70SLPC  H10X 6074   3.995   0.469   9.037 -0.6038  1.2737 -0.4043
   70SLPC  H10Y 6075   3.831   0.545   9.047  1.9746  1.3292  3.1011
   70SLPC  C311 6076   3.838   0.367   8.925 -0.2260  0.3271 -0.0085
   70SLPC  H11X 6077   3.732   0.334   8.926 -0.8187  2.0718  1.4133
   70SLPC  H11Y 6078   3.905   0.279   8.924  0.5303  0.7965 -3.3961
   70SLPC  C312 6079   3.837   0.444   8.790 -0.0229 -0.7082 -0.4906
   70SLPC  H12X 6080   3.786   0.541   8.803  0.5115 -0.4070 -0.5912
   70SLPC  H12Y 6081   3.781   0.378   8.721 -1.1389  0.3437 -0.6254
   70SLPC  C313 6082   3.980   0.474   8.742 -0.6528 -1.1385  0.0388
   70SLPC  H13X 6083   4.047   0.518   8.820 -1.3175 -1.2644  0.6886
   70SLPC  H13Y 6084   3.972   0.545   8.657  0.6269 -1.4113 -0.3311
   70SLPC  C314 6085   4.047   0.351   8.682 -0.1318 -0.2112 -0.0523
   70SLPC  H14X 6086   3.979   0.287   8.622 -1.0580 -0.6485  1.3973
   70SLPC  H14Y 6087   4.075   0.290   8.771 -0.3907  1.3704  1.1581
   70SLPC  C315 6088   4.179   0.380   8.608  0.3789 -0.3608 -0.3214
   70SLPC  H15X 6089   4.231   0.443   8.683  0.9219 -0.8681 -0.2666
   70SLPC  H15Y 6090   4.168   0.438   8.514  2.3723 -0.1415 -0.4762
   70SLPC  C316 6091   4.258   0.250   8.583 -0.5263 -0.0917  0.2893
   70SLPC  H16X 6092   4.191   0.174   8.537  0.0076  0.2408 -1.0708
   70SLPC  H16Y 6093   4.298   0.217   8.681 -1.4976  0.8375  1.0343
   70SLPC  C317 6094   4.368   0.284   8.488 -0.2782  0.8129 -0.2978
   70SLPC  H17X 6095   4.438   0.365   8.518  1.3695 -1.2781  1.8718
   70SLPC  H17Y 6096   4.319   0.310   8.391 -2.2907 -0.9133  0.1946
   70SLPC  C318 6097   4.457   0.161   8.462 -0.2602 -0.3130  0.5003
   70SLPC  H18X 6098   4.526   0.189   8.380  1.3690 -1.2632  1.4893
   70SLPC  H18Y 6099   4.386   0.080   8.434  0.7795 -0.6050 -1.4502
   70SLPC  H18Z 6100   4.525   0.139   8.547  0.6435  1.1363  0.1814
   71SLPC     N 6101   4.849   6.552  10.797  0.0699  0.3972  0.4238
   71SLPC   C13 6102   4.902   6.473  10.680 -0.5464 -0.2224 -0.0922
   71SLPC  H13A 6103   5.006   6.449  10.695 -1.0980 -2.3285  0.7375
   71SLPC  H13B 6104   4.846   6.383  10.656 -3.0131  1.2432 -0.2017
   71SLPC  H13C 6105   4.892   6.528  10.588  2.1018 -0.5476 -0.6441
   71SLPC   C14 6106   4.839   6.458  10.910 -0.1618  0.4101  0.0609
   71SLPC  H14A 6107   4.797   6.509  10.995  1.3711  4.0889 -1.1512
   71SLPC  H14B 6108   4.785   6.368  10.887  0.4688  0.6572 -2.7411
   71SLPC  H14C 6109   4.937   6.425  10.941 -1.6444 -0.5992  4.4237
   71SLPC   C15 6110   4.713   6.607  10.767 -0.3204 -0.5007  0.1504
   71SLPC  H15A 6111   4.678   6.638  10.865  1.5956 -0.8706  0.9818
   71SLPC  H15B 6112   4.722   6.687  10.695  2.2016 -0.3029  0.6055
   71SLPC  H15C 6113   4.649   6.530  10.728 -1.7343  0.6882  0.0208
   71SLPC   C12 6114   4.951   6.661  10.835 -0.4960  0.4632 -0.5759
   71SLPC  H12A 6115   4.914   6.708  10.924 -0.6103  0.1417 -0.4523
   71SLPC  H12B 6116   4.959   6.741  10.763 -1.6799  2.5575  1.4962
   71SLPC   C11 6117   5.095   6.607  10.883 -0.6755  0.3202 -0.2698
   71SLPC  H11A 6118   5.077   6.546  10.974 -2.4499  0.9701 -0.1467
   71SLPC  H11B 6119   5.159   6.693  10.912 -0.2732 -0.3986  1.0551
   71SLPC     P 6120   5.324   6.509  10.796 -0.1468 -0.3399 -0.2408
   71SLPC   O13 6121   5.372   6.549  10.928  0.1418 -0.4539  0.7352
   71SLPC   O14 6122   5.353   6.368  10.757  0.0281 -0.4340  0.4754
   71SLPC   O12 6123   5.172   6.547  10.782  0.2540  0.1229  1.1656
   71SLPC   O11 6124   5.401   6.602  10.696  0.3904  0.3609  0.0932
   71SLPC    C1 6125   5.353   6.731  10.655 -0.3720 -0.5082 -0.4840
   71SLPC    HA 6126   5.332   6.786  10.750  2.1621  0.8441 -0.6396
   71SLPC    HB 6127   5.441   6.788  10.618  1.6922 -0.4634  3.8138
   71SLPC    C2 6128   5.244   6.732  10.540  0.8386  0.1898 -0.4689
   71SLPC    HS 6129   5.156   6.688  10.592  1.4988 -0.0633  0.4512
   71SLPC   O21 6130   5.268   6.653  10.427 -0.3839 -0.5738  0.7696
   71SLPC   C21 6131   5.166   6.596  10.365  0.8436  0.2242  0.0437
   71SLPC   O22 6132   5.049   6.603  10.400  0.2258  0.2078 -0.0047
   71SLPC   C22 6133   5.206   6.497  10.254 -0.3234  0.1544  0.4643
   71SLPC   H2R 6134   5.303   6.544  10.228 -1.0855 -0.1031 -3.4778
   71SLPC   H2S 6135   5.210   6.395  10.299 -1.2483 -0.3545 -0.5663
   71SLPC    C3 6136   5.203   6.875  10.514 -0.6027 -0.1571  0.4171
   71SLPC    HX 6137   5.290   6.910  10.454  0.4138 -3.5735 -0.3394
   71SLPC    HY 6138   5.192   6.944  10.600 -3.9521 -0.7316  0.6175
   71SLPC   O31 6139   5.093   6.878  10.425 -0.0108  0.2127  0.3006
   71SLPC   C31 6140   4.978   6.890  10.486  1.2896  0.9199 -0.3764
   71SLPC   O32 6141   4.952   6.851  10.596  0.1296  0.2263 -0.4283
   71SLPC   C32 6142   4.873   6.948  10.391 -0.0202  0.9360 -0.1253
   71SLPC   H2X 6143   4.926   7.037  10.349 -1.2894  0.9501 -1.8327
   71SLPC   H2Y 6144   4.787   6.977  10.454  1.6250  2.4295  1.5619
   71SLPC   C23 6145   5.104   6.493  10.137 -0.0464 -0.0632  0.4178
   71SLPC   H3R 6146   4.999   6.500  10.172  0.6285  0.7550  2.4353
   71SLPC   H3S 6147   5.115   6.395  10.086  1.8027  0.6974 -0.7477
   71SLPC   C24 6148   5.149   6.587  10.022 -0.2182  0.0553 -0.5505
   71SLPC   H4R 6149   5.260   6.596  10.018 -0.2859  1.4297  0.1906
   71SLPC   H4S 6150   5.105   6.687  10.044  0.4508  0.1163  0.5951
   71SLPC   C25 6151   5.091   6.555   9.882  0.1024 -0.2609 -0.6899
   71SLPC   H5R 6152   4.980   6.564   9.884 -0.0891 -2.1852  0.3327
   71SLPC   H5S 6153   5.090   6.445   9.869 -3.4569 -0.3772 -0.4398
   71SLPC   C26 6154   5.148   6.633   9.764  0.0832 -0.1227 -0.5178
   71SLPC   H6R 6155   5.245   6.583   9.745 -0.2324 -1.0526  0.2593
   71SLPC   H6S 6156   5.163   6.735   9.805  0.9901 -0.2259 -0.5729
   71SLPC   C27 6157   5.071   6.612   9.637 -0.1468  0.0175  0.5334
   71SLPC   H7R 6158   4.992   6.690   9.637  1.1631  1.4165 -0.6045
   71SLPC   H7S 6159   5.022   6.512   9.634  1.4489 -0.8064 -3.1984
   71SLPC   C28 6160   5.159   6.633   9.508  0.0252 -0.3218  0.5197
   71SLPC   H8R 6161   5.223   6.723   9.523  0.0617 -0.5764  2.0845
   71SLPC   H8S 6162   5.089   6.641   9.422  1.8904 -2.1471 -1.2581
   71SLPC   C29 6163   5.259   6.532   9.459  0.2312 -0.6792  0.4201
   71SLPC   H9R 6164   5.325   6.496   9.539  1.2756 -0.5306 -0.3531
   71SLPC  C210 6165   5.275   6.468   9.339  0.1449 -0.4376 -0.1800
   71SLPC  H10R 6166   5.357   6.396   9.331  0.9897  0.3627  0.9958
   71SLPC  C211 6167   5.195   6.482   9.212  0.6933 -0.3060  0.4984
   71SLPC  H11R 6168   5.261   6.444   9.131 -0.2664 -0.9838  0.0118
   71SLPC  H11S 6169   5.151   6.581   9.186  2.1621 -0.1424 -1.6064
   71SLPC  C212 6170   5.072   6.388   9.226 -0.4665 -0.0325  0.2774
   71SLPC  H12R 6171   5.007   6.417   9.310  0.0973  0.3880  0.5780
   71SLPC  C213 6172   5.048   6.285   9.143 -0.2068 -0.6398  0.3391
   71SLPC  H13R 6173   4.952   6.233   9.159 -0.1570 -0.4726  1.1985
   71SLPC  C214 6174   5.114   6.249   9.012 -0.4730 -0.6118 -0.1787
   71SLPC  H14R 6175   5.140   6.141   9.010  2.3185 -0.0078 -0.2870
   71SLPC  H14S 6176   5.217   6.291   9.007 -1.0980  0.9216 -3.6966
   71SLPC  C215 6177   5.038   6.276   8.882 -0.7370 -0.1202 -1.6528
   71SLPC  H15R 6178   5.026   6.387   8.885  1.9581  0.2075  0.1344
   71SLPC  H15S 6179   4.941   6.225   8.897  0.1860 -1.3413  0.7531
   71SLPC  C216 6180   5.118   6.223   8.767  0.1836  0.6954  0.7935
   71SLPC  H16R 6181   5.080   6.119   8.762 -3.1575  1.8065  0.1397
   71SLPC  H16S 6182   5.227   6.218   8.786  0.4570 -0.9477 -0.8427
   71SLPC  C217 6183   5.108   6.299   8.630  0.6701 -0.8392  0.1758
   71SLPC  H17R 6184   5.163   6.393   8.652 -2.3482  1.1796 -0.2788
   71SLPC  H17S 6185   5.003   6.330   8.611  1.2997  0.7341 -0.9270
   71SLPC  C218 6186   5.169   6.222   8.512  0.1677  0.4076  0.0323
   71SLPC  H18R 6187   5.102   6.137   8.487 -1.0381  1.6402 -1.1531
   71SLPC  H18S 6188   5.266   6.176   8.539  0.6007  0.0477 -1.9455
   71SLPC  H18T 6189   5.186   6.275   8.416 -0.4598  0.1505 -0.2277
   71SLPC   C33 6190   4.832   6.853  10.271 -0.4234  0.8593 -1.1672
   71SLPC   H3X 6191   4.759   6.777  10.307  0.9241  0.2296  0.3892
   71SLPC   H3Y 6192   4.926   6.799  10.246 -0.0769  0.3486  1.0452
   71SLPC   C34 6193   4.787   6.925  10.148  0.4555 -0.2815  0.6188
   71SLPC   H4X 6194   4.840   7.019  10.122  0.5231 -0.5113 -0.1063
   71SLPC   H4Y 6195   4.678   6.947  10.154 -0.1456 -3.2954  2.5902
   71SLPC   C35 6196   4.789   6.834  10.024 -0.5977 -0.2511 -0.5135
   71SLPC   H5X 6197   4.738   6.741  10.057 -1.0428  0.4521  0.8422
   71SLPC   H5Y 6198   4.894   6.798  10.018 -0.6154 -0.7126  1.3385
   71SLPC   C36 6199   4.732   6.874   9.892  0.3559  0.2410  0.3531
   71SLPC   H6X 6200   4.628   6.907   9.915 -0.2166 -0.4857 -1.0590
   71SLPC   H6Y 6201   4.717   6.790   9.821  2.7007  0.9100 -1.0340
   71SLPC   C37 6202   4.791   7.003   9.819 -0.1943  0.1470  0.1271
   71SLPC   H7X 6203   4.900   6.991   9.802  0.4062  0.2932  3.1751
   71SLPC   H7Y 6204   4.779   7.096   9.879 -2.6590 -0.0082 -0.0282
   71SLPC   C38 6205   4.698   7.035   9.700  0.0621  0.4664  0.8029
   71SLPC   H8X 6206   4.714   7.140   9.669 -0.7823  0.3072 -0.2776
   71SLPC   H8Y 6207   4.591   7.025   9.728  0.1214  1.4568  1.4366
   71SLPC   C39 6208   4.723   6.949   9.574  0.1666  0.2097 -0.3256
   71SLPC   H9X 6209   4.658   6.989   9.493  1.2193  2.9191  0.0666
   71SLPC   H9Y 6210   4.699   6.840   9.582  0.0394  0.2488 -0.1777
   71SLPC  C310 6211   4.863   6.959   9.519  0.2475 -0.1080  0.1096
   71SLPC  H10X 6212   4.943   6.921   9.585 -1.5545 -0.1898  2.3355
   71SLPC  H10Y 6213   4.892   7.062   9.488 -0.2920  0.0488  0.1184
   71SLPC  C311 6214   4.878   6.871   9.393 -0.3366  0.4722  0.5787
   71SLPC  H11X 6215   4.858   6.765   9.421  2.3743  0.6769  3.8633
   71SLPC  H11Y 6216   4.988   6.863   9.377 -0.7746 -3.8023 -1.9687
   71SLPC  C312 6217   4.807   6.926   9.273 -0.5649  1.4336 -0.0367
   71SLPC  H12X 6218   4.839   7.032   9.273  0.7317  1.0740 -0.9181
   71SLPC  H12Y 6219   4.699   6.917   9.295 -0.5608  2.0996  0.2760
   71SLPC  C313 6220   4.856   6.867   9.136  0.4963  0.5465 -0.7653
   71SLPC  H13X 6221   4.788   6.893   9.052 -0.0493 -1.6701 -1.0799
   71SLPC  H13Y 6222   4.863   6.757   9.154  3.6679  0.9559  1.2498
   71SLPC  C314 6223   4.999   6.915   9.096 -0.3462 -0.1821  0.3038
   71SLPC  H14X 6224   5.071   6.896   9.179 -0.0898 -0.6629 -0.0266
   71SLPC  H14Y 6225   4.994   7.022   9.065  0.4589 -0.2279 -0.0076
   71SLPC  C315 6226   5.059   6.851   8.971 -0.0655 -0.6787 -0.1591
   71SLPC  H15X 6227   5.037   6.742   8.969 -0.4835 -0.6003  0.0947
   71SLPC  H15Y 6228   5.170   6.858   8.971 -0.0279 -1.2107 -0.9087
   71SLPC  C316 6229   5.038   6.926   8.834 -0.1895  0.0003 -0.0892
   71SLPC  H16X 6230   5.030   7.033   8.863  0.2788 -0.0675  0.3018
   71SLPC  H16Y 6231   4.934   6.906   8.800  0.7272 -1.2125 -2.4341
   71SLPC  C317 6232   5.140   6.902   8.722  0.5223  0.0926  0.9745
   71SLPC  H17X 6233   5.228   6.966   8.745  0.3347  1.0452 -0.7725
   71SLPC  H17Y 6234   5.111   6.935   8.620  0.2730 -0.4215  0.8754
   71SLPC  C318 6235   5.190   6.761   8.693 -0.4376  0.0533  0.2714
   71SLPC  H18X 6236   5.100   6.699   8.676 -0.6842  0.7427 -1.0400
   71SLPC  H18Y 6237   5.247   6.731   8.784  0.0279 -1.4211 -0.4831
   71SLPC  H18Z 6238   5.246   6.755   8.597 -0.5494 -0.9959  0.2655
   72SLPC     N 6239   0.031   4.525  10.778 -0.2108  0.5758  0.0925
   72SLPC   C13 6240   0.177   4.543  10.772 -0.7997 -0.0832 -0.2637
   72SLPC  H13A 6241   0.224   4.484  10.694  1.1038  0.8001  0.1524
   72SLPC  H13B 6242   0.204   4.648  10.767 -1.2120 -0.0247 -3.2378
   72SLPC  H13C 6243   0.223   4.504  10.861 -0.2644  0.0151 -0.4921
   72SLPC   C14 6244  -0.017   4.558  10.648 -0.3944  0.2991  0.3933
   72SLPC  H14A 6245  -0.122   4.540  10.631 -0.2429 -1.3655  1.0594
   72SLPC  H14B 6246  -0.013   4.664  10.626 -1.1280 -0.2633 -2.9907
   72SLPC  H14C 6247   0.031   4.512  10.563 -0.1359  0.7084  0.3145
   72SLPC   C15 6248  -0.040   4.603  10.880  0.0477 -0.0976 -0.5612
   72SLPC  H15A 6249  -0.146   4.580  10.877  0.2872 -1.2043 -2.3826
   72SLPC  H15B 6250  -0.003   4.582  10.979 -1.2161 -1.2210 -0.3026
   72SLPC  H15C 6251  -0.027   4.709  10.863 -2.1992  0.6689  1.8043
   72SLPC   C12 6252  -0.013   4.376  10.798 -0.4783  0.1852  0.0742
   72SLPC  H12A 6253   0.009   4.323  10.707  0.7945 -1.5009  1.3024
   72SLPC  H12B 6254  -0.119   4.367  10.815 -1.0397  0.5655 -2.7846
   72SLPC   C11 6255   0.060   4.297  10.908  0.9562 -0.1975 -0.7977
   72SLPC  H11A 6256   0.008   4.200  10.922 -0.6997  0.7981  0.2474
   72SLPC  H11B 6257   0.039   4.346  11.005  1.4043  0.0473 -0.8206
   72SLPC     P 6258   0.237   4.170  10.776  0.7579 -0.0806  0.2690
   72SLPC   O13 6259   0.386   4.173  10.762 -0.3568  0.0037 -0.1653
   72SLPC   O14 6260   0.170   4.041  10.815 -0.0562 -0.3044  0.3205
   72SLPC   O12 6261   0.196   4.277  10.885 -0.7964 -0.9783 -0.6297
   72SLPC   O11 6262   0.168   4.222  10.654  0.9078 -0.4595  0.3256
   72SLPC    C1 6263   0.110   4.151  10.550 -0.5326  0.5690  0.4518
   72SLPC    HA 6264   0.094   4.046  10.582 -2.7258  0.6864 -0.1251
   72SLPC    HB 6265   0.007   4.185  10.529 -0.8352 -0.6775 -0.1533
   72SLPC    C2 6266   0.203   4.158  10.421  0.2133 -0.2063 -0.1313
   72SLPC    HS 6267   0.253   4.257  10.427 -1.8151  0.9246 -0.7673
   72SLPC   O21 6268   0.136   4.147  10.288  0.3234  0.3867  0.1302
   72SLPC   C21 6269   0.031   4.231  10.262 -0.0040 -0.1348  0.4101
   72SLPC   O22 6270  -0.004   4.317  10.336 -0.1631 -0.6271 -0.2053
   72SLPC   C22 6271  -0.016   4.200  10.118 -0.1649 -0.7052 -0.5927
   72SLPC   H2R 6272   0.041   4.111  10.083 -1.5609 -1.6596 -0.5142
   72SLPC   H2S 6273  -0.120   4.175  10.148  0.9469 -1.6927  2.9769
   72SLPC    C3 6274   0.318   4.056  10.428  0.5110  0.8156 -0.8669
   72SLPC    HX 6275   0.291   3.957  10.470  3.0560  0.6271  0.5053
   72SLPC    HY 6276   0.389   4.090  10.506 -1.0664  0.8504  0.6210
   72SLPC   O31 6277   0.381   4.047  10.306  0.9952 -0.0323 -0.5662
   72SLPC   C31 6278   0.344   3.946  10.221  0.3055  0.2551 -0.6932
   72SLPC   O32 6279   0.280   3.849  10.261 -0.5593  0.1682  0.6935
   72SLPC   C32 6280   0.386   3.991  10.082 -0.0731 -0.2152  0.0939
   72SLPC   H2X 6281   0.497   3.993  10.070 -0.0822 -1.8185 -0.4253
   72SLPC   H2Y 6282   0.349   4.096  10.076 -0.3313 -0.0922  2.6494
   72SLPC   C23 6283   0.010   4.327  10.029 -0.2289  0.0130  0.2075
   72SLPC   H3R 6284   0.117   4.356  10.035 -0.0118 -0.7007 -0.1354
   72SLPC   H3S 6285  -0.041   4.413  10.078 -0.8720 -0.5345  0.5127
   72SLPC   C24 6286  -0.050   4.300   9.892 -0.4155 -0.7397  0.7888
   72SLPC   H4R 6287  -0.008   4.205   9.853  0.1915 -0.3008  0.3503
   72SLPC   H4S 6288  -0.007   4.380   9.828  1.9897 -0.0662  3.0879
   72SLPC   C25 6289  -0.208   4.312   9.886 -0.1352  0.3895 -0.1748
   72SLPC   H5R 6290  -0.228   4.415   9.923 -1.1163  1.1586 -2.6410
   72SLPC   H5S 6291  -0.257   4.230   9.942  4.0687 -1.8562  0.6250
   72SLPC   C26 6292  -0.254   4.322   9.737 -0.1656 -0.1511  0.0396
   72SLPC   H6R 6293  -0.242   4.224   9.685 -1.4192 -0.8444  1.0088
   72SLPC   H6S 6294  -0.197   4.407   9.693 -0.0707 -0.0540  0.3429
   72SLPC   C27 6295  -0.401   4.361   9.742  0.4909 -0.2860 -0.2625
   72SLPC   H7R 6296  -0.405   4.463   9.784  0.6788  0.0259 -0.9848
   72SLPC   H7S 6297  -0.460   4.295   9.809 -1.9492  3.1689  1.2384
   72SLPC   C28 6298  -0.457   4.372   9.602 -0.0232 -0.1831  0.7134
   72SLPC   H8R 6299  -0.390   4.443   9.550 -1.4547  3.4949  3.3481
   72SLPC   H8S 6300  -0.561   4.412   9.602 -0.2068 -0.6365 -0.7044
   72SLPC   C29 6301  -0.468   4.229   9.539  0.5031 -0.3314 -0.1167
   72SLPC   H9R 6302  -0.492   4.145   9.605  0.4697 -1.1528 -1.1398
   72SLPC  C210 6303  -0.452   4.202   9.405  0.4289 -0.4098 -0.6697
   72SLPC  H10R 6304  -0.482   4.103   9.368 -0.4793 -0.7040  0.7904
   72SLPC  C211 6305  -0.423   4.303   9.300 -0.4524 -0.9465 -0.8292
   72SLPC  H11R 6306  -0.366   4.262   9.213 -0.3007  0.7909 -1.5850
   72SLPC  H11S 6307  -0.360   4.382   9.346 -1.0216 -0.0646 -1.5352
   72SLPC  C212 6308  -0.553   4.377   9.269  0.1042  0.7819 -0.1152
   72SLPC  H12R 6309  -0.600   4.423   9.357 -1.2811  1.3939 -1.1606
   72SLPC  C213 6310  -0.618   4.383   9.151  0.3942 -0.6332  0.6507
   72SLPC  H13R 6311  -0.710   4.443   9.143  0.5588 -0.5168 -0.4722
   72SLPC  C214 6312  -0.567   4.334   9.021 -0.0917 -0.1752  0.1192
   72SLPC  H14R 6313  -0.622   4.247   8.979  0.5157 -0.9733  0.9353
   72SLPC  H14S 6314  -0.462   4.299   9.032 -0.5962 -1.7183  0.2126
   72SLPC  C215 6315  -0.563   4.446   8.919  0.1480  0.4234  1.2408
   72SLPC  H15R 6316  -0.487   4.521   8.950 -0.2595  1.6273 -0.5053
   72SLPC  H15S 6317  -0.667   4.487   8.923 -1.3543 -2.9044  0.1902
   72SLPC  C216 6318  -0.539   4.404   8.778 -0.7161 -0.4876  0.7184
   72SLPC  H16R 6319  -0.580   4.303   8.759 -3.3950  0.1410  2.4976
   72SLPC  H16S 6320  -0.431   4.402   8.753 -0.8189  1.8734 -0.1507
   72SLPC  C217 6321  -0.602   4.476   8.656  0.7813 -0.6004 -0.3855
   72SLPC  H17R 6322  -0.577   4.584   8.658  2.2833 -0.9286 -0.3104
   72SLPC  H17S 6323  -0.713   4.471   8.661  0.7494 -0.6824 -1.0910
   72SLPC  C218 6324  -0.562   4.424   8.519 -0.3585  0.7805 -0.6334
   72SLPC  H18R 6325  -0.452   4.433   8.506 -0.3479 -0.0688 -1.1780
   72SLPC  H18S 6326  -0.600   4.483   8.432  0.4831  2.5934  0.1633
   72SLPC  H18T 6327  -0.595   4.319   8.509  3.1253 -0.6996  1.7800
   72SLPC   C33 6328   0.326   3.899   9.967  0.6177  0.1201 -0.1658
   72SLPC   H3X 6329   0.215   3.894   9.975  0.7500 -0.5305  1.8403
   72SLPC   H3Y 6330   0.360   3.796   9.991 -2.2575 -1.0260 -0.5220
   72SLPC   C34 6331   0.366   3.951   9.826  0.3762 -0.3927 -0.2627
   72SLPC   H4X 6332   0.476   3.959   9.812  0.0255  2.0431 -2.2409
   72SLPC   H4Y 6333   0.320   4.052   9.816 -0.8456 -0.8363  0.5291
   72SLPC   C35 6334   0.315   3.848   9.718 -0.5742  0.4582 -0.0697
   72SLPC   H5X 6335   0.208   3.821   9.733 -0.3461 -0.4328  0.0419
   72SLPC   H5Y 6336   0.381   3.759   9.728 -0.7623  0.4036  0.7495
   72SLPC   C36 6337   0.320   3.910   9.571  0.2194 -0.3326  0.1842
   72SLPC   H6X 6338   0.424   3.934   9.541  1.0683 -2.2612  1.4004
   72SLPC   H6Y 6339   0.269   4.008   9.555  0.6009  0.0581  1.2767
   72SLPC   C37 6340   0.267   3.804   9.473 -0.3660 -0.0085 -0.5870
   72SLPC   H7X 6341   0.167   3.770   9.508 -0.2286  0.4115  0.2587
   72SLPC   H7Y 6342   0.325   3.710   9.485 -3.3649 -2.0579 -1.1853
   72SLPC   C38 6343   0.262   3.858   9.325 -0.7136  0.0488  0.2011
   72SLPC   H8X 6344   0.367   3.860   9.291 -1.0404 -2.6040 -1.2521
   72SLPC   H8Y 6345   0.230   3.965   9.330 -3.9577 -0.8341  1.1455
   72SLPC   C39 6346   0.176   3.764   9.236  0.1392  0.1997 -0.0924
   72SLPC   H9X 6347   0.074   3.756   9.278  0.4957  3.1131  1.5762
   72SLPC   H9Y 6348   0.218   3.662   9.249  0.1807  0.1325 -0.6968
   72SLPC  C310 6349   0.168   3.787   9.079  0.3097  0.4085  0.4931
   72SLPC  H10X 6350   0.273   3.772   9.047  1.2146 -0.0312  3.4140
   72SLPC  H10Y 6351   0.133   3.891   9.060 -2.1528 -0.2653  1.0422
   72SLPC  C311 6352   0.063   3.690   9.006 -0.4165  0.4797  0.3300
   72SLPC  H11X 6353  -0.032   3.690   9.062 -0.5962  2.1808  0.0871
   72SLPC  H11Y 6354   0.114   3.591   9.008 -0.3948  0.4787  3.2932
   72SLPC  C312 6355   0.028   3.715   8.855  0.4159 -0.3298 -0.3946
   72SLPC  H12X 6356  -0.025   3.812   8.840  0.4416 -0.5237 -1.8613
   72SLPC  H12Y 6357  -0.043   3.633   8.836 -1.1988  0.9078  0.0687
   72SLPC  C313 6358   0.146   3.704   8.759 -0.0918 -0.2267  0.1532
   72SLPC  H13X 6359   0.209   3.630   8.814 -1.2215 -2.2026 -1.0541
   72SLPC  H13Y 6360   0.194   3.802   8.739 -0.0950 -0.2699 -0.0726
   72SLPC  C314 6361   0.108   3.636   8.625 -0.0832  0.5395  0.2389
   72SLPC  H14X 6362   0.033   3.700   8.575  0.1220  1.6853  1.3381
   72SLPC  H14Y 6363   0.039   3.563   8.673 -0.0797  0.8419  0.7149
   72SLPC  C315 6364   0.227   3.572   8.552  0.2626  0.5386  0.2259
   72SLPC  H15X 6365   0.204   3.524   8.454  1.4072 -2.4148  1.2952
   72SLPC  H15Y 6366   0.256   3.486   8.616  0.2592 -0.5208 -1.1489
   72SLPC  C316 6367   0.348   3.657   8.526 -0.2151 -0.0794  0.1710
   72SLPC  H16X 6368   0.436   3.592   8.512  0.4550  0.9797 -0.6887
   72SLPC  H16Y 6369   0.370   3.717   8.617 -0.4402  0.4830 -0.1396
   72SLPC  C317 6370   0.335   3.749   8.406 -0.4406  0.3672  0.0963
   72SLPC  H17X 6371   0.246   3.810   8.429 -0.0961  0.9079  0.0122
   72SLPC  H17Y 6372   0.304   3.685   8.320  0.4905 -1.7027  1.2146
   72SLPC  C318 6373   0.463   3.831   8.409 -0.4969  0.1194  0.8538
   72SLPC  H18X 6374   0.484   3.855   8.515  1.3685  1.7028  0.1707
   72SLPC  H18Y 6375   0.441   3.924   8.353 -0.8547 -0.8036 -0.5792
   72SLPC  H18Z 6376   0.549   3.778   8.362  0.8232  0.6247  2.5750
   73SLPC     N 6377   0.631   2.259  11.108  0.2580 -0.0243  0.3535
   73SLPC   C13 6378   0.715   2.206  10.996  0.8470  0.8266  0.4511
   73SLPC  H13A 6379   0.647   2.183  10.915  0.4335 -1.7152  1.4517
   73SLPC  H13B 6380   0.784   2.282  10.961  0.6157  0.4933 -0.7617
   73SLPC  H13C 6381   0.766   2.113  11.018  0.2367  0.4826  0.4185
   73SLPC   C14 6382   0.540   2.371  11.063 -0.7687 -0.1752  0.6154
   73SLPC  H14A 6383   0.529   2.441  11.145 -2.8578  0.7208 -0.3469
   73SLPC  H14B 6384   0.585   2.429  10.983 -1.1796  0.6833  0.9914
   73SLPC  H14C 6385   0.448   2.334  11.019 -0.1643 -0.3606 -0.5435
   73SLPC   C15 6386   0.716   2.313  11.222  0.5447 -0.6165 -0.1925
   73SLPC  H15A 6387   0.650   2.333  11.306  2.3184  0.7346  0.9766
   73SLPC  H15B 6388   0.783   2.233  11.249 -0.2693 -2.4318 -3.0874
   73SLPC  H15C 6389   0.780   2.395  11.193  0.2888  0.4198  1.9002
   73SLPC   C12 6390   0.563   2.136  11.163 -0.0732  0.0811 -0.3587
   73SLPC  H12A 6391   0.507   2.170  11.249 -0.3591 -1.6358  0.1767
   73SLPC  H12B 6392   0.633   2.064  11.204  0.1320 -0.5880 -1.8012
   73SLPC   C11 6393   0.459   2.064  11.077  0.7041 -0.5563 -0.0322
   73SLPC  H11A 6394   0.387   2.144  11.052 -0.3591 -2.0764 -2.1098
   73SLPC  H11B 6395   0.404   1.994  11.143  0.9803 -1.5855 -0.8762
   73SLPC     P 6396   0.598   1.870  10.984  0.2857  0.1006  0.1643
   73SLPC   O13 6397   0.738   1.903  11.029 -0.5090  0.4527 -0.6849
   73SLPC   O14 6398   0.518   1.773  11.057 -0.2120 -0.3038  0.1050
   73SLPC   O12 6399   0.514   2.002  10.959  0.2547  0.1282 -0.0194
   73SLPC   O11 6400   0.613   1.808  10.834 -0.0519  0.5304 -0.4279
   73SLPC    C1 6401   0.629   1.879  10.718 -0.5163  0.5279 -0.1451
   73SLPC    HA 6402   0.535   1.924  10.680 -0.5052 -2.5341 -4.4703
   73SLPC    HB 6403   0.699   1.961  10.745  0.0863 -0.0364  0.0384
   73SLPC    C2 6404   0.696   1.793  10.604  0.8735 -0.4778 -0.3852
   73SLPC    HS 6405   0.761   1.862  10.547 -1.0924  0.7177 -1.2549
   73SLPC   O21 6406   0.596   1.729  10.525  0.1790 -0.0090  0.7137
   73SLPC   C21 6407   0.581   1.780  10.408  0.7980  0.4524 -0.3972
   73SLPC   O22 6408   0.661   1.846  10.341 -0.6108  0.0867 -0.6443
   73SLPC   C22 6409   0.442   1.754  10.362 -0.1548  0.5247  0.0633
   73SLPC   H2R 6410   0.446   1.658  10.307  1.1685  0.8760 -0.4774
   73SLPC   H2S 6411   0.367   1.754  10.444 -1.5546  0.9785 -1.1685
   73SLPC    C3 6412   0.782   1.686  10.673  0.0747 -0.4919 -0.0734
   73SLPC    HX 6413   0.718   1.617  10.732  1.0087 -1.0815  0.2765
   73SLPC    HY 6414   0.860   1.739  10.732 -0.0855  1.5288 -1.5648
   73SLPC   O31 6415   0.862   1.621  10.569 -0.2515  0.0350 -0.6978
   73SLPC   C31 6416   0.829   1.492  10.551  0.1481 -0.3985  0.0116
   73SLPC   O32 6417   0.732   1.433  10.602  0.1205 -0.3805  0.1648
   73SLPC   C32 6418   0.926   1.432  10.446  0.3447 -0.5985  0.2054
   73SLPC   H2X 6419   1.026   1.431  10.493  0.9984 -3.6841 -0.9952
   73SLPC   H2Y 6420   0.923   1.509  10.365 -0.0745  1.0745  1.7514
   73SLPC   C23 6421   0.389   1.867  10.277  1.0627 -0.0395 -0.3042
   73SLPC   H3R 6422   0.399   1.969  10.317 -0.2188  0.3329 -0.8573
   73SLPC   H3S 6423   0.280   1.852  10.260  1.0783  0.4423 -0.8710
   73SLPC   C24 6424   0.432   1.867  10.131 -0.6041  0.1573  0.1965
   73SLPC   H4R 6425   0.411   1.766  10.090  1.0129 -0.4977  0.8932
   73SLPC   H4S 6426   0.538   1.900  10.132 -0.3566 -0.6332  0.2355
   73SLPC   C25 6427   0.337   1.958  10.045 -0.1855 -0.2373  0.5025
   73SLPC   H5R 6428   0.354   2.064  10.076 -0.5626 -0.0309  0.0195
   73SLPC   H5S 6429   0.230   1.934  10.066 -0.4231 -0.2265 -0.6092
   73SLPC   C26 6430   0.365   1.951   9.894 -0.2943 -0.1798  0.0630
   73SLPC   H6R 6431   0.333   1.851   9.858  1.8713 -0.5816 -0.9118
   73SLPC   H6S 6432   0.473   1.962   9.871 -0.0663  0.0875  1.1975
   73SLPC   C27 6433   0.275   2.057   9.822 -0.9684 -0.6997  0.0830
   73SLPC   H7R 6434   0.276   2.152   9.881 -0.1846 -1.5102  1.4277
   73SLPC   H7S 6435   0.174   2.012   9.817 -1.0070 -0.6145  0.0833
   73SLPC   C28 6436   0.324   2.093   9.679  0.8232 -0.0292  0.1831
   73SLPC   H8R 6437   0.250   2.172   9.654 -0.1862 -0.7941  0.6571
   73SLPC   H8S 6438   0.297   2.004   9.618 -1.3536  1.8533 -1.7939
   73SLPC   C29 6439   0.468   2.144   9.664  0.5609 -0.3701  0.9352
   73SLPC   H9R 6440   0.529   2.128   9.754  0.4698 -0.8692  0.9162
   73SLPC  C210 6441   0.528   2.198   9.558 -0.5966 -0.0379 -0.5339
   73SLPC  H10R 6442   0.631   2.234   9.574 -0.5504 -0.5421  0.3812
   73SLPC  C211 6443   0.458   2.212   9.419  0.3002  0.1038 -0.1919
   73SLPC  H11R 6444   0.402   2.120   9.391  1.7718 -0.9081  0.0958
   73SLPC  H11S 6445   0.533   2.214   9.337  1.7022 -0.6586  1.0213
   73SLPC  C212 6446   0.375   2.340   9.419  0.1866  0.9006  0.4818
   73SLPC  H12R 6447   0.419   2.427   9.470 -1.5754  0.9645  2.0124
   73SLPC  C213 6448   0.254   2.350   9.354 -0.2951  0.0835 -0.4799
   73SLPC  H13R 6449   0.216   2.453   9.346  0.0979  0.0984 -2.5578
   73SLPC  C214 6450   0.179   2.237   9.284  0.2944  0.7975 -0.3928
   73SLPC  H14R 6451   0.071   2.242   9.307  0.2721 -0.9797  0.0647
   73SLPC  H14S 6452   0.211   2.133   9.307  1.1875  0.9772 -0.7778
   73SLPC  C215 6453   0.194   2.263   9.128  0.1767  0.0719 -0.8183
   73SLPC  H15R 6454   0.150   2.352   9.080  1.3823  0.7022 -0.7865
   73SLPC  H15S 6455   0.142   2.172   9.091  1.7457 -1.1811 -0.0655
   73SLPC  C216 6456   0.337   2.245   9.068  0.4810  0.2622  1.0674
   73SLPC  H16R 6457   0.383   2.145   9.083 -1.5199 -0.9598 -0.3814
   73SLPC  H16S 6458   0.407   2.321   9.108  0.2081  0.0827  1.9041
   73SLPC  C217 6459   0.327   2.262   8.908 -0.3090  0.1359  0.6950
   73SLPC  H17R 6460   0.323   2.369   8.879  0.2964 -0.5211 -2.0539
   73SLPC  H17S 6461   0.241   2.207   8.866  0.4356  0.9496 -2.0803
   73SLPC  C218 6462   0.452   2.200   8.837  0.7487  0.2865 -0.3636
   73SLPC  H18R 6463   0.550   2.229   8.882  1.2027  0.2566 -1.2910
   73SLPC  H18S 6464   0.456   2.219   8.727  0.1119  0.0756 -0.4240
   73SLPC  H18T 6465   0.429   2.091   8.842 -0.7668  0.6032 -0.0365
   73SLPC   C33 6466   0.884   1.288  10.416  0.6219  0.7555 -0.8170
   73SLPC   H3X 6467   0.773   1.288  10.411  0.6316  0.0618 -1.0608
   73SLPC   H3Y 6468   0.916   1.217  10.496 -1.2132  0.5726 -0.1802
   73SLPC   C34 6469   0.940   1.224  10.292  1.1245 -0.1085  0.1352
   73SLPC   H4X 6470   0.884   1.132  10.268 -0.4746  0.9469 -0.3275
   73SLPC   H4Y 6471   1.042   1.193  10.323 -0.2558 -2.2756  2.9799
   73SLPC   C35 6472   0.949   1.314  10.163  0.2571  0.4881  0.3742
   73SLPC   H5X 6473   1.028   1.390  10.182  2.3072 -1.2406 -0.7630
   73SLPC   H5Y 6474   0.846   1.353  10.148 -0.0966 -0.7362 -0.4829
   73SLPC   C36 6475   0.992   1.230  10.043 -0.6471  0.5272 -1.0075
   73SLPC   H6X 6476   0.931   1.137  10.040 -0.3455  0.3062 -0.4537
   73SLPC   H6Y 6477   1.096   1.197  10.063 -1.5447 -2.3766 -0.6099
   73SLPC   C37 6478   0.973   1.304   9.911  0.1703 -0.1577  0.3349
   73SLPC   H7X 6479   1.018   1.405   9.921  1.1174 -0.5682  0.3056
   73SLPC   H7Y 6480   0.866   1.320   9.885 -0.0048 -2.0995 -0.3302
   73SLPC   C38 6481   1.033   1.236   9.788 -0.3405  0.1490  0.8189
   73SLPC   H8X 6482   1.022   1.125   9.791 -1.4442  0.2266  0.3508
   73SLPC   H8Y 6483   1.140   1.264   9.789  0.0751 -1.1098 -1.5047
   73SLPC   C39 6484   0.975   1.287   9.660 -0.0509  0.0214  0.8033
   73SLPC   H9X 6485   0.967   1.397   9.645  1.7113 -0.0010 -0.6702
   73SLPC   H9Y 6486   0.876   1.237   9.657 -0.8252  1.5672 -1.0670
   73SLPC  C310 6487   1.050   1.241   9.535  0.3285  0.6714  0.3456
   73SLPC  H10X 6488   1.033   1.131   9.538 -0.2754  0.7738  0.7832
   73SLPC  H10Y 6489   1.157   1.268   9.524  0.4509  0.3628  0.7689
   73SLPC  C311 6490   0.983   1.315   9.415 -0.2391 -0.2368 -0.2017
   73SLPC  H11X 6491   0.999   1.424   9.429 -1.3258  0.0262 -0.9071
   73SLPC  H11Y 6492   0.874   1.305   9.399  0.0308 -0.4748 -2.0668
   73SLPC  C312 6493   1.048   1.287   9.283  0.7465 -0.5111  0.1556
   73SLPC  H12X 6494   1.064   1.177   9.276  3.4937 -0.2983  1.8071
   73SLPC  H12Y 6495   1.152   1.325   9.286 -0.1935  2.1981  1.0843
   73SLPC  C313 6496   0.973   1.346   9.158  0.6551 -0.3238  0.4126
   73SLPC  H13X 6497   0.960   1.456   9.151 -1.5787 -0.4768  1.1322
   73SLPC  H13Y 6498   0.871   1.302   9.167  0.4565  0.0839  0.1783
   73SLPC  C314 6499   1.026   1.290   9.029 -0.1586  0.7610  0.8164
   73SLPC  H14X 6500   1.050   1.182   9.040 -2.2333  0.3283  1.5406
   73SLPC  H14Y 6501   1.112   1.348   8.990 -1.5486  0.5043 -3.0875
   73SLPC  C315 6502   0.920   1.297   8.922 -0.4056 -0.1542  0.5492
   73SLPC  H15X 6503   0.913   1.407   8.905 -0.3239  0.1298  2.1468
   73SLPC  H15Y 6504   0.829   1.247   8.960  1.1417 -3.3077  0.4003
   73SLPC  C316 6505   0.946   1.220   8.786 -0.3983  0.2652 -0.0416
   73SLPC  H16X 6506   0.856   1.239   8.723 -0.8695  0.8046  0.7736
   73SLPC  H16Y 6507   0.967   1.113   8.802  2.2380  1.0596  2.6718
   73SLPC  C317 6508   1.069   1.276   8.702  0.0604  0.1702  0.0819
   73SLPC  H17X 6509   1.153   1.259   8.772  0.7257  2.4132 -0.0943
   73SLPC  H17Y 6510   1.053   1.386   8.706 -1.4534 -0.0666  2.6087
   73SLPC  C318 6511   1.067   1.219   8.559  0.1402  0.3543  0.0734
   73SLPC  H18X 6512   1.093   1.111   8.557  0.7518  0.5115 -0.5908
   73SLPC  H18Y 6513   1.134   1.279   8.495 -1.0675  0.2339 -1.3450
   73SLPC  H18Z 6514   0.971   1.235   8.504  0.6316 -0.6501 -1.1165
   74SLPC     N 6515   6.555   5.552  10.993  0.6662 -0.6833  0.2432
   74SLPC   C13 6516   6.449   5.447  10.981 -0.0274  0.3392 -0.8648
   74SLPC  H13A 6517   6.426   5.410  11.079  1.0008  0.0191 -0.7280
   74SLPC  H13B 6518   6.356   5.485  10.942 -0.7191 -2.4525 -2.1731
   74SLPC  H13C 6519   6.479   5.367  10.915 -0.1052 -0.3897 -0.0301
   74SLPC   C14 6520   6.686   5.503  11.048 -0.0526 -0.3931 -0.0801
   74SLPC  H14A 6521   6.743   5.447  10.975  0.0631  0.5612 -0.7432
   74SLPC  H14B 6522   6.748   5.583  11.088  0.5096 -1.2857  0.8962
   74SLPC  H14C 6523   6.672   5.435  11.130 -0.2068 -0.4455 -0.1502
   74SLPC   C15 6524   6.508   5.651  11.098 -0.6086  0.5433  0.4574
   74SLPC  H15A 6525   6.415   5.701  11.074  0.7851  3.1207  0.0876
   74SLPC  H15B 6526   6.498   5.599  11.192 -2.3946 -0.2251 -0.1006
   74SLPC  H15C 6527   6.579   5.729  11.119 -0.0886 -0.1822  1.4506
   74SLPC   C12 6528   6.580   5.633  10.865  0.5991  0.6368  0.3178
   74SLPC  H12A 6529   6.489   5.683  10.836  0.1064  1.1142  2.5112
   74SLPC  H12B 6530   6.599   5.562  10.786 -2.7085  0.6326 -0.5929
   74SLPC   C11 6531   6.695   5.739  10.864  0.1302  0.4266 -0.2745
   74SLPC  H11A 6532   6.668   5.800  10.952 -2.6213 -0.8120 -0.1642
   74SLPC  H11B 6533   6.692   5.811  10.779  0.6554  0.8111  0.0349
   74SLPC     P 6534   6.890   5.591  10.770 -0.0904 -0.2814  0.3488
   74SLPC   O13 6535   7.040   5.581  10.788 -0.1259  0.5674  0.6214
   74SLPC   O14 6536   6.815   5.468  10.777  0.3976  0.3992  0.2206
   74SLPC   O12 6537   6.828   5.685  10.881  0.0659 -0.2783 -0.6475
   74SLPC   O11 6538   6.867   5.668  10.636  0.8565 -0.1180  0.0773
   74SLPC    C1 6539   6.942   5.785  10.609  1.1555  0.5980 -0.7603
   74SLPC    HA 6540   6.881   5.877  10.621  0.4479 -0.0709  1.0566
   74SLPC    HB 6541   7.015   5.810  10.689 -1.0274  1.0805  1.1643
   74SLPC    C2 6542   7.026   5.777  10.482 -0.1999  0.3277  0.3753
   74SLPC    HS 6543   7.090   5.866  10.469  2.9516 -1.9397 -0.9559
   74SLPC   O21 6544   6.959   5.749  10.363 -0.7535 -0.5739  0.0923
   74SLPC   C21 6545   6.853   5.824  10.334 -0.8361  0.4437  0.2092
   74SLPC   O22 6546   6.821   5.925  10.395  0.3221  0.7841 -0.0658
   74SLPC   C22 6547   6.785   5.792  10.194 -0.3667  0.9670 -1.1640
   74SLPC   H2R 6548   6.863   5.787  10.114  1.1728  1.5495  0.2327
   74SLPC   H2S 6549   6.721   5.703  10.212 -1.2782  2.0893  1.7301
   74SLPC    C3 6550   7.133   5.664  10.489 -0.0057  0.3439  0.4612
   74SLPC    HX 6551   7.079   5.569  10.511  1.0183 -0.4486 -0.3989
   74SLPC    HY 6552   7.204   5.682  10.573  1.1384  0.1476 -0.4400
   74SLPC   O31 6553   7.205   5.644  10.367 -0.3227 -0.0448 -0.1476
   74SLPC   C31 6554   7.307   5.728  10.356 -0.0448 -0.3015 -0.4961
   74SLPC   O32 6555   7.331   5.819  10.431  0.0181  0.0955  0.9331
   74SLPC   C32 6556   7.389   5.694  10.235 -0.1914  0.0527  0.1055
   74SLPC   H2X 6557   7.373   5.585  10.222  1.8311 -0.4727  1.5757
   74SLPC   H2Y 6558   7.497   5.714  10.248 -0.2480  0.2333  0.3083
   74SLPC   C23 6559   6.694   5.903  10.152 -0.1170  0.7083  0.0447
   74SLPC   H3R 6560   6.748   5.999  10.141 -1.6695  1.5565 -0.4290
   74SLPC   H3S 6561   6.623   5.916  10.237  1.2372  0.2050  1.2927
   74SLPC   C24 6562   6.604   5.880  10.027 -0.0189 -0.9104  0.1266
   74SLPC   H4R 6563   6.603   5.978   9.975 -0.3454 -0.8939  0.1610
   74SLPC   H4S 6564   6.507   5.857  10.075 -0.0995  2.9506  2.2533
   74SLPC   C25 6565   6.643   5.775   9.918 -0.3823  0.0079  0.3442
   74SLPC   H5R 6566   6.653   5.680   9.974 -1.2383 -0.4259 -0.2236
   74SLPC   H5S 6567   6.745   5.805   9.883  0.1376 -0.5093  1.3740
   74SLPC   C26 6568   6.553   5.739   9.795  0.2500  0.5759 -0.0945
   74SLPC   H6R 6569   6.532   5.831   9.737  2.5646  0.5702 -1.0534
   74SLPC   H6S 6570   6.471   5.674   9.832  1.1418 -1.6616 -1.8048
   74SLPC   C27 6571   6.626   5.655   9.688 -0.0854  0.3440  0.3488
   74SLPC   H7R 6572   6.670   5.570   9.745  0.5756 -0.1453 -0.8527
   74SLPC   H7S 6573   6.698   5.724   9.638 -0.8852 -1.0176 -2.9791
   74SLPC   C28 6574   6.527   5.597   9.583 -0.3930 -0.3028  0.2051
   74SLPC   H8R 6575   6.481   5.685   9.533  1.1995  0.8420  0.6773
   74SLPC   H8S 6576   6.444   5.550   9.639 -1.5652  0.3677 -0.8978
   74SLPC   C29 6577   6.590   5.503   9.487  0.4739 -0.2056  0.1329
   74SLPC   H9R 6578   6.595   5.399   9.523  2.8569 -1.1288 -2.5024
   74SLPC  C210 6579   6.651   5.534   9.373 -0.7203  0.5376 -0.5882
   74SLPC  H10R 6580   6.679   5.448   9.310  1.1273 -0.9934  2.1067
   74SLPC  C211 6581   6.669   5.669   9.319 -0.4316 -0.5945  1.2288
   74SLPC  H11R 6582   6.772   5.670   9.277 -0.9362 -0.7793 -0.0638
   74SLPC  H11S 6583   6.661   5.751   9.394  1.4523 -1.0005  1.9354
   74SLPC  C212 6584   6.567   5.702   9.217 -0.4771 -0.2666  0.8670
   74SLPC  H12R 6585   6.489   5.768   9.256  0.3747  1.0692  0.3872
   74SLPC  C213 6586   6.575   5.675   9.082  0.0627 -0.2791 -0.1944
   74SLPC  H13R 6587   6.490   5.710   9.021 -0.1211  1.8587  1.1865
   74SLPC  C214 6588   6.697   5.609   9.012  0.3637 -0.4253 -0.3116
   74SLPC  H14R 6589   6.683   5.499   9.008  1.4137 -0.6046  0.6312
   74SLPC  H14S 6590   6.788   5.610   9.076  0.7519 -0.2043 -0.8582
   74SLPC  C215 6591   6.725   5.649   8.872 -0.6189 -0.2725  0.2364
   74SLPC  H15R 6592   6.629   5.640   8.817 -0.6264 -0.2376  0.2439
   74SLPC  H15S 6593   6.784   5.565   8.830 -0.3774  0.0003  0.0215
   74SLPC  C216 6594   6.798   5.787   8.862  0.5151  0.2542 -0.1030
   74SLPC  H16R 6595   6.901   5.782   8.902  0.7862 -1.9951 -0.9370
   74SLPC  H16S 6596   6.748   5.873   8.912  1.4758  0.0812  1.2131
   74SLPC  C217 6597   6.793   5.831   8.719 -0.0750 -0.9121 -0.9874
   74SLPC  H17R 6598   6.687   5.825   8.688 -0.7443 -0.2862  0.9899
   74SLPC  H17S 6599   6.837   5.751   8.656 -0.7114 -0.9634 -1.3638
   74SLPC  C218 6600   6.866   5.964   8.689 -0.0110  0.0643 -0.0885
   74SLPC  H18R 6601   6.970   5.962   8.727 -0.6039  2.0238  1.8741
   74SLPC  H18S 6602   6.817   6.044   8.749 -1.3938  0.8244 -2.1419
   74SLPC  H18T 6603   6.868   5.981   8.580  3.9416 -1.5166 -0.4192
   74SLPC   C33 6604   7.337   5.755  10.106 -0.0180 -0.2280  0.0200
   74SLPC   H3X 6605   7.341   5.866  10.102 -2.3215 -0.1187 -0.1868
   74SLPC   H3Y 6606   7.229   5.736  10.087 -0.1241  1.9172 -1.8412
   74SLPC   C34 6607   7.401   5.685   9.977  0.1337  0.1879 -0.3787
   74SLPC   H4X 6608   7.373   5.577   9.975  0.0129  0.1174  2.0432
   74SLPC   H4Y 6609   7.512   5.686   9.982  0.0850  0.4039  1.5219
   74SLPC   C35 6610   7.339   5.742   9.849 -0.4942  1.1165  0.1192
   74SLPC   H5X 6611   7.359   5.851   9.854 -0.1374  1.0038  1.6572
   74SLPC   H5Y 6612   7.229   5.728   9.856 -0.4242  1.0768  1.6550
   74SLPC   C36 6613   7.404   5.683   9.723  0.5267 -0.2874 -0.3913
   74SLPC   H6X 6614   7.402   5.572   9.722  0.9911 -0.3007 -1.5140
   74SLPC   H6Y 6615   7.507   5.725   9.725  0.6649 -0.6493  0.3837
   74SLPC   C37 6616   7.356   5.754   9.587  0.6431 -0.1572  0.0319
   74SLPC   H7X 6617   7.359   5.863   9.608  0.6185 -0.3360  1.0136
   74SLPC   H7Y 6618   7.255   5.719   9.557  0.3965  0.3346  0.2767
   74SLPC   C38 6619   7.450   5.719   9.467  0.5342 -0.4469 -0.2371
   74SLPC   H8X 6620   7.453   5.608   9.461  0.5382 -0.6613  2.5826
   74SLPC   H8Y 6621   7.554   5.753   9.486  0.5991 -0.6487 -0.2295
   74SLPC   C39 6622   7.403   5.776   9.332 -0.4622  0.4393  0.1841
   74SLPC   H9X 6623   7.491   5.768   9.264  0.4100 -0.7704  1.4061
   74SLPC   H9Y 6624   7.376   5.883   9.342 -1.3352  0.3774 -1.2301
   74SLPC  C310 6625   7.274   5.724   9.275  0.2073 -0.0894 -0.8201
   74SLPC  H10X 6626   7.229   5.810   9.221  0.1111  0.7424  0.5201
   74SLPC  H10Y 6627   7.205   5.673   9.346  0.2872  0.2445 -0.4948
   74SLPC  C311 6628   7.303   5.615   9.164  0.0308  0.0234 -0.2304
   74SLPC  H11X 6629   7.344   5.520   9.204 -2.1734 -1.4334 -1.2726
   74SLPC  H11Y 6630   7.377   5.647   9.088 -0.1801  1.0935 -0.0027
   74SLPC  C312 6631   7.171   5.576   9.097  0.3732  0.4116  0.0009
   74SLPC  H12X 6632   7.118   5.660   9.047 -4.7166 -0.8373  2.6340
   74SLPC  H12Y 6633   7.096   5.540   9.171  0.4831  1.2133  0.5106
   74SLPC  C313 6634   7.184   5.457   8.990  0.0212  0.2340  0.1246
   74SLPC  H13X 6635   7.217   5.365   9.042 -3.6356 -1.9428 -0.9931
   74SLPC  H13Y 6636   7.266   5.484   8.919 -0.1164 -1.4714 -0.7335
   74SLPC  C314 6637   7.044   5.429   8.927 -0.7936  0.2457  0.4312
   74SLPC  H14X 6638   7.022   5.527   8.878  2.3327  0.1536 -1.4106
   74SLPC  H14Y 6639   6.970   5.413   9.008 -5.1951 -1.0088 -3.4319
   74SLPC  C315 6640   7.056   5.312   8.828  0.0802 -0.4145 -0.0415
   74SLPC  H15X 6641   7.081   5.222   8.888  2.3010 -0.3390 -0.7484
   74SLPC  H15Y 6642   7.148   5.326   8.767 -0.3620 -0.0304 -0.6336
   74SLPC  C316 6643   6.937   5.294   8.735  0.5819  0.1007  0.8720
   74SLPC  H16X 6644   6.955   5.210   8.665  0.7039 -0.1323  1.1803
   74SLPC  H16Y 6645   6.919   5.390   8.682  1.0430 -1.5844 -2.5753
   74SLPC  C317 6646   6.818   5.250   8.813 -0.0719  0.4222  0.4217
   74SLPC  H17X 6647   6.724   5.265   8.755 -3.1169 -3.6036  3.7031
   74SLPC  H17Y 6648   6.809   5.313   8.904  1.3523 -1.0444  1.6329
   74SLPC  C318 6649   6.822   5.114   8.877 -0.2455  0.5817 -0.2334
   74SLPC  H18X 6650   6.722   5.080   8.912 -0.1973  0.2471 -0.4125
   74SLPC  H18Y 6651   6.897   5.106   8.958 -0.9910 -1.4142  0.3459
   74SLPC  H18Z 6652   6.846   5.038   8.799 -1.5601 -0.3820  0.2645
   75SLPC     N 6653   3.706   3.320   6.284 -0.4265 -0.1650  0.0837
   75SLPC   C13 6654   3.682   3.335   6.135  0.4144 -0.6506 -0.7429
   75SLPC  H13A 6655   3.697   3.440   6.113  0.8779 -0.5665 -0.0390
   75SLPC  H13B 6656   3.754   3.275   6.082 -0.7214 -2.0901 -0.7019
   75SLPC  H13C 6657   3.581   3.317   6.101  0.2787  1.3023 -1.5206
   75SLPC   C14 6658   3.844   3.370   6.323  0.2890 -0.8881 -0.4980
   75SLPC  H14A 6659   3.914   3.290   6.305 -1.8052 -2.6096 -1.5517
   75SLPC  H14B 6660   3.888   3.445   6.260  0.4929 -1.3561 -0.9176
   75SLPC  H14C 6661   3.853   3.399   6.427 -0.2437 -1.2981 -0.3286
   75SLPC   C15 6662   3.705   3.171   6.311  0.1274 -0.6754 -0.0913
   75SLPC  H15A 6663   3.615   3.127   6.271  0.6078  0.3055 -2.3917
   75SLPC  H15B 6664   3.782   3.126   6.250  0.7337 -1.1737  1.0061
   75SLPC  H15C 6665   3.711   3.151   6.417 -0.4365  1.5311  0.3980
   75SLPC   C12 6666   3.602   3.395   6.367 -0.0104 -0.8397  0.6123
   75SLPC  H12A 6667   3.622   3.500   6.378  0.1554 -0.7120 -0.7089
   75SLPC  H12B 6668   3.603   3.355   6.467  2.0033 -1.7142  0.2777
   75SLPC   C11 6669   3.454   3.389   6.321 -0.5767 -0.2948  0.1482
   75SLPC  H11A 6670   3.421   3.284   6.305 -0.7473 -0.1108 -0.7449
   75SLPC  H11B 6671   3.447   3.448   6.227 -0.2254  0.5742  0.6594
   75SLPC     P 6672   3.294   3.389   6.533  0.1912 -0.2015 -0.1061
   75SLPC   O13 6673   3.227   3.494   6.608  0.5945 -0.0890  0.7007
   75SLPC   O14 6674   3.211   3.278   6.485  0.0467 -0.2517  0.2581
   75SLPC   O12 6675   3.367   3.459   6.411  0.2523 -0.0644  0.2939
   75SLPC   O11 6676   3.407   3.320   6.628 -0.4574 -0.7112  0.2272
   75SLPC    C1 6677   3.497   3.401   6.705  0.9030  0.5931  0.3667
   75SLPC    HA 6678   3.604   3.386   6.679  0.8928  1.9490 -0.5451
   75SLPC    HB 6679   3.476   3.509   6.692 -2.0684 -0.1444 -1.9833
   75SLPC    C2 6680   3.497   3.356   6.855  0.3828 -0.3494  0.3620
   75SLPC    HS 6681   3.555   3.261   6.856  0.3532 -0.4038 -1.0202
   75SLPC   O21 6682   3.364   3.332   6.900  0.1381  0.9269 -0.0727
   75SLPC   C21 6683   3.325   3.206   6.911 -0.0369  0.2504 -0.2473
   75SLPC   O22 6684   3.387   3.107   6.873  0.0951  0.4472 -0.0409
   75SLPC   C22 6685   3.185   3.204   6.985  0.0937 -0.5385  0.8807
   75SLPC   H2R 6686   3.172   3.297   7.044 -0.5422  0.0090 -0.0916
   75SLPC   H2S 6687   3.120   3.226   6.898 -0.2819 -0.3183  1.2182
   75SLPC    C3 6688   3.558   3.452   6.955 -0.2781  0.2793  0.1374
   75SLPC    HX 6689   3.503   3.548   6.950  2.0636  1.6548 -1.1416
   75SLPC    HY 6690   3.665   3.473   6.934 -0.5491  1.3195 -0.2625
   75SLPC   O31 6691   3.551   3.392   7.085 -0.1153  0.3190  0.0289
   75SLPC   C31 6692   3.581   3.475   7.186 -0.0206  0.8492 -0.2839
   75SLPC   O32 6693   3.602   3.591   7.187 -0.4621  0.0437 -0.2378
   75SLPC   C32 6694   3.593   3.388   7.316  0.2613 -0.0824  0.0116
   75SLPC   H2X 6695   3.688   3.395   7.372 -0.2508  0.0947  0.8681
   75SLPC   H2Y 6696   3.590   3.284   7.276  2.0683 -0.2978  0.3473
   75SLPC   C23 6697   3.145   3.077   7.069 -0.4268  0.5190  0.6676
   75SLPC   H3R 6698   3.194   2.992   7.018  1.0853  0.5155  2.0300
   75SLPC   H3S 6699   3.034   3.072   7.069 -0.4445 -0.4391 -1.5685
   75SLPC   C24 6700   3.205   3.094   7.210  0.2970 -0.3092 -0.2148
   75SLPC   H4R 6701   3.310   3.129   7.207  0.3506 -0.1840  1.7497
   75SLPC   H4S 6702   3.213   2.996   7.261  2.2127  0.1843  0.5150
   75SLPC   C25 6703   3.122   3.194   7.300  0.0367 -0.2864 -0.4369
   75SLPC   H5R 6704   3.012   3.186   7.292 -0.0279 -1.4485  1.2421
   75SLPC   H5S 6705   3.138   3.299   7.268 -3.2357  0.9702  1.5811
   75SLPC   C26 6706   3.175   3.207   7.445 -0.7989  0.2340 -0.4462
   75SLPC   H6R 6707   3.150   3.309   7.480  1.6635  0.8402 -0.2566
   75SLPC   H6S 6708   3.286   3.205   7.450 -0.7613 -2.0395 -0.9215
   75SLPC   C27 6709   3.115   3.100   7.543  0.0863  0.2255  0.2353
   75SLPC   H7R 6710   3.183   3.013   7.530 -0.9873 -0.7807  1.1536
   75SLPC   H7S 6711   3.007   3.080   7.522 -0.2825  1.9185  0.4077
   75SLPC   C28 6712   3.137   3.145   7.690 -0.0606  0.1054  0.0575
   75SLPC   H8R 6713   3.240   3.185   7.684  0.5707 -1.5673 -1.2167
   75SLPC   H8S 6714   3.137   3.050   7.748 -1.5572  0.4088  0.5913
   75SLPC   C29 6715   3.040   3.244   7.744 -0.5263  0.4359  0.4472
   75SLPC   H9R 6716   2.945   3.260   7.690 -0.9333 -0.1282  0.9799
   75SLPC  C210 6717   3.036   3.273   7.882  0.9413  0.8789 -0.5342
   75SLPC  H10R 6718   2.958   3.338   7.924  1.3117 -0.0082  1.6621
   75SLPC  C211 6719   3.130   3.230   7.985 -0.9813 -0.2697  0.3797
   75SLPC  H11R 6720   3.136   3.313   8.058  1.7986  0.7932 -0.8983
   75SLPC  H11S 6721   3.225   3.211   7.931 -2.1516 -0.4738 -1.6950
   75SLPC  C212 6722   3.085   3.105   8.049 -0.1790 -0.0768 -0.7219
   75SLPC  H12R 6723   3.058   3.027   7.977 -0.4342  0.0753 -0.7930
   75SLPC  C213 6724   3.074   3.075   8.178  0.3531 -0.7629 -0.2204
   75SLPC  H13R 6725   3.044   2.972   8.203  0.4062 -0.9737 -1.0053
   75SLPC  C214 6726   3.111   3.173   8.294  0.2839 -0.7636 -0.3893
   75SLPC  H14R 6727   3.207   3.222   8.267 -0.1919 -0.1946 -1.0908
   75SLPC  H14S 6728   3.120   3.110   8.385 -0.0756 -0.1121  0.1134
   75SLPC  C215 6729   2.999   3.266   8.330  0.4998 -0.2003  0.3427
   75SLPC  H15R 6730   2.899   3.218   8.325  0.7560 -0.9217  1.7290
   75SLPC  H15S 6731   2.984   3.347   8.255  1.7003  0.8956  1.2412
   75SLPC  C216 6732   3.006   3.325   8.476  0.0235 -0.5925  0.4114
   75SLPC  H16R 6733   3.010   3.240   8.547  2.8627 -0.6410  0.3362
   75SLPC  H16S 6734   2.914   3.384   8.494  1.5056  2.2542 -0.7627
   75SLPC  C217 6735   3.130   3.408   8.495  0.4949 -0.5415 -0.7694
   75SLPC  H17R 6736   3.220   3.347   8.475  2.0503  0.7501  1.8569
   75SLPC  H17S 6737   3.141   3.445   8.599  1.2626 -4.1903  0.6044
   75SLPC  C218 6738   3.131   3.528   8.404  0.3534 -0.2208  0.5667
   75SLPC  H18R 6739   3.042   3.594   8.410  0.1007 -0.0599 -3.0657
   75SLPC  H18S 6740   3.148   3.501   8.298  0.2507 -0.6385  0.6541
   75SLPC  H18T 6741   3.225   3.583   8.426 -0.2197  0.8491  0.3993
   75SLPC   C33 6742   3.478   3.430   7.409  0.4019 -0.7673 -0.5348
   75SLPC   H3X 6743   3.472   3.539   7.429  0.1009 -0.5832 -1.5668
   75SLPC   H3Y 6744   3.390   3.415   7.343  0.4769  0.9265 -1.0583
   75SLPC   C34 6745   3.496   3.347   7.536  0.5088 -0.3413  0.1259
   75SLPC   H4X 6746   3.605   3.358   7.550  0.5296 -1.8457  1.3693
   75SLPC   H4Y 6747   3.465   3.242   7.518  0.4211 -0.6358  1.8940
   75SLPC   C35 6748   3.415   3.385   7.661 -0.1871  0.3892 -0.0501
   75SLPC   H5X 6749   3.426   3.306   7.738 -0.5113  0.6511  0.2673
   75SLPC   H5Y 6750   3.308   3.401   7.636  0.1007  1.2686 -0.8092
   75SLPC   C36 6751   3.469   3.506   7.739 -0.1535 -0.4609  0.0469
   75SLPC   H6X 6752   3.445   3.599   7.683 -1.0881 -0.7603 -0.0616
   75SLPC   H6Y 6753   3.579   3.494   7.749 -0.0899 -0.7524 -0.9405
   75SLPC   C37 6754   3.414   3.522   7.875 -0.6102 -0.2439 -0.1679
   75SLPC   H7X 6755   3.460   3.437   7.930 -0.6022 -0.4910 -0.5515
   75SLPC   H7Y 6756   3.305   3.504   7.873 -1.2474  3.0110 -1.1551
   75SLPC   C38 6757   3.437   3.654   7.953 -0.1291  0.2654  0.1101
   75SLPC   H8X 6758   3.361   3.733   7.935  0.3192  1.0259  1.4028
   75SLPC   H8Y 6759   3.538   3.688   7.920  1.6706 -3.7979  0.8068
   75SLPC   C39 6760   3.440   3.636   8.107 -0.3928 -0.2536 -0.5287
   75SLPC   H9X 6761   3.532   3.579   8.134 -0.5586  0.6939  2.3520
   75SLPC   H9Y 6762   3.359   3.566   8.137  0.6062 -2.0749 -1.8262
   75SLPC  C310 6763   3.425   3.779   8.177 -0.2958  0.2485  0.1295
   75SLPC  H10X 6764   3.316   3.798   8.189 -0.1487  1.4094 -0.2053
   75SLPC  H10Y 6765   3.468   3.852   8.104  0.5636 -2.1214 -1.8702
   75SLPC  C311 6766   3.476   3.782   8.318 -0.6857  0.4984 -0.8662
   75SLPC  H11X 6767   3.583   3.805   8.298 -0.7101  0.4104 -1.1103
   75SLPC  H11Y 6768   3.463   3.680   8.359 -3.0889  0.4314 -1.6284
   75SLPC  C312 6769   3.421   3.891   8.405  0.0421 -0.6629  0.2256
   75SLPC  H12X 6770   3.454   3.986   8.360 -1.4601 -0.6839 -0.9895
   75SLPC  H12Y 6771   3.461   3.881   8.508 -1.8652 -0.3093  1.0359
   75SLPC  C313 6772   3.268   3.889   8.429 -0.1697 -0.1029  0.4320
   75SLPC  H13X 6773   3.223   3.788   8.439  0.0283 -0.1007  1.4039
   75SLPC  H13Y 6774   3.219   3.940   8.344  0.1077 -0.3907  0.0928
   75SLPC  C314 6775   3.234   3.962   8.560 -0.0116 -0.0274 -0.5164
   75SLPC  H14X 6776   3.316   3.940   8.632  1.2846 -1.3305 -2.2968
   75SLPC  H14Y 6777   3.134   3.927   8.593  0.5378  0.0020  1.2832
   75SLPC  C315 6778   3.221   4.114   8.536  0.1946  0.1407  0.4853
   75SLPC  H15X 6779   3.157   4.151   8.453  1.9846 -1.0725 -1.5265
   75SLPC  H15Y 6780   3.323   4.158   8.529  0.0478  0.5487  0.8624
   75SLPC  C316 6781   3.156   4.177   8.658 -0.5843  0.8420  0.8246
   75SLPC  H16X 6782   3.211   4.142   8.748 -1.7573  0.0922  1.2874
   75SLPC  H16Y 6783   3.050   4.144   8.670 -0.8536 -0.5341 -3.6205
   75SLPC  C317 6784   3.164   4.331   8.656 -0.5730  0.1302 -0.2108
   75SLPC  H17X 6785   3.272   4.352   8.640  0.2092 -3.0720  0.3035
   75SLPC  H17Y 6786   3.138   4.381   8.752 -1.7898  0.9105 -0.9176
   75SLPC  C318 6787   3.091   4.401   8.546  0.8483  0.1639  0.2825
   75SLPC  H18X 6788   3.096   4.511   8.557  2.0044 -0.0088  1.7496
   75SLPC  H18Y 6789   2.984   4.373   8.535  0.5979  1.2541 -0.1706
   75SLPC  H18Z 6790   3.140   4.372   8.450 -0.0664 -2.0712  0.4227
   76SLPC     N 6791   3.009   1.018   6.549  1.0328 -0.1997 -0.3258
   76SLPC   C13 6792   3.111   1.041   6.652 -0.3567  0.1991  0.1115
   76SLPC  H13A 6793   3.197   0.981   6.624  0.9951  3.0631 -2.5081
   76SLPC  H13B 6794   3.139   1.145   6.661  1.0613  0.1408 -2.6468
   76SLPC  H13C 6795   3.080   1.012   6.751 -0.3345 -0.5640 -0.1011
   76SLPC   C14 6796   3.064   1.032   6.412 -0.0981 -0.0815  0.1958
   76SLPC  H14A 6797   3.007   0.970   6.343  0.2324  0.0051 -0.1594
   76SLPC  H14B 6798   3.065   1.132   6.371  0.0084 -0.2039 -0.1037
   76SLPC  H14C 6799   3.165   0.993   6.419  0.0002  0.4023  1.7509
   76SLPC   C15 6800   2.906   1.125   6.573  0.3251 -0.6849 -0.0601
   76SLPC  H15A 6801   2.885   1.131   6.679  2.4670  2.2203  0.3385
   76SLPC  H15B 6802   2.955   1.220   6.554 -1.6085  0.3877  0.1095
   76SLPC  H15C 6803   2.812   1.115   6.521  0.0669  0.3825  0.1794
   76SLPC   C12 6804   2.949   0.873   6.563 -0.5359 -0.1271 -0.0510
   76SLPC  H12A 6805   2.937   0.852   6.668  1.4076  1.5044  0.5510
   76SLPC  H12B 6806   3.032   0.809   6.539 -0.4779  0.1067 -0.4818
   76SLPC   C11 6807   2.823   0.845   6.475  0.8157  0.3285  0.5794
   76SLPC  H11A 6808   2.797   0.741   6.506  0.8759 -0.0853 -0.7155
   76SLPC  H11B 6809   2.847   0.848   6.367 -1.0823  0.4180  0.1407
   76SLPC     P 6810   2.612   0.966   6.397  0.7983  0.2415 -0.0879
   76SLPC   O13 6811   2.676   1.039   6.287 -0.2978  1.0940 -0.1160
   76SLPC   O14 6812   2.542   0.841   6.360  0.1566 -0.2015 -0.1953
   76SLPC   O12 6813   2.712   0.934   6.517  0.1096 -0.3389  0.2163
   76SLPC   O11 6814   2.500   1.060   6.457 -0.1778 -0.6219 -0.3520
   76SLPC    C1 6815   2.450   1.041   6.595 -0.0480  0.6955  0.4534
   76SLPC    HA 6816   2.341   1.024   6.591 -0.4113  2.0898  2.6919
   76SLPC    HB 6817   2.483   0.949   6.650  0.2277 -0.8203 -2.0897
   76SLPC    C2 6818   2.489   1.157   6.682 -0.2634  0.3117 -0.5263
   76SLPC    HS 6819   2.596   1.158   6.711 -0.4707 -1.4471  0.4121
   76SLPC   O21 6820   2.412   1.154   6.800 -0.1962 -0.5671 -0.2023
   76SLPC   C21 6821   2.423   1.053   6.886 -0.6610 -0.0107 -0.8930
   76SLPC   O22 6822   2.490   0.952   6.875 -0.4275 -0.1034  0.5700
   76SLPC   C22 6823   2.325   1.072   7.002 -0.1458  0.0950 -1.1692
   76SLPC   H2R 6824   2.342   1.171   7.050 -0.3159 -1.6839  2.9110
   76SLPC   H2S 6825   2.226   1.080   6.953 -1.1157 -1.2979  0.4949
   76SLPC    C3 6826   2.468   1.299   6.621 -0.3991  0.0981  0.1956
   76SLPC    HX 6827   2.364   1.334   6.637 -0.6606 -0.5132 -0.1209
   76SLPC    HY 6828   2.477   1.290   6.511 -0.1500  2.0643  0.0158
   76SLPC   O31 6829   2.554   1.391   6.685  0.1246 -0.4213 -0.2513
   76SLPC   C31 6830   2.680   1.404   6.639 -0.6302 -0.2840 -0.5130
   76SLPC   O32 6831   2.728   1.339   6.545 -0.3554 -0.0115 -0.5405
   76SLPC   C32 6832   2.753   1.508   6.726 -0.2985  0.1226 -0.0043
   76SLPC   H2X 6833   2.681   1.571   6.783  0.9394  1.3193  0.2842
   76SLPC   H2Y 6834   2.819   1.567   6.659  1.0075 -2.6338 -1.2935
   76SLPC   C23 6835   2.340   0.961   7.116 -0.0904 -0.6320  0.1345
   76SLPC   H3R 6836   2.438   0.936   7.162 -0.7569 -1.2857  1.2407
   76SLPC   H3S 6837   2.294   0.867   7.078  0.1698 -1.2223  1.2514
   76SLPC   C24 6838   2.261   1.011   7.240  0.3635  0.4810  0.1871
   76SLPC   H4R 6839   2.154   1.021   7.215  0.5590  1.7494 -0.2300
   76SLPC   H4S 6840   2.290   1.112   7.277 -0.4593  0.9223 -0.3433
   76SLPC   C25 6841   2.267   0.908   7.349 -0.9299 -0.5172 -0.3402
   76SLPC   H5R 6842   2.374   0.902   7.377 -1.1096 -1.3050  0.1965
   76SLPC   H5S 6843   2.245   0.809   7.305 -0.1861  0.1614 -2.3535
   76SLPC   C26 6844   2.168   0.931   7.465 -0.0110 -0.2080 -0.7832
   76SLPC   H6R 6845   2.066   0.925   7.422  0.0195 -0.6478 -0.7976
   76SLPC   H6S 6846   2.176   1.033   7.510  1.6804 -1.1197  1.1177
   76SLPC   C27 6847   2.194   0.841   7.588 -0.0142 -0.5848 -0.0350
   76SLPC   H7R 6848   2.210   0.737   7.555 -0.1945 -0.7462  0.3758
   76SLPC   H7S 6849   2.107   0.843   7.657  0.5329 -2.6041  0.7935
   76SLPC   C28 6850   2.308   0.891   7.674 -0.2461 -0.0104 -0.6895
   76SLPC   H8R 6851   2.393   0.874   7.605 -0.4277 -5.5573  0.0016
   76SLPC   H8S 6852   2.298   1.000   7.693 -0.9448 -0.0502 -0.7995
   76SLPC   C29 6853   2.341   0.805   7.798 -0.4903  0.5530  0.0050
   76SLPC   H9R 6854   2.354   0.698   7.775 -0.6174 -0.3325  3.4724
   76SLPC  C210 6855   2.336   0.843   7.925 -0.3808  0.3936 -0.3204
   76SLPC  H10R 6856   2.394   0.777   7.991  2.7790  0.4412 -2.7872
   76SLPC  C211 6857   2.299   0.975   7.992 -0.0108  0.6396  0.8864
   76SLPC  H11R 6858   2.327   1.061   7.928  1.8512 -0.5630 -0.0211
   76SLPC  H11S 6859   2.348   0.987   8.092  0.1961  3.0922  0.5426
   76SLPC  C212 6860   2.148   0.982   8.004  0.1826  0.3558 -0.1326
   76SLPC  H12R 6861   2.081   0.969   7.918 -1.4566 -2.2218  1.3657
   76SLPC  C213 6862   2.077   1.009   8.117  0.2210  0.5759  0.6539
   76SLPC  H13R 6863   1.967   1.011   8.116  0.2312  1.2303  0.2799
   76SLPC  C214 6864   2.136   1.062   8.245  0.0480 -0.1320 -0.4837
   76SLPC  H14R 6865   2.080   1.154   8.271 -0.6208 -0.7879  0.4333
   76SLPC  H14S 6866   2.243   1.088   8.226  0.2173  0.0702  0.6646
   76SLPC  C215 6867   2.130   0.971   8.369 -0.2967  0.1904  0.9746
   76SLPC  H15R 6868   2.198   1.003   8.450  1.3543 -2.5331  0.8050
   76SLPC  H15S 6869   2.179   0.873   8.347  1.5186  1.0181  1.1673
   76SLPC  C216 6870   1.992   0.944   8.432 -0.2905  0.8414 -0.4621
   76SLPC  H16R 6871   1.996   0.850   8.491  0.6568  2.3448  2.0404
   76SLPC  H16S 6872   1.917   0.926   8.352 -3.3576  0.5927  2.2536
   76SLPC  C217 6873   1.931   1.062   8.516  0.6288  0.1407  0.4295
   76SLPC  H17R 6874   1.836   1.025   8.561  0.5522 -0.5567 -0.2823
   76SLPC  H17S 6875   1.917   1.144   8.443 -1.2669  0.3836  1.0167
   76SLPC  C218 6876   2.014   1.104   8.637 -0.2028  0.2421 -0.5539
   76SLPC  H18R 6877   2.012   1.025   8.715  1.5146  0.2754 -0.4329
   76SLPC  H18S 6878   1.970   1.201   8.669 -2.5292 -0.0048 -2.6808
   76SLPC  H18T 6879   2.119   1.110   8.600 -0.0681 -1.2944 -0.4614
   76SLPC   C33 6880   2.852   1.432   6.817  0.7429 -0.4933 -0.8667
   76SLPC   H3X 6881   2.904   1.510   6.876 -2.2573 -0.6321  2.3187
   76SLPC   H3Y 6882   2.918   1.368   6.755 -0.9223  0.0025 -3.3023
   76SLPC   C34 6883   2.778   1.340   6.913 -0.4459 -0.1329 -0.2865
   76SLPC   H4X 6884   2.860   1.275   6.951  0.5355  0.7054 -0.8912
   76SLPC   H4Y 6885   2.707   1.269   6.866 -1.2337  0.2205  0.3642
   76SLPC   C35 6886   2.703   1.405   7.025 -0.1454  0.0527 -0.4252
   76SLPC   H5X 6887   2.622   1.466   6.980  0.0305  0.5024 -0.1370
   76SLPC   H5Y 6888   2.767   1.476   7.082 -2.3506  0.9097  1.1176
   76SLPC   C36 6889   2.637   1.300   7.119 -0.4110  0.0634 -0.1346
   76SLPC   H6X 6890   2.716   1.225   7.144 -1.2562 -0.3703  1.3941
   76SLPC   H6Y 6891   2.550   1.258   7.065  0.0051  0.3061 -1.0166
   76SLPC   C37 6892   2.589   1.349   7.260  0.9344  0.0357 -0.1581
   76SLPC   H7X 6893   2.489   1.398   7.259  0.4159 -0.8066  2.7640
   76SLPC   H7Y 6894   2.666   1.416   7.304  0.0033 -0.5378  2.4894
   76SLPC   C38 6895   2.584   1.237   7.364 -0.3903  0.2888 -0.5688
   76SLPC   H8X 6896   2.684   1.188   7.367  0.2531  1.2138 -3.4956
   76SLPC   H8Y 6897   2.518   1.160   7.320  0.6148 -0.3856 -0.9447
   76SLPC   C39 6898   2.557   1.292   7.500  0.2287 -0.8021 -0.1281
   76SLPC   H9X 6899   2.469   1.360   7.500  1.1243  0.4804  2.4612
   76SLPC   H9Y 6900   2.646   1.354   7.524 -0.2567 -0.1739  0.0827
   76SLPC  C310 6901   2.534   1.178   7.602 -0.2032  0.5785  0.2168
   76SLPC  H10X 6902   2.604   1.097   7.572 -0.8821  0.0589  0.0131
   76SLPC  H10Y 6903   2.429   1.146   7.586 -0.1814  0.8458 -0.5053
   76SLPC  C311 6904   2.573   1.218   7.745  0.8686 -0.1977  0.8608
   76SLPC  H11X 6905   2.681   1.245   7.742  0.9667 -0.5900  0.7872
   76SLPC  H11Y 6906   2.549   1.135   7.815 -1.2443  0.3117  0.8151
   76SLPC  C312 6907   2.486   1.337   7.796 -0.4691 -0.3211  0.2440
   76SLPC  H12X 6908   2.386   1.308   7.833 -1.5469 -0.2220 -2.3432
   76SLPC  H12Y 6909   2.467   1.399   7.705  0.0678  2.6127  1.9990
   76SLPC  C313 6910   2.575   1.423   7.887  0.4351  0.2593 -0.3090
   76SLPC  H13X 6911   2.531   1.525   7.888  0.6566  0.3580 -0.3730
   76SLPC  H13Y 6912   2.679   1.436   7.848  0.9301 -2.3843 -0.0442
   76SLPC  C314 6913   2.582   1.362   8.027 -0.2990 -0.9201  0.8106
   76SLPC  H14X 6914   2.621   1.258   8.017  1.0960 -0.3334 -0.0402
   76SLPC  H14Y 6915   2.476   1.359   8.062  0.2617  0.1311  2.7076
   76SLPC  C315 6916   2.669   1.442   8.124 -0.4212 -0.3619 -0.5322
   76SLPC  H15X 6917   2.629   1.546   8.126 -0.6034 -0.4322  0.7008
   76SLPC  H15Y 6918   2.777   1.442   8.099 -0.0361  0.1931  0.9877
   76SLPC  C316 6919   2.646   1.376   8.259 -0.0161 -0.0036 -0.5389
   76SLPC  H16X 6920   2.627   1.267   8.249 -1.2051 -0.0675  1.6019
   76SLPC  H16Y 6921   2.554   1.411   8.310 -0.0997 -2.3088  1.0645
   76SLPC  C317 6922   2.771   1.405   8.349 -0.0811 -0.0997 -0.2114
   76SLPC  H17X 6923   2.857   1.384   8.281 -0.1566  0.3234 -0.4400
   76SLPC  H17Y 6924   2.779   1.316   8.415 -1.8503 -0.1187  0.0178
   76SLPC  C318 6925   2.771   1.530   8.430  0.4936 -0.3347 -0.0855
   76SLPC  H18X 6926   2.867   1.551   8.482  0.6773  0.6593 -0.8079
   76SLPC  H18Y 6927   2.678   1.529   8.491  0.7075  1.8028  0.3419
   76SLPC  H18Z 6928   2.753   1.616   8.362 -1.3863 -0.6585 -0.0461
   77SLPC     N 6929   1.770   1.900   6.439  0.0094  0.3925 -0.2573
   77SLPC   C13 6930   1.912   1.928   6.473  0.7450  0.2060  0.1721
   77SLPC  H13A 6931   1.968   1.946   6.382 -0.8650  1.2373 -0.6668
   77SLPC  H13B 6932   1.907   2.017   6.534 -1.1259 -0.5903  1.2640
   77SLPC  H13C 6933   1.951   1.853   6.540  0.2529  1.1039  1.5168
   77SLPC   C14 6934   1.691   1.876   6.567  0.3630 -0.2894  0.6444
   77SLPC  H14A 6935   1.590   1.840   6.550 -0.2500  0.8960  1.5813
   77SLPC  H14B 6936   1.744   1.800   6.622  0.8521 -0.2476  0.2352
   77SLPC  H14C 6937   1.678   1.967   6.625  0.4472 -1.2729  2.2665
   77SLPC   C15 6938   1.747   1.777   6.363 -0.6063 -0.2050  0.4078
   77SLPC  H15A 6939   1.777   1.779   6.259 -0.0216 -0.3112  0.5653
   77SLPC  H15B 6940   1.803   1.694   6.404  1.6090  1.0351  0.0354
   77SLPC  H15C 6941   1.641   1.763   6.355 -0.8603  1.7754 -0.2125
   77SLPC   C12 6942   1.707   2.019   6.360  0.5052  0.2531  0.6111
   77SLPC  H12A 6943   1.599   2.009   6.364  0.5199  0.1137  0.6538
   77SLPC  H12B 6944   1.742   2.011   6.258  0.7917 -0.6519  0.7716
   77SLPC   C11 6945   1.751   2.161   6.399  0.4806  0.5987  0.5333
   77SLPC  H11A 6946   1.719   2.236   6.324 -1.5495 -2.5086 -1.9766
   77SLPC  H11B 6947   1.862   2.159   6.400  0.5029 -0.7132 -1.1806
   77SLPC     P 6948   1.732   2.339   6.588 -0.1446 -0.2066  0.0002
   77SLPC   O13 6949   1.699   2.446   6.489 -0.1638  0.5990  0.9131
   77SLPC   O14 6950   1.651   2.352   6.712 -0.0371  0.0637  0.2778
   77SLPC   O12 6951   1.694   2.195   6.527 -0.3281  0.0599 -0.1236
   77SLPC   O11 6952   1.888   2.324   6.612 -0.1627  0.2803  1.4045
   77SLPC    C1 6953   1.952   2.227   6.696 -0.2627 -0.0276 -0.0143
   77SLPC    HA 6954   1.878   2.155   6.738  1.6961 -0.8718  2.2399
   77SLPC    HB 6955   2.033   2.175   6.641  0.0608 -0.9296  1.2628
   77SLPC    C2 6956   2.021   2.285   6.821 -0.6267 -0.8924  0.4287
   77SLPC    HS 6957   2.124   2.315   6.795 -0.6490 -0.7618  0.4895
   77SLPC   O21 6958   2.018   2.197   6.929 -0.1812 -0.2810  0.1370
   77SLPC   C21 6959   2.095   2.089   6.918 -0.2484  0.4585 -0.5306
   77SLPC   O22 6960   2.179   2.070   6.831  0.7227 -0.4666  0.0937
   77SLPC   C22 6961   2.075   1.996   7.039  1.0653 -0.4289  0.5157
   77SLPC   H2R 6962   1.972   1.962   7.015  1.0420  0.4034 -0.6110
   77SLPC   H2S 6963   2.150   1.915   7.032  2.3401  0.6323  1.3621
   77SLPC    C3 6964   1.959   2.419   6.865 -0.2112  0.3132  0.2279
   77SLPC    HX 6965   1.851   2.401   6.847 -0.0787 -1.5156  0.9906
   77SLPC    HY 6966   2.000   2.493   6.793  0.5337 -0.4823 -0.1978
   77SLPC   O31 6967   1.998   2.461   7.001 -0.0390 -0.4219 -0.5290
   77SLPC   C31 6968   1.902   2.435   7.085 -0.5250  0.8183 -1.0827
   77SLPC   O32 6969   1.791   2.395   7.055  0.7065  0.0946  0.0105
   77SLPC   C32 6970   1.943   2.477   7.225  0.7291  1.0332 -0.1239
   77SLPC   H2X 6971   1.932   2.588   7.226 -2.1141  0.9647 -3.3224
   77SLPC   H2Y 6972   2.048   2.451   7.248  0.0884  0.1597  2.0527
   77SLPC   C23 6973   2.079   2.066   7.173 -0.2871  0.7323 -0.4544
   77SLPC   H3R 6974   1.988   2.126   7.194  0.0567  0.7468  1.1347
   77SLPC   H3S 6975   2.155   2.147   7.165  1.4078 -0.6660  0.7275
   77SLPC   C24 6976   2.088   1.964   7.286 -0.3604  0.0022 -0.1155
   77SLPC   H4R 6977   2.178   1.900   7.277  2.4039  3.0657  2.8182
   77SLPC   H4S 6978   1.999   1.898   7.286  1.3011 -2.4077 -1.4291
   77SLPC   C25 6979   2.108   2.033   7.421  0.8590 -0.1227 -0.6167
   77SLPC   H5R 6980   2.030   2.111   7.429  1.0852 -0.0198  0.8221
   77SLPC   H5S 6981   2.208   2.076   7.444  1.7525 -2.9959  1.4214
   77SLPC   C26 6982   2.079   1.936   7.534  0.3032 -0.3003 -0.4735
   77SLPC   H6R 6983   2.165   1.876   7.572  0.5330  0.8656  0.9561
   77SLPC   H6S 6984   2.014   1.853   7.497  0.3307 -1.1318  1.2195
   77SLPC   C27 6985   2.002   2.000   7.649 -0.1375 -0.2284  0.0732
   77SLPC   H7R 6986   1.911   2.050   7.609  0.4577  1.0897  0.3444
   77SLPC   H7S 6987   2.065   2.078   7.696 -0.0319 -0.6846  0.7028
   77SLPC   C28 6988   1.948   1.906   7.759  0.0039 -0.0910  0.8621
   77SLPC   H8R 6989   2.029   1.856   7.817 -0.0169 -1.5099 -0.2896
   77SLPC   H8S 6990   1.906   1.817   7.709 -0.5780  1.0427 -0.7545
   77SLPC   C29 6991   1.845   1.979   7.848  0.4799  0.2173 -0.3837
   77SLPC   H9R 6992   1.886   2.052   7.920 -0.2558  1.0452 -0.7857
   77SLPC  C210 6993   1.712   1.947   7.847 -0.1061  0.1309  0.0362
   77SLPC  H10R 6994   1.648   2.012   7.908 -0.0485  0.5584 -0.3538
   77SLPC  C211 6995   1.629   1.851   7.769 -0.1176 -0.5778 -0.0812
   77SLPC  H11R 6996   1.678   1.841   7.670 -0.1356 -0.0313 -0.1467
   77SLPC  H11S 6997   1.530   1.901   7.764  1.1842  2.1897 -0.1080
   77SLPC  C212 6998   1.621   1.708   7.820 -0.0026 -0.0781 -0.5149
   77SLPC  H12R 6999   1.709   1.646   7.796  0.3909 -0.8350  2.5099
   77SLPC  C213 7000   1.527   1.650   7.896  0.4633  0.0517 -0.2197
   77SLPC  H13R 7001   1.528   1.541   7.915 -0.2245  0.3288  1.6443
   77SLPC  C214 7002   1.411   1.720   7.952  0.5100 -0.2460  0.6120
   77SLPC  H14R 7003   1.330   1.722   7.877  0.2083  0.5764  0.9418
   77SLPC  H14S 7004   1.439   1.827   7.967 -1.0686  0.5569 -1.7443
   77SLPC  C215 7005   1.355   1.665   8.086 -0.1603  0.7915 -0.5255
   77SLPC  H15R 7006   1.289   1.742   8.131  1.7104  0.5995  2.8623
   77SLPC  H15S 7007   1.446   1.654   8.149 -0.4615  1.2152 -0.0072
   77SLPC  C216 7008   1.284   1.527   8.061  0.3185  0.2829 -0.9720
   77SLPC  H16R 7009   1.358   1.465   8.006  1.0738 -0.0461  0.3939
   77SLPC  H16S 7010   1.189   1.532   8.003 -0.0703 -0.4758 -0.4162
   77SLPC  C217 7011   1.257   1.460   8.193  0.1729  0.8084 -0.1772
   77SLPC  H17R 7012   1.180   1.521   8.245 -0.4787  0.2759 -0.5124
   77SLPC  H17S 7013   1.350   1.479   8.252 -1.0955  1.4474  1.7437
   77SLPC  C218 7014   1.211   1.316   8.170 -0.3186  0.5546  0.5016
   77SLPC  H18R 7015   1.178   1.279   8.269 -1.3097 -0.3824 -0.1431
   77SLPC  H18S 7016   1.298   1.261   8.128 -1.1366  1.3522 -2.5108
   77SLPC  H18T 7017   1.133   1.304   8.091 -0.3803  3.8801 -0.1030
   77SLPC   C33 7018   1.850   2.409   7.338 -0.6407 -0.3288 -0.2058
   77SLPC   H3X 7019   1.829   2.303   7.313  3.0192 -1.2456  0.1529
   77SLPC   H3Y 7020   1.759   2.473   7.338  0.9181  2.0309 -0.4888
   77SLPC   C34 7021   1.930   2.404   7.472  0.4839  0.4661  0.6509
   77SLPC   H4X 7022   1.966   2.506   7.496  0.8188  0.3196  0.7647
   77SLPC   H4Y 7023   2.015   2.333   7.458 -0.5742 -0.7943  0.3332
   77SLPC   C35 7024   1.833   2.363   7.593 -0.7962  0.4831  0.9095
   77SLPC   H5X 7025   1.779   2.269   7.568 -1.9341  1.6109 -1.2112
   77SLPC   H5Y 7026   1.746   2.431   7.587 -0.3027  0.9963 -2.0161
   77SLPC   C36 7027   1.885   2.365   7.735  0.0306  0.1858 -0.0426
   77SLPC   H6X 7028   1.937   2.458   7.765 -1.0458  0.4624  1.0274
   77SLPC   H6Y 7029   1.964   2.286   7.738 -1.1627 -1.0055  1.3474
   77SLPC   C37 7030   1.772   2.346   7.840 -0.4516 -0.0908 -0.1707
   77SLPC   H7X 7031   1.744   2.239   7.839  0.6696 -0.3959 -0.7961
   77SLPC   H7Y 7032   1.683   2.412   7.833  0.3604  1.0689  0.0217
   77SLPC   C38 7033   1.843   2.365   7.975  0.3222  0.1218  0.2378
   77SLPC   H8X 7034   1.891   2.464   7.989  0.0124  0.2383  0.4856
   77SLPC   H8Y 7035   1.923   2.289   7.984 -1.7453 -1.9709  2.7859
   77SLPC   C39 7036   1.743   2.340   8.096 -0.5733  0.3669 -0.2119
   77SLPC   H9X 7037   1.666   2.417   8.079 -0.1266  0.6523 -0.9545
   77SLPC   H9Y 7038   1.808   2.355   8.185  1.0518 -1.7545 -0.9639
   77SLPC  C310 7039   1.678   2.201   8.113  0.3043 -0.1268 -0.2722
   77SLPC  H10X 7040   1.758   2.127   8.091 -1.0905 -1.7540 -0.0656
   77SLPC  H10Y 7041   1.599   2.191   8.036  1.0288 -0.7211 -0.9613
   77SLPC  C311 7042   1.632   2.164   8.251 -0.3166  0.2889 -0.0146
   77SLPC  H11X 7043   1.583   2.242   8.314 -2.1033 -2.2653  2.0142
   77SLPC  H11Y 7044   1.719   2.133   8.312 -0.5619  0.4526  0.4277
   77SLPC  C312 7045   1.539   2.038   8.244 -0.4852 -0.6618  0.3564
   77SLPC  H12X 7046   1.569   1.956   8.175 -0.6510  0.2434 -0.8336
   77SLPC  H12Y 7047   1.442   2.074   8.204 -2.2939 -4.3643  1.0115
   77SLPC  C313 7048   1.510   1.963   8.377 -0.0304 -0.3532 -0.9097
   77SLPC  H13X 7049   1.420   1.899   8.372 -0.7628  0.5424  0.3835
   77SLPC  H13Y 7050   1.490   2.036   8.459  1.8287 -1.2381  0.4062
   77SLPC  C314 7051   1.627   1.882   8.415 -0.6176 -0.2034  0.4152
   77SLPC  H14X 7052   1.714   1.943   8.449 -0.8912  0.7124 -0.4827
   77SLPC  H14Y 7053   1.666   1.817   8.334 -0.1999 -2.9509  2.6524
   77SLPC  C315 7054   1.590   1.759   8.515  0.2035 -0.3491 -0.1515
   77SLPC  H15X 7055   1.691   1.714   8.517  1.3604  2.0856  0.4713
   77SLPC  H15Y 7056   1.517   1.684   8.479  0.8651 -1.1540  0.1690
   77SLPC  C316 7057   1.559   1.812   8.656 -0.2350  0.2191 -0.3229
   77SLPC  H16X 7058   1.470   1.879   8.655 -1.5557 -1.4671 -0.5830
   77SLPC  H16Y 7059   1.641   1.885   8.676  0.2409  0.0868 -1.6673
   77SLPC  C317 7060   1.581   1.715   8.772 -0.0742  0.0465 -0.2836
   77SLPC  H17X 7061   1.683   1.672   8.764 -1.2854 -2.8825 -1.1540
   77SLPC  H17Y 7062   1.506   1.633   8.766 -1.5151  1.2351  0.6677
   77SLPC  C318 7063   1.599   1.766   8.919 -0.7710 -0.7355  0.4173
   77SLPC  H18X 7064   1.504   1.808   8.958 -1.3932  1.4848 -2.9883
   77SLPC  H18Y 7065   1.679   1.843   8.920 -0.0326 -1.4404 -1.1908
   77SLPC  H18Z 7066   1.635   1.684   8.985 -2.0926 -2.5264 -0.9888
   78SLPC     N 7067   3.031   0.526   5.770  0.0479 -0.6721 -0.0081
   78SLPC   C13 7068   2.888   0.537   5.716 -0.9783 -0.0368 -0.3125
   78SLPC  H13A 7069   2.882   0.586   5.620 -1.6565 -1.0065 -0.7886
   78SLPC  H13B 7070   2.861   0.434   5.697  1.0072 -0.5989 -0.3173
   78SLPC  H13C 7071   2.823   0.581   5.790  1.3000  1.2146  1.0416
   78SLPC   C14 7072   3.078   0.652   5.831  0.5479 -0.7727  0.8423
   78SLPC  H14A 7073   3.010   0.700   5.900  2.2883  0.7084  1.6111
   78SLPC  H14B 7074   3.168   0.634   5.887  2.0681  0.5412 -1.0592
   78SLPC  H14C 7075   3.114   0.719   5.754  1.8228 -3.3329 -0.9248
   78SLPC   C15 7076   3.114   0.505   5.650 -0.1368  0.1933 -0.3617
   78SLPC  H15A 7077   3.083   0.429   5.580  0.0781  0.6955 -1.0134
   78SLPC  H15B 7078   3.127   0.595   5.592 -0.1357 -0.3398 -1.1911
   78SLPC  H15C 7079   3.207   0.467   5.689  1.0255  3.5655  0.4464
   78SLPC   C12 7080   3.044   0.404   5.862  0.0661 -0.2625 -0.5920
   78SLPC  H12A 7081   3.145   0.376   5.886 -0.0671 -1.6920 -1.5789
   78SLPC  H12B 7082   3.010   0.317   5.809 -0.0508  0.5716 -1.9377
   78SLPC   C11 7083   2.971   0.412   6.003 -0.2886 -0.2550 -0.3144
   78SLPC  H11A 7084   2.976   0.306   6.037  1.6890 -0.1582 -0.1537
   78SLPC  H11B 7085   2.869   0.450   5.982 -0.5877 -0.2831  0.9991
   78SLPC     P 7086   2.984   0.528   6.236 -0.4916  0.3515  0.1304
   78SLPC   O13 7087   3.054   0.648   6.289 -0.5029  0.0929 -0.2987
   78SLPC   O14 7088   2.834   0.539   6.225  0.1857  1.0218 -0.4448
   78SLPC   O12 7089   3.048   0.491   6.092  0.5247 -0.4696 -0.3154
   78SLPC   O11 7090   3.029   0.402   6.316  0.2591  0.0332 -0.4418
   78SLPC    C1 7091   2.937   0.306   6.371 -0.2125  0.7437  0.6268
   78SLPC    HA 7092   2.853   0.283   6.302  2.1635 -1.1451 -1.8858
   78SLPC    HB 7093   2.987   0.206   6.375 -0.3576  0.7034  1.6495
   78SLPC    C2 7094   2.894   0.341   6.515  0.7798  0.4668 -0.8959
   78SLPC    HS 7095   2.876   0.450   6.530  0.4197  0.3405 -0.4102
   78SLPC   O21 7096   2.996   0.300   6.607 -0.3377  0.1778  0.1602
   78SLPC   C21 7097   3.004   0.361   6.725 -0.4890  0.1543 -0.2569
   78SLPC   O22 7098   2.954   0.467   6.759  0.3909 -0.1760  0.5395
   78SLPC   C22 7099   3.082   0.268   6.819  0.3024 -0.7972 -0.3292
   78SLPC   H2R 7100   3.055   0.164   6.789  0.8304 -0.5212 -1.8591
   78SLPC   H2S 7101   3.187   0.277   6.786  0.1077 -0.3287 -0.8506
   78SLPC    C3 7102   2.763   0.265   6.562  0.2184 -0.1011  0.0022
   78SLPC    HX 7103   2.792   0.160   6.584 -1.6346 -0.9656 -1.3756
   78SLPC    HY 7104   2.693   0.267   6.476 -0.0655  0.5946  0.2470
   78SLPC   O31 7105   2.709   0.323   6.681  0.1493 -0.5301 -0.2834
   78SLPC   C31 7106   2.632   0.425   6.655  0.1504 -0.1027  0.2540
   78SLPC   O32 7107   2.612   0.485   6.547 -0.1276  0.8493 -0.6435
   78SLPC   C32 7108   2.566   0.472   6.784  0.9323  0.5954  0.2045
   78SLPC   H2X 7109   2.582   0.582   6.789 -0.6906  1.0376 -2.3579
   78SLPC   H2Y 7110   2.607   0.412   6.869 -0.6536 -3.1849 -1.4567
   78SLPC   C23 7111   3.039   0.286   6.963  0.3143 -0.0722 -0.0026
   78SLPC   H3R 7112   2.936   0.246   6.974 -0.1002  0.3695 -1.9235
   78SLPC   H3S 7113   3.035   0.393   6.992 -3.6034  0.0780 -0.6009
   78SLPC   C24 7114   3.126   0.200   7.054 -0.1053  0.1963  0.1645
   78SLPC   H4R 7115   3.207   0.135   7.014 -2.2552 -3.1297  0.8239
   78SLPC   H4S 7116   3.064   0.138   7.121  0.7033  2.6907  3.4818
   78SLPC   C25 7117   3.209   0.291   7.143 -0.5243  0.0213  0.4292
   78SLPC   H5R 7118   3.246   0.377   7.084  3.4412 -1.3855  0.5386
   78SLPC   H5S 7119   3.300   0.244   7.186 -0.9576 -1.0422  0.2303
   78SLPC   C26 7120   3.118   0.353   7.252 -0.9258  0.3776  0.4443
   78SLPC   H6R 7121   3.024   0.394   7.210 -1.4405 -2.9627 -2.1487
   78SLPC   H6S 7122   3.168   0.441   7.298  0.9072 -1.2366  1.7279
   78SLPC   C27 7123   3.080   0.268   7.372 -0.2436  1.1001  0.0490
   78SLPC   H7R 7124   3.177   0.249   7.424 -0.4747  0.5154  0.2743
   78SLPC   H7S 7125   3.045   0.170   7.332  1.1688 -0.7943  3.0149
   78SLPC   C28 7126   2.973   0.314   7.470 -0.1214 -0.3608 -0.1805
   78SLPC   H8R 7127   2.917   0.227   7.511 -1.5086  0.9970  0.9038
   78SLPC   H8S 7128   2.892   0.366   7.416  0.2841 -1.1983 -1.6433
   78SLPC   C29 7129   3.028   0.392   7.590 -0.3121  1.5684  1.0189
   78SLPC   H9R 7130   3.062   0.490   7.555 -0.5967  1.4437  0.3737
   78SLPC  C210 7131   3.045   0.357   7.720 -0.1267  0.7728 -0.5704
   78SLPC  H10R 7132   3.081   0.433   7.791 -1.0225 -0.9541  1.8889
   78SLPC  C211 7133   3.015   0.226   7.779  0.0808  0.6505  0.7489
   78SLPC  H11R 7134   2.992   0.136   7.717  0.6409  0.5553  0.6763
   78SLPC  H11S 7135   2.926   0.225   7.844 -0.8882 -0.1683 -0.5279
   78SLPC  C212 7136   3.145   0.180   7.842 -0.5208  0.2718 -0.6948
   78SLPC  H12R 7137   3.233   0.159   7.779  1.7645 -1.7195  2.8343
   78SLPC  C213 7138   3.158   0.169   7.977 -0.0878  0.8864  0.3030
   78SLPC  H13R 7139   3.261   0.147   8.009 -0.6661  0.8849  2.3036
   78SLPC  C214 7140   3.046   0.175   8.079 -0.2081  0.2249  0.0408
   78SLPC  H14R 7141   3.075   0.123   8.172 -2.5235  2.3328  2.0894
   78SLPC  H14S 7142   2.958   0.121   8.039 -1.1771  1.8783 -0.1687
   78SLPC  C215 7143   3.013   0.318   8.120 -0.3570 -0.5925 -0.0159
   78SLPC  H15R 7144   2.903   0.330   8.122 -0.1812  1.8657 -1.6422
   78SLPC  H15S 7145   3.028   0.391   8.038  1.5735 -2.0259 -1.0285
   78SLPC  C216 7146   3.063   0.371   8.253  0.3559  0.0291 -0.5591
   78SLPC  H16R 7147   3.172   0.387   8.266  0.3396 -0.8758  0.9821
   78SLPC  H16S 7148   3.044   0.292   8.329  0.8003  0.9495  0.5447
   78SLPC  C217 7149   2.982   0.500   8.287 -0.1822 -0.3771 -0.3593
   78SLPC  H17R 7150   2.875   0.472   8.290 -0.7654  1.7817  0.4029
   78SLPC  H17S 7151   2.992   0.584   8.215 -0.1317 -0.3639 -0.3369
   78SLPC  C218 7152   3.019   0.556   8.422  1.0129 -0.4900 -0.5193
   78SLPC  H18R 7153   3.010   0.478   8.501  1.2383 -0.5549 -0.5553
   78SLPC  H18S 7154   2.949   0.637   8.453 -1.3001 -2.3425 -0.7052
   78SLPC  H18T 7155   3.121   0.601   8.420  2.5607 -3.6128  1.2169
   78SLPC   C33 7156   2.413   0.443   6.780 -0.8526 -0.0605 -0.9560
   78SLPC   H3X 7157   2.393   0.337   6.807 -0.8805 -0.6081 -2.9664
   78SLPC   H3Y 7158   2.367   0.465   6.681  0.3558  1.3040 -1.2434
   78SLPC   C34 7159   2.345   0.528   6.886  0.0275  0.4226 -0.9054
   78SLPC   H4X 7160   2.236   0.522   6.865 -0.6444 -0.4334  2.2962
   78SLPC   H4Y 7161   2.379   0.634   6.891  4.2012 -0.7484 -1.3313
   78SLPC   C35 7162   2.382   0.482   7.026 -0.4071 -0.3560  0.1274
   78SLPC   H5X 7163   2.492   0.496   7.039 -0.0876 -0.5500 -2.0526
   78SLPC   H5Y 7164   2.359   0.373   7.033  1.6595 -0.7717  1.4166
   78SLPC   C36 7165   2.309   0.546   7.140 -0.6735 -0.0839 -0.3631
   78SLPC   H6X 7166   2.200   0.526   7.133 -0.5896 -0.0360 -2.9939
   78SLPC   H6Y 7167   2.322   0.656   7.141 -1.1144  0.0018  1.9639
   78SLPC   C37 7168   2.350   0.506   7.285  0.4754 -0.2010 -0.0177
   78SLPC   H7X 7169   2.334   0.396   7.299  1.3799 -0.6096 -1.9560
   78SLPC   H7Y 7170   2.278   0.562   7.349 -0.9545 -3.3089  1.3565
   78SLPC   C38 7171   2.482   0.561   7.332 -0.6440  0.3493 -0.0118
   78SLPC   H8X 7172   2.479   0.672   7.336 -1.5836  0.4424 -1.9285
   78SLPC   H8Y 7173   2.556   0.530   7.255 -1.1902  1.6771 -1.1305
   78SLPC   C39 7174   2.512   0.500   7.475  0.0971 -0.8573 -0.3095
   78SLPC   H9X 7175   2.547   0.397   7.451  0.5050 -0.7237 -0.3018
   78SLPC   H9Y 7176   2.425   0.486   7.543  1.1091 -1.1604  0.9631
   78SLPC  C310 7177   2.625   0.583   7.541  0.4922  0.1731 -0.4331
   78SLPC  H10X 7178   2.583   0.680   7.574  0.6365 -0.3731  1.4564
   78SLPC  H10Y 7179   2.701   0.604   7.463 -0.1489  2.3175 -0.5200
   78SLPC  C311 7180   2.690   0.501   7.661 -0.1212 -0.2249  0.2740
   78SLPC  H11X 7181   2.796   0.529   7.676  0.1043 -1.0877  0.3821
   78SLPC  H11Y 7182   2.712   0.399   7.621 -2.0027  0.8033 -3.9732
   78SLPC  C312 7183   2.602   0.491   7.780 -0.3064 -0.4078 -0.3489
   78SLPC  H12X 7184   2.495   0.475   7.754  0.2964 -1.2578 -2.5073
   78SLPC  H12Y 7185   2.612   0.589   7.833  0.7138 -0.5835 -0.1994
   78SLPC  C313 7186   2.658   0.375   7.866 -0.0547  0.5094 -0.3399
   78SLPC  H13X 7187   2.767   0.362   7.850 -0.2541  0.5168 -1.9498
   78SLPC  H13Y 7188   2.610   0.283   7.827  2.2754 -0.9771  0.0620
   78SLPC  C314 7189   2.640   0.392   8.017  0.7386 -0.3848 -0.2457
   78SLPC  H14X 7190   2.697   0.478   8.059 -0.6711  1.2970 -1.5906
   78SLPC  H14Y 7191   2.671   0.308   8.082  3.1349  1.8824  1.7449
   78SLPC  C315 7192   2.495   0.433   8.056 -0.4790 -0.0992 -0.2060
   78SLPC  H15X 7193   2.422   0.360   8.013 -0.2973  0.1163 -0.8957
   78SLPC  H15Y 7194   2.466   0.527   8.004  2.0534  1.1063  0.4232
   78SLPC  C316 7195   2.468   0.439   8.205  0.0658 -0.2615 -0.2473
   78SLPC  H16X 7196   2.541   0.383   8.268  2.3206  2.3078 -0.4122
   78SLPC  H16Y 7197   2.378   0.378   8.229 -0.5894  0.1009 -1.6873
   78SLPC  C317 7198   2.452   0.580   8.277 -0.0649 -0.4882 -0.1931
   78SLPC  H17X 7199   2.547   0.637   8.269 -0.3497  0.0461  0.1913
   78SLPC  H17Y 7200   2.441   0.556   8.385  1.6656  2.0222  0.6297
   78SLPC  C318 7201   2.327   0.649   8.231 -0.1872 -0.5620  0.2196
   78SLPC  H18X 7202   2.313   0.630   8.123  0.3064 -1.3908  0.2945
   78SLPC  H18Y 7203   2.333   0.759   8.245 -1.2246 -0.4853  0.1749
   78SLPC  H18Z 7204   2.236   0.610   8.281 -1.8701  1.8725 -0.7556
   79SLPC     N 7205   3.022   3.524   6.256  0.2855 -0.1102 -0.2605
   79SLPC   C13 7206   2.982   3.388   6.317  0.9795 -0.2393  0.3765
   79SLPC  H13A 7207   2.903   3.410   6.387  1.2522  0.2444  0.5347
   79SLPC  H13B 7208   2.948   3.322   6.238  0.6698 -1.4043  1.4460
   79SLPC  H13C 7209   3.058   3.343   6.378  0.8809 -1.8957 -0.6462
   79SLPC   C14 7210   2.914   3.560   6.164  0.6518 -0.8950 -0.1437
   79SLPC  H14A 7211   2.904   3.472   6.102 -1.1971 -0.9966  0.2600
   79SLPC  H14B 7212   2.822   3.589   6.213  1.7522 -0.7468  1.9801
   79SLPC  H14C 7213   2.947   3.643   6.103 -1.5178  0.6433  0.6734
   79SLPC   C15 7214   3.149   3.511   6.185  0.2743 -0.6930 -0.3192
   79SLPC  H15A 7215   3.233   3.496   6.251  0.7217 -0.3460 -0.7975
   79SLPC  H15B 7216   3.152   3.423   6.122 -0.1621 -1.1285  0.2544
   79SLPC  H15C 7217   3.165   3.592   6.116  0.2152 -1.2605 -1.0133
   79SLPC   C12 7218   3.037   3.629   6.370  0.2917 -0.2840  0.2565
   79SLPC  H12A 7219   3.070   3.719   6.320  0.9883 -0.5764  0.1765
   79SLPC  H12B 7220   3.114   3.595   6.438  2.3992 -0.5206 -2.1144
   79SLPC   C11 7221   2.901   3.676   6.432 -0.0480 -0.5544 -0.8147
   79SLPC  H11A 7222   2.841   3.735   6.360  2.5916  0.9021 -1.9389
   79SLPC  H11B 7223   2.934   3.740   6.517  0.9983 -2.1667  0.0510
   79SLPC     P 7224   2.677   3.589   6.509  0.2005  0.3714 -0.4146
   79SLPC   O13 7225   2.609   3.642   6.391  0.3301  0.0712  0.0710
   79SLPC   O14 7226   2.619   3.461   6.566 -0.2587 -0.4347 -0.0416
   79SLPC   O12 7227   2.833   3.564   6.482  0.9497 -0.2984  0.1583
   79SLPC   O11 7228   2.669   3.694   6.620 -0.0811 -0.0762 -0.9078
   79SLPC    C1 7229   2.535   3.738   6.667  0.4030  0.8071  0.0486
   79SLPC    HA 7230   2.500   3.833   6.621 -0.6178  0.2691 -0.2928
   79SLPC    HB 7231   2.455   3.663   6.649  2.4915 -1.6798  0.5608
   79SLPC    C2 7232   2.548   3.756   6.821 -0.5332  0.6516  0.4870
   79SLPC    HS 7233   2.448   3.771   6.868 -0.0706 -0.6381  1.9889
   79SLPC   O21 7234   2.634   3.867   6.852  0.6269 -0.0479 -0.8049
   79SLPC   C21 7235   2.572   3.987   6.854 -0.4328  0.3074 -0.5747
   79SLPC   O22 7236   2.461   4.015   6.809  0.1842  0.5207 -0.1707
   79SLPC   C22 7237   2.678   4.087   6.902 -0.6394  0.1197 -0.1252
   79SLPC   H2R 7238   2.768   4.076   6.837 -1.1844  2.6176 -1.4218
   79SLPC   H2S 7239   2.630   4.186   6.890 -1.9839 -0.4877  0.0894
   79SLPC    C3 7240   2.613   3.629   6.882 -0.0705  0.3162 -0.5270
   79SLPC    HX 7241   2.721   3.631   6.855 -0.3137  0.7968 -1.5171
   79SLPC    HY 7242   2.571   3.533   6.846  0.9296 -1.4525  2.6022
   79SLPC   O31 7243   2.600   3.642   7.028 -0.1364 -0.1482 -0.3726
   79SLPC   C31 7244   2.477   3.612   7.068  0.0107  0.2075  0.1316
   79SLPC   O32 7245   2.387   3.568   7.003 -0.3519  0.2122 -0.2679
   79SLPC   C32 7246   2.466   3.656   7.212 -0.2247 -0.0735  0.2921
   79SLPC   H2X 7247   2.452   3.766   7.221 -2.1717 -0.3685  1.7642
   79SLPC   H2Y 7248   2.565   3.628   7.253 -0.0699 -0.9059 -0.6370
   79SLPC   C23 7249   2.716   4.070   7.049 -0.7976 -0.5533  0.4949
   79SLPC   H3R 7250   2.783   4.149   7.088 -1.6840  0.0200  0.9008
   79SLPC   H3S 7251   2.765   3.971   7.058 -1.3505 -1.0848 -1.6748
   79SLPC   C24 7252   2.602   4.080   7.149  0.1878  0.9116 -0.6943
   79SLPC   H4R 7253   2.524   4.002   7.134 -1.8433  2.9619 -1.3467
   79SLPC   H4S 7254   2.552   4.177   7.131  0.6084  0.9807 -1.5084
   79SLPC   C25 7255   2.642   4.067   7.296  0.4544  0.4952 -0.2141
   79SLPC   H5R 7256   2.743   4.105   7.320 -0.2094  1.2935  1.5354
   79SLPC   H5S 7257   2.642   3.960   7.325  1.0056  0.7394  0.7245
   79SLPC   C26 7258   2.548   4.138   7.398 -0.0569 -1.0327  0.5353
   79SLPC   H6R 7259   2.449   4.091   7.380  0.3123 -0.9304 -2.1885
   79SLPC   H6S 7260   2.543   4.246   7.374  0.8416 -0.5493  2.3558
   79SLPC   C27 7261   2.576   4.111   7.541 -0.8136  0.2850  0.2410
   79SLPC   H7R 7262   2.682   4.126   7.571 -0.1074  1.0690 -2.3847
   79SLPC   H7S 7263   2.567   4.007   7.580 -0.6455  0.4180  0.6472
   79SLPC   C28 7264   2.477   4.190   7.636 -0.0273  0.3027  0.3229
   79SLPC   H8R 7265   2.383   4.135   7.614  1.4526 -2.8475  1.2867
   79SLPC   H8S 7266   2.467   4.295   7.601 -0.3328  0.7970  1.8418
   79SLPC   C29 7267   2.518   4.176   7.781 -0.5711  0.6056 -0.1819
   79SLPC   H9R 7268   2.581   4.257   7.822 -0.3700  0.0418  0.6441
   79SLPC  C210 7269   2.480   4.085   7.868 -0.0546  0.1580  0.2575
   79SLPC  H10R 7270   2.529   4.085   7.967 -0.8258  0.8520  0.6429
   79SLPC  C211 7271   2.384   3.974   7.854  0.0271 -0.0535  0.2362
   79SLPC  H11R 7272   2.432   3.883   7.896 -0.1664 -0.3533 -0.1792
   79SLPC  H11S 7273   2.366   3.953   7.746  2.0908 -0.7265 -0.0428
   79SLPC  C212 7274   2.262   4.016   7.937  0.8523  0.8295  0.0618
   79SLPC  H12R 7275   2.216   4.110   7.903  0.7651  0.7089 -0.1595
   79SLPC  C213 7276   2.212   3.963   8.052 -0.1074 -0.4981  0.2632
   79SLPC  H13R 7277   2.126   4.010   8.102 -0.1682  1.0313 -1.1810
   79SLPC  C214 7278   2.268   3.840   8.129  0.6972  0.2971  0.8980
   79SLPC  H14R 7279   2.358   3.870   8.187  0.5309 -0.8724  1.7811
   79SLPC  H14S 7280   2.295   3.765   8.052  0.1003  1.2047 -0.2401
   79SLPC  C215 7281   2.184   3.783   8.242 -0.6920  1.3918  0.2616
   79SLPC  H15R 7282   2.186   3.672   8.246 -2.3608  1.2977 -0.5535
   79SLPC  H15S 7283   2.076   3.808   8.233 -1.7083 -1.9829  1.6917
   79SLPC  C216 7284   2.221   3.817   8.392 -0.3409 -0.1437  0.3226
   79SLPC  H16R 7285   2.331   3.821   8.397 -0.4103  2.0554  0.8715
   79SLPC  H16S 7286   2.182   3.730   8.450  0.4873 -0.9905 -0.3553
   79SLPC  C217 7287   2.153   3.944   8.443 -0.4666 -1.2181 -0.6395
   79SLPC  H17R 7288   2.144   4.033   8.377 -2.0007  0.8846  2.2232
   79SLPC  H17S 7289   2.225   3.967   8.524  2.1637 -1.6244 -2.7045
   79SLPC  C218 7290   2.023   3.912   8.514 -0.6990  0.7687 -0.1007
   79SLPC  H18R 7291   1.991   3.996   8.579 -1.6582  2.5553 -2.7008
   79SLPC  H18S 7292   2.035   3.819   8.573 -0.2408  1.0804  0.3128
   79SLPC  H18T 7293   1.951   3.893   8.431  1.0116 -2.6860 -0.9515
   79SLPC   C33 7294   2.354   3.578   7.291 -0.1519 -0.1593  0.4521
   79SLPC   H3X 7295   2.377   3.470   7.282 -2.4362 -0.6641 -0.1602
   79SLPC   H3Y 7296   2.256   3.586   7.240  0.2018  1.4856 -0.0326
   79SLPC   C34 7297   2.353   3.614   7.434 -0.5982 -0.1905 -0.9655
   79SLPC   H4X 7298   2.366   3.725   7.434 -0.5572 -0.1156  2.0792
   79SLPC   H4Y 7299   2.439   3.571   7.489 -1.4016 -0.8512 -0.1965
   79SLPC   C35 7300   2.228   3.580   7.512 -0.9023 -0.0069  0.2369
   79SLPC   H5X 7301   2.207   3.477   7.477  2.2776 -0.1995 -1.5013
   79SLPC   H5Y 7302   2.144   3.649   7.485  1.3288  1.3108 -4.3496
   79SLPC   C36 7303   2.255   3.574   7.660  0.4554  0.2435 -0.1863
   79SLPC   H6X 7304   2.279   3.676   7.697 -0.7929  0.7051 -0.5800
   79SLPC   H6Y 7305   2.345   3.511   7.672  0.2416  0.2260  1.6828
   79SLPC   C37 7306   2.136   3.508   7.743 -0.4477  0.3071 -0.4585
   79SLPC   H7X 7307   2.119   3.409   7.696 -0.9435  0.4726 -0.6372
   79SLPC   H7Y 7308   2.044   3.568   7.725 -0.9668 -0.2121  0.4004
   79SLPC   C38 7309   2.164   3.505   7.890 -0.1169  0.3065 -0.1212
   79SLPC   H8X 7310   2.151   3.606   7.934 -3.0812 -0.3232  0.6946
   79SLPC   H8Y 7311   2.267   3.470   7.913  0.8649  3.5138  0.9568
   79SLPC   C39 7312   2.071   3.411   7.964 -0.5776 -0.4098  0.6424
   79SLPC   H9X 7313   2.096   3.310   7.925  2.5812 -0.3264  2.1715
   79SLPC   H9Y 7314   1.963   3.428   7.941  0.0556  0.0339 -2.3325
   79SLPC  C310 7315   2.093   3.388   8.118  0.3836 -0.0002  0.1015
   79SLPC  H10X 7316   2.073   3.485   8.168  2.5238  0.8638 -0.5764
   79SLPC  H10Y 7317   2.202   3.372   8.134  0.6921  0.9268 -0.8776
   79SLPC  C311 7318   2.001   3.282   8.177 -0.0585 -0.9484  0.9071
   79SLPC  H11X 7319   2.022   3.188   8.122 -0.5035  0.3106 -1.5412
   79SLPC  H11Y 7320   1.901   3.320   8.147 -0.6522 -2.6287  0.6757
   79SLPC  C312 7321   2.014   3.266   8.322 -0.2837 -0.5824  0.1390
   79SLPC  H12X 7322   2.120   3.240   8.344 -0.5865 -0.4686  1.8309
   79SLPC  H12Y 7323   1.967   3.171   8.355 -0.9574 -0.3051 -0.0081
   79SLPC  C313 7324   1.969   3.379   8.408 -0.6138  0.2428  0.2052
   79SLPC  H13X 7325   1.859   3.381   8.398 -0.5475 -1.3816 -1.4852
   79SLPC  H13Y 7326   1.997   3.474   8.358  1.3451  2.0734  4.3573
   79SLPC  C314 7327   2.033   3.376   8.552 -0.3341 -0.2494  0.6304
   79SLPC  H14X 7328   2.007   3.469   8.606 -3.3900 -0.9839  0.6061
   79SLPC  H14Y 7329   2.141   3.376   8.524 -0.7939 -1.1730 -1.3712
   79SLPC  C315 7330   2.005   3.245   8.642 -0.1734 -0.1326 -0.3855
   79SLPC  H15X 7331   2.030   3.154   8.583  1.7436 -0.6258  1.0764
   79SLPC  H15Y 7332   1.895   3.244   8.657 -0.5421 -0.9158 -2.6507
   79SLPC  C316 7333   2.069   3.251   8.788 -0.3616  0.4767  0.0785
   79SLPC  H16X 7334   2.018   3.343   8.824 -0.2216  0.3137  0.7006
   79SLPC  H16Y 7335   2.177   3.274   8.784  0.1662 -1.7559  0.5196
   79SLPC  C317 7336   2.033   3.127   8.863 -0.5057 -0.0464 -0.0918
   79SLPC  H17X 7337   1.926   3.112   8.835 -1.5134  3.5185  1.2156
   79SLPC  H17Y 7338   2.047   3.153   8.970  0.6189  0.6061 -0.3791
   79SLPC  C318 7339   2.132   3.013   8.827 -0.6863  0.0220  0.1913
   79SLPC  H18X 7340   2.152   3.007   8.718  3.7177 -0.2290  0.8154
   79SLPC  H18Y 7341   2.097   2.919   8.874 -1.1008  1.0263  1.9736
   79SLPC  H18Z 7342   2.229   3.037   8.876 -1.4353  0.6639  1.3971
   80SLPC     N 7343   2.980   2.747   6.366  0.0004  0.0168 -0.8920
   80SLPC   C13 7344   2.885   2.825   6.446 -0.4586  0.4316 -0.0461
   80SLPC  H13A 7345   2.792   2.840   6.393 -0.7624  0.8919  0.6182
   80SLPC  H13B 7346   2.856   2.779   6.539  0.8381  0.7553  0.5267
   80SLPC  H13C 7347   2.914   2.927   6.465 -1.1448  0.9877 -1.6971
   80SLPC   C14 7348   3.040   2.845   6.267  0.1902  0.6446 -0.3932
   80SLPC  H14A 7349   3.106   2.794   6.198 -0.9288  0.4458 -1.3541
   80SLPC  H14B 7350   2.955   2.877   6.210 -0.5096  0.2853  0.4304
   80SLPC  H14C 7351   3.092   2.928   6.312  0.1932 -0.0478  0.9226
   80SLPC   C15 7352   2.902   2.633   6.309 -0.4828  0.3938  0.9162
   80SLPC  H15A 7353   2.828   2.665   6.237 -1.7148 -1.7610  1.1243
   80SLPC  H15B 7354   2.972   2.565   6.262 -1.5861  1.0915 -1.9421
   80SLPC  H15C 7355   2.855   2.578   6.390  2.4575  0.5245  2.8665
   80SLPC   C12 7356   3.088   2.698   6.451 -0.8781  0.3463  0.0935
   80SLPC  H12A 7357   3.042   2.635   6.526 -0.2683  1.8094  1.7562
   80SLPC  H12B 7358   3.132   2.782   6.502 -0.8876  0.2293  0.2938
   80SLPC   C11 7359   3.200   2.619   6.378  0.4145 -0.2397  0.0123
   80SLPC  H11A 7360   3.284   2.612   6.449  1.3985  3.0516 -0.6523
   80SLPC  H11B 7361   3.226   2.680   6.289 -3.1092  3.4208  1.1930
   80SLPC     P 7362   3.191   2.348   6.411  0.1417 -0.3003 -0.3664
   80SLPC   O13 7363   3.077   2.254   6.396 -0.1583 -0.5849 -0.1858
   80SLPC   O14 7364   3.317   2.302   6.352  0.0972  0.0315 -0.1215
   80SLPC   O12 7365   3.159   2.489   6.343  0.1049 -0.2659  0.1660
   80SLPC   O11 7366   3.217   2.385   6.569  0.2016  0.0525 -0.2543
   80SLPC    C1 7367   3.098   2.430   6.647 -0.7809 -0.6913 -0.5205
   80SLPC    HA 7368   3.025   2.486   6.585  0.1981 -0.2150 -1.2704
   80SLPC    HB 7369   3.065   2.335   6.693  0.7649 -0.9909  0.0178
   80SLPC    C2 7370   3.137   2.523   6.771  0.4206  0.2247  0.2826
   80SLPC    HS 7371   3.159   2.627   6.737 -0.7440 -0.4361 -2.7386
   80SLPC   O21 7372   3.257   2.466   6.835 -0.2017 -0.2159 -0.1819
   80SLPC   C21 7373   3.325   2.550   6.912 -0.3239 -0.2783 -0.3582
   80SLPC   O22 7374   3.306   2.671   6.935  0.0242 -0.3281  0.0666
   80SLPC   C22 7375   3.416   2.467   6.996 -0.0414  0.1600 -0.0495
   80SLPC   H2R 7376   3.472   2.402   6.926  0.2871  0.0141  0.3469
   80SLPC   H2S 7377   3.480   2.535   7.056 -3.0919  2.6991  0.6093
   80SLPC    C3 7378   3.007   2.539   6.858  0.6088  0.4524 -1.2498
   80SLPC    HX 7379   2.964   2.440   6.885 -1.6001  1.3575 -1.2166
   80SLPC    HY 7380   2.926   2.584   6.796 -1.0605 -1.5716 -0.6537
   80SLPC   O31 7381   3.023   2.601   6.987 -0.5050 -0.1948 -0.1273
   80SLPC   C31 7382   3.026   2.737   7.011 -0.3631 -0.3671 -0.2390
   80SLPC   O32 7383   3.023   2.822   6.925 -0.3040  0.2453  0.1930
   80SLPC   C32 7384   2.999   2.757   7.163 -0.0566 -0.3753 -0.5614
   80SLPC   H2X 7385   2.984   2.866   7.177  0.1102 -0.5453  1.2393
   80SLPC   H2Y 7386   3.084   2.723   7.227 -1.4002 -1.6120  0.6555
   80SLPC   C23 7387   3.340   2.387   7.099 -1.4458 -0.7576 -0.3272
   80SLPC   H3R 7388   3.411   2.318   7.150 -2.1442 -1.1640  0.1317
   80SLPC   H3S 7389   3.281   2.309   7.046 -1.6305 -1.1281  0.4015
   80SLPC   C24 7390   3.269   2.471   7.200  0.4014 -0.1355  1.0424
   80SLPC   H4R 7391   3.203   2.548   7.155  1.1816  0.5315  0.9933
   80SLPC   H4S 7392   3.342   2.544   7.242  0.4921  0.4815 -0.1420
   80SLPC   C25 7393   3.209   2.381   7.313  0.4475 -0.0754 -0.8227
   80SLPC   H5R 7394   3.207   2.433   7.411 -1.0052  1.0153 -1.3907
   80SLPC   H5S 7395   3.286   2.304   7.334  0.9546  0.6471 -0.0059
   80SLPC   C26 7396   3.070   2.323   7.273 -0.0169 -1.0216  0.1178
   80SLPC   H6R 7397   3.087   2.274   7.175  0.3186  1.8880 -1.3995
   80SLPC   H6S 7398   2.998   2.403   7.244  0.5456 -0.8588 -0.8821
   80SLPC   C27 7399   3.014   2.225   7.379  0.3514 -0.2841  0.4083
   80SLPC   H7R 7400   3.102   2.173   7.424  1.9272  1.0594 -0.9970
   80SLPC   H7S 7401   2.958   2.158   7.310  0.6871  0.4032 -0.5454
   80SLPC   C28 7402   2.932   2.292   7.485  0.0059 -0.3657  0.0272
   80SLPC   H8R 7403   2.862   2.357   7.428  1.0060  0.5134 -0.2263
   80SLPC   H8S 7404   2.996   2.360   7.545 -1.3348  2.1981 -1.2758
   80SLPC   C29 7405   2.853   2.200   7.571  0.3589  0.5594 -0.9835
   80SLPC   H9R 7406   2.763   2.157   7.522 -0.2804 -2.3071  2.3242
   80SLPC  C210 7407   2.888   2.152   7.692 -0.1435 -0.6226 -0.4662
   80SLPC  H10R 7408   2.827   2.072   7.736 -0.5066  0.0245  0.2359
   80SLPC  C211 7409   3.016   2.175   7.771  0.4158 -0.4810 -0.2805
   80SLPC  H11R 7410   2.973   2.219   7.864 -2.3027  1.3837 -2.2290
   80SLPC  H11S 7411   3.074   2.261   7.733 -1.4663  0.6523 -0.7154
   80SLPC  C212 7412   3.105   2.056   7.796  0.7720 -0.4471  0.2705
   80SLPC  H12R 7413   3.194   2.042   7.733  0.2326 -1.5851 -0.2759
   80SLPC  C213 7414   3.091   1.958   7.891  0.3262 -0.2505 -0.0044
   80SLPC  H13R 7415   3.160   1.873   7.896  0.0300 -0.4609  0.5503
   80SLPC  C214 7416   2.978   1.962   7.998 -0.5371 -0.0836  0.1567
   80SLPC  H14R 7417   2.960   1.865   8.049 -0.7163 -0.7247 -1.1106
   80SLPC  H14S 7418   2.884   2.001   7.952 -1.6505 -2.6928  0.0602
   80SLPC  C215 7419   3.018   2.071   8.101 -0.2103  0.9882 -0.1290
   80SLPC  H15R 7420   3.046   2.168   8.057  1.9579  0.5176  0.1315
   80SLPC  H15S 7421   3.108   2.026   8.148 -1.7980 -1.7243  0.5592
   80SLPC  C216 7422   2.911   2.078   8.211  0.2705 -0.3784  0.2338
   80SLPC  H16R 7423   2.867   1.979   8.234  1.0848 -1.4491 -2.4239
   80SLPC  H16S 7424   2.826   2.138   8.171  1.5939  1.5783  0.2260
   80SLPC  C217 7425   2.971   2.154   8.330  0.2914 -0.1749 -0.4010
   80SLPC  H17R 7426   3.061   2.098   8.363  0.0401  0.9877  2.5537
   80SLPC  H17S 7427   2.894   2.147   8.409 -0.6266 -4.2881 -1.4186
   80SLPC  C218 7428   3.015   2.298   8.308  0.0339 -0.5142 -0.1690
   80SLPC  H18R 7429   2.928   2.352   8.264 -0.1332 -0.4941  0.1806
   80SLPC  H18S 7430   3.111   2.297   8.252  1.5957 -2.9833  2.2839
   80SLPC  H18T 7431   3.030   2.358   8.400  0.4114  2.2973 -1.9236
   80SLPC   C33 7432   2.867   2.684   7.210  0.0637  0.1929  0.6252
   80SLPC   H3X 7433   2.841   2.588   7.161  0.6205  1.2894 -1.9933
   80SLPC   H3Y 7434   2.780   2.750   7.191 -2.9176 -3.1061  1.8553
   80SLPC   C34 7435   2.879   2.647   7.356 -0.1691 -0.0987 -0.1123
   80SLPC   H4X 7436   2.952   2.565   7.376 -0.0822  0.0402  0.1401
   80SLPC   H4Y 7437   2.783   2.614   7.401 -0.3601 -0.7594 -0.9762
   80SLPC   C35 7438   2.911   2.772   7.438 -0.9195  0.0363  0.0298
   80SLPC   H5X 7439   2.834   2.850   7.421 -0.2667  1.2401  2.1645
   80SLPC   H5Y 7440   3.007   2.825   7.425 -1.3002  0.9761  0.9036
   80SLPC   C36 7441   2.899   2.734   7.597 -0.2796  1.0151  0.0542
   80SLPC   H6X 7442   2.804   2.680   7.616 -0.7485  1.1735 -1.6892
   80SLPC   H6Y 7443   2.902   2.829   7.656  2.0312  1.6696 -0.9809
   80SLPC   C37 7444   3.016   2.647   7.645  0.5569 -0.5204  0.3911
   80SLPC   H7X 7445   3.103   2.715   7.643  0.0614  0.1177  0.3299
   80SLPC   H7Y 7446   3.039   2.561   7.578 -0.8951  0.0276 -0.8579
   80SLPC   C38 7447   2.999   2.599   7.791 -0.3000  0.5668  0.5359
   80SLPC   H8X 7448   3.103   2.577   7.824 -0.2871  1.7912  1.3570
   80SLPC   H8Y 7449   2.948   2.500   7.790  0.4769  0.0972 -1.9211
   80SLPC   C39 7450   2.947   2.709   7.888 -0.2946 -0.3265  0.1006
   80SLPC   H9X 7451   2.846   2.743   7.859 -0.7158 -0.7178  1.0753
   80SLPC   H9Y 7452   3.013   2.799   7.886  3.3213 -2.7349  0.5193
   80SLPC  C310 7453   2.929   2.645   8.026 -0.3714 -0.2828 -0.6236
   80SLPC  H10X 7454   3.024   2.599   8.060  0.2240  0.2364 -1.5242
   80SLPC  H10Y 7455   2.853   2.564   8.030 -2.0685  1.2461 -0.8059
   80SLPC  C311 7456   2.875   2.736   8.134 -0.2329 -0.3437 -0.1660
   80SLPC  H11X 7457   2.773   2.775   8.114 -0.3018 -1.5544 -2.4568
   80SLPC  H11Y 7458   2.932   2.830   8.152  0.0132 -0.7753  1.5485
   80SLPC  C312 7459   2.859   2.675   8.280 -0.5479 -0.2919 -0.3593
   80SLPC  H12X 7460   2.958   2.645   8.319 -0.8335  0.6078  1.1180
   80SLPC  H12Y 7461   2.796   2.583   8.281  2.7801 -2.7496  0.7605
   80SLPC  C313 7462   2.812   2.784   8.385  0.0494  0.4419 -0.0933
   80SLPC  H13X 7463   2.715   2.822   8.345 -0.4835 -0.2873  0.4747
   80SLPC  H13Y 7464   2.894   2.858   8.380 -0.6208  1.1418 -1.1606
   80SLPC  C314 7465   2.786   2.737   8.526 -0.0210 -0.0188 -0.9044
   80SLPC  H14X 7466   2.860   2.659   8.555 -0.1634  0.4722  0.8949
   80SLPC  H14Y 7467   2.685   2.691   8.533 -0.5625  1.3347  0.8518
   80SLPC  C315 7468   2.808   2.860   8.618  0.4946  0.4600 -0.0950
   80SLPC  H15X 7469   2.728   2.928   8.581  1.0529  0.3569 -1.5570
   80SLPC  H15Y 7470   2.913   2.892   8.603  0.7954 -1.6684 -3.8001
   80SLPC  C316 7471   2.761   2.838   8.765 -0.5391 -0.1280 -0.4018
   80SLPC  H16X 7472   2.839   2.780   8.817 -0.8094  0.2360  0.4252
   80SLPC  H16Y 7473   2.672   2.772   8.771  0.2533 -1.1203  0.8530
   80SLPC  C317 7474   2.723   2.969   8.835  0.2715 -0.4024  0.2373
   80SLPC  H17X 7475   2.637   3.021   8.787 -1.2208 -3.3588 -0.5130
   80SLPC  H17Y 7476   2.797   3.048   8.809 -1.1965 -0.1143 -3.6225
   80SLPC  C318 7477   2.698   2.959   8.986 -0.0881 -0.2102 -0.8109
   80SLPC  H18X 7478   2.613   2.888   8.998 -2.2670  2.3364  0.0747
   80SLPC  H18Y 7479   2.668   3.058   9.028 -0.7040 -0.8109  0.2123
   80SLPC  H18Z 7480   2.787   2.922   9.041 -1.5828  1.8527  3.5002
   81SAPS     N 7481   1.669   0.312  11.094 -0.4944  0.9572  0.0132
   81SAPS   HN1 7482   1.579   0.262  11.106 -1.5004  2.5993 -0.3500
   81SAPS   HN2 7483   1.637   0.406  11.060  0.3351  1.3850  0.3851
   81SAPS   HN3 7484   1.722   0.264  11.019  2.0130  0.9239  1.6838
   81SAPS   C12 7485   1.744   0.334  11.214 -0.3068 -0.3027  0.9093
   81SAPS  H12A 7486   1.686   0.397  11.279 -1.8856 -1.6657  0.9022
   81SAPS   C13 7487   1.773   0.210  11.300 -0.0572 -0.1537 -0.6937
   81SAPS  O13A 7488   1.696   0.106  11.300  0.1675 -0.0587  0.1553
   81SAPS  O13B 7489   1.853   0.213  11.400  0.5277 -0.0477  0.5001
   81SAPS   C11 7490   1.877   0.406  11.180 -0.2780 -0.2443 -0.2256
   81SAPS  H11A 7491   1.947   0.351  11.113  1.5709  1.2548  0.3796
   81SAPS  H11B 7492   1.941   0.426  11.268  0.3171  1.6675 -1.0382
   81SAPS     P 7493   1.926   0.668  11.134 -0.2621 -0.0786 -0.0991
   81SAPS   O13 7494   1.847   0.787  11.162 -0.4626 -1.1394 -0.0612
   81SAPS   O14 7495   2.037   0.644  11.233  0.7937  0.2537  0.0451
   81SAPS   O12 7496   1.841   0.537  11.128  0.6152  0.4599  0.0199
   81SAPS   O11 7497   1.992   0.680  10.989 -0.2049 -0.1033 -0.7611
   81SAPS    C1 7498   1.923   0.628  10.870 -0.3086  0.0421 -0.1994
   81SAPS    HA 7499   1.917   0.517  10.871 -0.0307 -0.0048  2.2447
   81SAPS    HB 7500   1.815   0.651  10.880 -0.6730 -1.0180 -1.5021
   81SAPS    C2 7501   1.999   0.660  10.740 -0.4559 -0.3262  0.7125
   81SAPS    HS 7502   2.106   0.631  10.747 -0.5065 -0.1833  2.8092
   81SAPS   O21 7503   1.991   0.806  10.712  0.2331  0.6657 -0.0475
   81SAPS   C21 7504   2.102   0.871  10.690  0.0172  0.0963  0.2548
   81SAPS   O22 7505   2.210   0.829  10.687 -0.7336  0.2063 -0.1224
   81SAPS   C22 7506   2.061   1.010  10.641  0.6488  0.7392 -0.6234
   81SAPS   H2R 7507   1.970   1.004  10.578  0.7839 -0.9627 -0.7249
   81SAPS   H2S 7508   2.035   1.062  10.735  1.4691  1.3747 -0.7311
   81SAPS    C3 7509   1.945   0.575  10.621  0.4401  0.1367  0.5074
   81SAPS    HX 7510   1.835   0.591  10.622  0.3797 -0.2122 -0.2067
   81SAPS    HY 7511   1.962   0.471  10.654  2.0473  0.4057  0.5943
   81SAPS   O31 7512   1.999   0.595  10.488 -0.3538  0.3767 -0.0439
   81SAPS   C31 7513   1.927   0.688  10.422 -1.1838  0.8337 -0.2101
   81SAPS   O32 7514   1.836   0.749  10.468  0.4369 -0.2379 -0.2914
   81SAPS   C32 7515   1.979   0.698  10.286 -0.2932 -0.4623  0.2514
   81SAPS   H2X 7516   1.984   0.599  10.235  0.3523 -0.1762 -0.2628
   81SAPS   H2Y 7517   2.085   0.730  10.299  0.1696 -1.6092 -0.5955
   81SAPS   C23 7518   2.176   1.077  10.570 -0.2480  0.2202  0.7670
   81SAPS   H3R 7519   2.271   1.091  10.625 -0.6011 -0.6376  1.6405
   81SAPS   H3S 7520   2.138   1.174  10.531  0.7905 -0.0476 -1.0518
   81SAPS   C24 7521   2.201   1.009  10.431 -1.0704 -0.5823 -0.3387
   81SAPS   H4R 7522   2.111   1.003  10.366 -0.6559  1.8389 -1.1939
   81SAPS   H4S 7523   2.237   0.905  10.449  0.3467 -0.5341 -2.5903
   81SAPS   C25 7524   2.310   1.085  10.360 -0.1726 -0.5259 -0.4655
   81SAPS   H5R 7525   2.388   1.112  10.433 -0.6986 -0.5759  0.1246
   81SAPS   C26 7526   2.319   1.126  10.235 -0.1841  0.3649 -1.0383
   81SAPS   H6R 7527   2.410   1.180  10.204  1.2834  0.4543  2.8300
   81SAPS   C27 7528   2.215   1.096  10.132 -0.2573 -0.7848 -0.0026
   81SAPS   H7R 7529   2.122   1.070  10.187 -0.0210 -3.7671 -0.8567
   81SAPS   H7S 7530   2.247   1.005  10.077 -1.0400 -0.6669 -0.6800
   81SAPS   C28 7531   2.192   1.200  10.023 -0.7101 -0.6536 -0.2197
   81SAPS   H8R 7532   2.092   1.246  10.021  0.3732  1.7782 -0.6816
   81SAPS   C29 7533   2.271   1.241   9.922 -0.1032  0.1861 -0.6046
   81SAPS   H9R 7534   2.230   1.311   9.848 -0.9370  2.0826  1.5229
   81SAPS  C210 7535   2.399   1.174   9.890 -0.5081 -0.0585  0.8102
   81SAPS  H10R 7536   2.442   1.119   9.976  1.0581 -2.9500 -1.6248
   81SAPS  H10S 7537   2.473   1.254   9.869  0.0648 -0.6700  0.4369
   81SAPS  C211 7538   2.381   1.085   9.768  0.2282  0.2557  0.3789
   81SAPS  H11R 7539   2.360   0.983   9.804 -3.4910  0.6812 -0.2785
   81SAPS  C212 7540   2.384   1.118   9.638 -0.9701  0.0787 -0.7657
   81SAPS  H12R 7541   2.367   1.040   9.563  1.6767 -1.3804  0.0274
   81SAPS  C213 7542   2.419   1.259   9.583  0.7010 -0.2641 -0.9883
   81SAPS  H13R 7543   2.453   1.328   9.664  0.6970  0.2545 -1.4216
   81SAPS  H13S 7544   2.318   1.291   9.551  0.4643  0.8257  0.7172
   81SAPS  C214 7545   2.513   1.264   9.465  0.1190 -0.5984  0.1468
   81SAPS  H14R 7546   2.611   1.298   9.502 -0.6425 -1.2924  3.1467
   81SAPS  C215 7547   2.497   1.247   9.332 -0.7132  0.5749 -0.3072
   81SAPS  H15R 7548   2.588   1.249   9.271  0.0517 -2.0309  0.5798
   81SAPS  C216 7549   2.364   1.215   9.263 -0.5023  0.0431 -0.4328
   81SAPS  H16R 7550   2.335   1.297   9.194 -0.6600 -1.6900 -2.5305
   81SAPS  H16S 7551   2.280   1.188   9.331 -0.2841  0.4654  0.0063
   81SAPS  C217 7552   2.385   1.103   9.156  0.1917 -0.5834  0.6576
   81SAPS  H17R 7553   2.476   1.132   9.099 -0.9818  2.0125 -0.0692
   81SAPS  H17S 7554   2.295   1.089   9.092  0.7069  0.1204 -0.2614
   81SAPS  C218 7555   2.414   0.971   9.232 -0.1651  0.1605  0.5333
   81SAPS  H18R 7556   2.330   0.962   9.304 -0.8575  0.1443 -0.2616
   81SAPS  H18S 7557   2.508   0.978   9.291  2.2559 -1.3733 -2.8173
   81SAPS  C219 7558   2.411   0.852   9.135  0.3765  0.0254 -0.0409
   81SAPS  H19R 7559   2.312   0.856   9.083 -0.2658  1.6614  1.2087
   81SAPS  H19S 7560   2.406   0.758   9.195  0.2984  0.1770  0.1908
   81SAPS  C220 7561   2.519   0.832   9.029 -0.0317 -0.3804  0.0448
   81SAPS  H20R 7562   2.550   0.933   8.994  1.8501 -1.5976 -1.9996
   81SAPS  H20S 7563   2.496   0.756   8.952 -0.2415  0.6206 -0.9094
   81SAPS  H20T 7564   2.611   0.812   9.087  0.3580  1.5188  0.1709
   81SAPS   C33 7565   1.905   0.799  10.199 -0.7271 -0.2457  0.1425
   81SAPS   H3X 7566   1.915   0.899  10.247 -2.7162  0.1436 -0.1525
   81SAPS   H3Y 7567   1.796   0.780  10.198 -1.0057  1.1028 -1.9639
   81SAPS   C34 7568   1.971   0.815  10.056 -0.2548  0.2799  0.1285
   81SAPS   H4X 7569   1.953   0.719  10.003  3.0012 -0.8961  0.9725
   81SAPS   H4Y 7570   2.081   0.825  10.065  0.1134 -2.3173 -0.7455
   81SAPS   C35 7571   1.914   0.929   9.963  0.5884 -0.2367  0.5170
   81SAPS   H5X 7572   1.910   1.020  10.027 -1.9076 -0.8648  1.3642
   81SAPS   H5Y 7573   1.805   0.912   9.946  0.8313 -0.8519 -0.5245
   81SAPS   C36 7574   1.991   0.948   9.835 -0.4598  0.4533  0.6070
   81SAPS   H6X 7575   2.097   0.971   9.859 -0.2840  0.7082 -0.3489
   81SAPS   H6Y 7576   1.945   1.028   9.774  1.4496  0.4573 -0.9394
   81SAPS   C37 7577   1.987   0.828   9.740  0.9158 -0.5829 -0.6113
   81SAPS   H7X 7578   1.881   0.810   9.711 -0.2824  1.8469  1.8261
   81SAPS   H7Y 7579   2.019   0.731   9.784  0.7948 -0.4419 -0.2130
   81SAPS   C38 7580   2.066   0.849   9.608 -0.4788  0.3249 -0.0559
   81SAPS   H8X 7581   2.173   0.839   9.635 -0.3599  0.1722 -0.5656
   81SAPS   H8Y 7582   2.049   0.953   9.574 -0.8402  0.2960  0.0348
   81SAPS   C39 7583   2.035   0.745   9.503  0.0450  0.5817  0.6666
   81SAPS   H9X 7584   1.927   0.754   9.479  0.4177  0.2650 -1.3117
   81SAPS   H9Y 7585   2.055   0.647   9.551 -0.5029  1.1819  2.1739
   81SAPS  C310 7586   2.123   0.762   9.383  0.5496  0.1185 -0.0363
   81SAPS  H10X 7587   2.228   0.753   9.416  0.6397  3.1189  0.8492
   81SAPS  H10Y 7588   2.123   0.869   9.353  0.1539 -0.0214 -0.5507
   81SAPS  C311 7589   2.094   0.672   9.260 -0.3218  0.3042 -0.2230
   81SAPS  H11X 7590   2.112   0.568   9.295 -2.0587 -0.4158 -1.2979
   81SAPS  H11Y 7591   2.180   0.676   9.190  0.0655 -1.5535  0.0810
   81SAPS  C312 7592   1.964   0.702   9.185  0.2847  0.2616  0.3087
   81SAPS  H12X 7593   1.970   0.810   9.157 -0.7452 -0.1945 -1.8474
   81SAPS  H12Y 7594   1.876   0.689   9.251 -0.7800  0.1573 -1.0999
   81SAPS  C313 7595   1.953   0.630   9.050 -0.2396  0.7623  0.2359
   81SAPS  H13X 7596   1.845   0.631   9.026 -0.3290 -0.9080  0.4362
   81SAPS  H13Y 7597   1.988   0.525   9.061  0.8873  1.1270  0.2996
   81SAPS  C314 7598   2.023   0.709   8.945  0.0654 -0.7193  0.7535
   81SAPS  H14X 7599   2.081   0.798   8.976  0.9114 -0.8459 -0.3988
   81SAPS  H14Y 7600   1.955   0.753   8.869  1.9031 -0.5193 -0.8650
   81SAPS  C315 7601   2.129   0.631   8.868 -1.0097  0.9704 -0.1787
   81SAPS  H15X 7602   2.075   0.550   8.815 -1.5281  0.7409  0.6784
   81SAPS  H15Y 7603   2.205   0.593   8.940 -1.7833  0.8150  0.5707
   81SAPS  C316 7604   2.191   0.729   8.769 -0.0504  0.6684  0.5649
   81SAPS  H16X 7605   2.223   0.824   8.818 -3.1918  0.9246  2.4346
   81SAPS  H16Y 7606   2.105   0.759   8.705 -1.2062 -0.9464  1.2849
   81SAPS  C317 7607   2.320   0.678   8.702 -0.2863  0.2651 -0.4975
   81SAPS  H17X 7608   2.291   0.583   8.653 -1.8450 -1.6651  3.7021
   81SAPS  H17Y 7609   2.390   0.657   8.785 -1.1815 -0.3496  0.1238
   81SAPS  C318 7610   2.379   0.770   8.598 -0.2731  0.0455 -0.3047
   81SAPS  H18X 7611   2.467   0.723   8.549  1.3321  0.0465  2.3687
   81SAPS  H18Y 7612   2.436   0.843   8.659  2.7802 -0.7892 -1.9840
   81SAPS  H18Z 7613   2.308   0.827   8.534  0.1482  0.9896  0.0583
   82SAPS     N 7614   3.005   0.902  10.812 -0.0338  0.1802 -0.2586
   82SAPS   HN1 7615   2.944   0.858  10.884  0.8381  2.3529  1.9581
   82SAPS   HN2 7616   2.954   0.976  10.758 -0.3652 -0.3290 -0.6603
   82SAPS   HN3 7617   3.049   0.831  10.750  1.2168  0.6174  0.0983
   82SAPS   C12 7618   3.116   0.977  10.882  0.2846 -0.4459 -0.7660
   82SAPS  H12A 7619   3.065   1.044  10.951  1.0428  1.5681 -2.0769
   82SAPS   C13 7620   3.205   0.895  10.976  0.3893 -0.1928 -0.0543
   82SAPS  O13A 7621   3.178   0.771  10.971 -0.1143  0.6930 -0.6118
   82SAPS  O13B 7622   3.267   0.947  11.073  0.3439 -0.8165 -0.2598
   82SAPS   C11 7623   3.194   1.062  10.785  0.3708  0.3232 -0.0374
   82SAPS  H11A 7624   3.237   0.999  10.704  1.3117  0.4299  0.3634
   82SAPS  H11B 7625   3.279   1.103  10.844 -0.8983 -0.4755  2.5218
   82SAPS     P 7626   3.080   1.300  10.785 -0.2421 -0.0188 -0.1614
   82SAPS   O13 7627   2.932   1.302  10.796 -0.2929 -0.1835 -0.2196
   82SAPS   O14 7628   3.159   1.314  10.906 -0.7857  0.1819 -0.1729
   82SAPS   O12 7629   3.119   1.163  10.720  0.3201 -0.7320  0.4085
   82SAPS   O11 7630   3.131   1.407  10.679  0.0226  0.5674  0.3443
   82SAPS    C1 7631   3.103   1.380  10.539 -0.3387 -0.3718 -0.8575
   82SAPS    HA 7632   3.080   1.273  10.519  0.5904 -1.0763  1.5444
   82SAPS    HB 7633   3.021   1.448  10.507 -0.3409  0.1532  0.2447
   82SAPS    C2 7634   3.232   1.415  10.471  0.0905 -0.1103  0.9631
   82SAPS    HS 7635   3.273   1.511  10.509  0.4351 -0.7835  2.3706
   82SAPS   O21 7636   3.203   1.424  10.328 -0.2021 -0.1670 -0.4697
   82SAPS   C21 7637   3.301   1.468  10.247  0.4994 -0.0477  0.2313
   82SAPS   O22 7638   3.411   1.491  10.278  0.6644  0.9019  0.1111
   82SAPS   C22 7639   3.237   1.480  10.108 -0.2112  0.0749 -0.7836
   82SAPS   H2R 7640   3.165   1.397  10.091 -3.1698  2.1726  0.5597
   82SAPS   H2S 7641   3.170   1.568  10.117  2.3013  1.9018  3.4363
   82SAPS    C3 7642   3.335   1.294  10.480 -0.7480 -0.0330 -0.7977
   82SAPS    HX 7643   3.347   1.274  10.588  0.2587  0.5620 -0.7831
   82SAPS    HY 7644   3.432   1.330  10.438  0.8155 -2.0851  0.8493
   82SAPS   O31 7645   3.292   1.176  10.406 -0.1646  0.3562  0.5567
   82SAPS   C31 7646   3.372   1.076  10.424 -0.0134  0.0284 -0.1411
   82SAPS   O32 7647   3.489   1.083  10.466  0.1575  0.1103 -0.0299
   82SAPS   C32 7648   3.301   0.963  10.347  0.8855  0.0650  0.4409
   82SAPS   H2X 7649   3.196   0.964  10.384  0.9845  0.3288  0.7206
   82SAPS   H2Y 7650   3.341   0.860  10.361  1.2294  0.1875  0.3851
   82SAPS   C23 7651   3.339   1.502   9.995 -0.3659  0.0186 -0.9271
   82SAPS   H3R 7652   3.404   1.412  10.002  2.2574  1.7966 -0.6678
   82SAPS   H3S 7653   3.409   1.584  10.022 -1.4304  1.0659 -1.2514
   82SAPS   C24 7654   3.281   1.522   9.854  0.7715  0.2341  0.3369
   82SAPS   H4R 7655   3.214   1.610   9.865 -1.6225 -1.4959  0.4174
   82SAPS   H4S 7656   3.219   1.436   9.820  2.5636 -0.6508 -0.9017
   82SAPS   C25 7657   3.395   1.541   9.751  0.0686 -0.3200 -0.0079
   82SAPS   H5R 7658   3.461   1.628   9.763  0.6928 -0.1358 -3.6011
   82SAPS   C26 7659   3.405   1.473   9.634 -1.1499  0.0012 -0.7039
   82SAPS   H6R 7660   3.484   1.494   9.561  0.0966 -0.1519  0.5592
   82SAPS   C27 7661   3.317   1.357   9.596 -0.3747 -0.4804  0.7335
   82SAPS   H7R 7662   3.219   1.386   9.552  0.7498  1.5071 -0.6371
   82SAPS   H7S 7663   3.287   1.306   9.690 -3.4283  1.0822  0.7336
   82SAPS   C28 7664   3.379   1.260   9.500 -0.1166  0.6763  0.5367
   82SAPS   H8R 7665   3.407   1.166   9.550 -0.6548  0.8013  1.0961
   82SAPS   C29 7666   3.398   1.273   9.372  0.9637  0.0700  0.0051
   82SAPS   H9R 7667   3.443   1.181   9.331  1.6398 -0.3538  1.6251
   82SAPS  C210 7668   3.364   1.397   9.289  0.3897 -1.0064  0.3150
   82SAPS  H10R 7669   3.282   1.459   9.333 -1.1463  0.0448 -3.5775
   82SAPS  H10S 7670   3.306   1.366   9.199 -0.8974  1.4138  0.2109
   82SAPS  C211 7671   3.482   1.475   9.249 -0.1551 -0.4155  0.3216
   82SAPS  H11R 7672   3.521   1.528   9.337 -0.9251  0.3026  0.2434
   82SAPS  C212 7673   3.543   1.471   9.123 -0.7114  0.2035  0.6792
   82SAPS  H12R 7674   3.634   1.530   9.106 -1.8053  1.7978  0.0157
   82SAPS  C213 7675   3.504   1.384   9.003  0.4836  0.0605  0.9846
   82SAPS  H13R 7676   3.452   1.446   8.927  0.4918  0.5339  1.3536
   82SAPS  H13S 7677   3.430   1.307   9.032 -0.1376 -1.3627 -3.6156
   82SAPS  C214 7678   3.631   1.318   8.941  0.5102 -0.0282 -0.1575
   82SAPS  H14R 7679   3.710   1.312   9.017 -0.4147  0.2534  0.8467
   82SAPS  C215 7680   3.652   1.275   8.811 -0.8694 -0.5885 -0.4301
   82SAPS  H15R 7681   3.749   1.239   8.775 -0.2245  0.6736 -0.0153
   82SAPS  C216 7682   3.546   1.284   8.699 -0.3848 -0.3717 -0.0181
   82SAPS  H16R 7683   3.442   1.286   8.739 -0.4709 -2.0527 -0.1050
   82SAPS  H16S 7684   3.541   1.186   8.647 -0.3841 -0.1642 -0.4181
   82SAPS  C217 7685   3.561   1.400   8.599  0.4637  0.5467 -0.2163
   82SAPS  H17R 7686   3.479   1.397   8.525  0.2234 -0.6279  0.0721
   82SAPS  H17S 7687   3.654   1.386   8.539  0.3018  1.1428 -0.6097
   82SAPS  C218 7688   3.556   1.534   8.667 -0.0310 -0.4017 -0.3665
   82SAPS  H18R 7689   3.637   1.545   8.743 -1.9368  0.4171  1.6372
   82SAPS  H18S 7690   3.460   1.549   8.720  0.8403 -0.0757  1.1774
   82SAPS  C219 7691   3.556   1.664   8.577 -0.1366  0.3833 -0.4669
   82SAPS  H19R 7692   3.607   1.635   8.483 -1.7495  1.2724 -1.6577
   82SAPS  H19S 7693   3.620   1.733   8.636  2.1378 -1.7901 -0.2154
   82SAPS  C220 7694   3.411   1.715   8.549 -0.2777 -0.2497 -0.2214
   82SAPS  H20R 7695   3.341   1.631   8.530  2.1819 -2.5647  0.5190
   82SAPS  H20S 7696   3.382   1.791   8.472 -0.3632  0.2468  0.2898
   82SAPS  H20T 7697   3.367   1.764   8.638 -0.0406 -2.0044  0.8928
   82SAPS   C33 7698   3.311   0.987  10.195 -0.8749 -0.0009  0.2058
   82SAPS   H3X 7699   3.295   0.893  10.139 -1.9737  0.8198 -0.9273
   82SAPS   H3Y 7700   3.409   1.033  10.169 -1.1575  0.5305  0.0599
   82SAPS   C34 7701   3.203   1.083  10.138  0.5723  0.6614  0.8062
   82SAPS   H4X 7702   3.209   1.176  10.200  1.8717  0.8161  0.4739
   82SAPS   H4Y 7703   3.104   1.035  10.154  0.2354  1.1934  0.3329
   82SAPS   C35 7704   3.230   1.107   9.984 -0.1835 -0.8726 -0.0180
   82SAPS   H5X 7705   3.335   1.143   9.972 -0.7973  0.1545 -3.6186
   82SAPS   H5Y 7706   3.158   1.183   9.946  0.2420 -0.7058 -0.5177
   82SAPS   C36 7707   3.221   0.981   9.899 -0.0961 -0.9945  0.1962
   82SAPS   H6X 7708   3.134   0.922   9.933 -0.0759 -2.1611 -1.6468
   82SAPS   H6Y 7709   3.310   0.918   9.921  1.1544  0.4563 -0.4706
   82SAPS   C37 7710   3.196   1.007   9.752  0.4002 -0.1411  0.0839
   82SAPS   H7X 7711   3.273   1.072   9.704 -0.8787  0.6747 -0.9375
   82SAPS   H7Y 7712   3.101   1.064   9.744  1.1310  1.1454  0.2384
   82SAPS   C38 7713   3.176   0.876   9.681 -0.0425 -0.0857  0.8051
   82SAPS   H8X 7714   3.094   0.822   9.731 -0.3765  1.0599  1.5311
   82SAPS   H8Y 7715   3.263   0.807   9.681 -0.9085 -1.2064  0.3071
   82SAPS   C39 7716   3.133   0.879   9.534 -0.2307  0.7808 -0.1778
   82SAPS   H9X 7717   3.036   0.932   9.532 -0.6788  0.0548  1.1904
   82SAPS   H9Y 7718   3.106   0.775   9.505 -1.6959  1.7171 -2.4653
   82SAPS  C310 7719   3.240   0.916   9.430 -0.2352 -0.1931  0.1676
   82SAPS  H10X 7720   3.322   0.842   9.444  1.3775  1.8470  2.3728
   82SAPS  H10Y 7721   3.280   1.018   9.448  1.4039 -0.2695 -2.4543
   82SAPS  C311 7722   3.186   0.894   9.285  0.0203 -0.2458 -0.4709
   82SAPS  H11X 7723   3.092   0.952   9.276  0.4622  0.8428  1.3237
   82SAPS  H11Y 7724   3.171   0.785   9.267 -0.7738 -0.1126 -0.6252
   82SAPS  C312 7725   3.287   0.942   9.172 -0.2185  0.2158 -0.1930
   82SAPS  H12X 7726   3.383   0.886   9.177  1.1187  2.0315 -3.0037
   82SAPS  H12Y 7727   3.330   1.042   9.196 -2.4414  0.7780  1.8411
   82SAPS  C313 7728   3.229   0.937   9.035  0.6583  0.6884  0.6494
   82SAPS  H13X 7729   3.119   0.945   9.029  0.4519  1.3343  3.8224
   82SAPS  H13Y 7730   3.250   0.838   8.988 -1.5923  0.0078  0.9798
   82SAPS  C314 7731   3.295   1.037   8.943 -0.1068  0.0896 -0.1610
   82SAPS  H14X 7732   3.404   1.017   8.950 -0.3031 -0.6523  1.0330
   82SAPS  H14Y 7733   3.279   1.137   8.988  0.1821  1.3814 -2.7963
   82SAPS  C315 7734   3.236   1.037   8.798 -0.0207 -0.2727  0.7408
   82SAPS  H15X 7735   3.246   1.141   8.760  1.0684 -0.0027  1.6817
   82SAPS  H15Y 7736   3.128   1.013   8.806  0.5373 -3.6932 -0.4757
   82SAPS  C316 7737   3.302   0.933   8.711 -0.0982  0.6859  0.4013
   82SAPS  H16X 7738   3.283   0.840   8.770 -0.2620  2.1449  2.7450
   82SAPS  H16Y 7739   3.411   0.952   8.706  0.2362 -1.2787 -2.2793
   82SAPS  C317 7740   3.244   0.940   8.571 -1.1276 -0.0136 -0.7139
   82SAPS  H17X 7741   3.259   1.045   8.537 -2.6614  1.8801  3.7585
   82SAPS  H17Y 7742   3.134   0.925   8.576 -1.1128  0.0509 -0.1358
   82SAPS  C318 7743   3.306   0.838   8.481  0.5073 -0.2712  0.5938
   82SAPS  H18X 7744   3.244   0.834   8.389 -0.6257  1.0697  1.2489
   82SAPS  H18Y 7745   3.294   0.742   8.535 -0.9794 -1.5518 -1.8381
   82SAPS  H18Z 7746   3.409   0.865   8.449  0.3768 -0.1620  0.2585
   83SAPS     N 7747   5.752   3.474  10.891 -0.8707 -0.4968 -0.2462
   83SAPS   HN1 7748   5.817   3.499  10.813  0.8531  0.9037  1.5203
   83SAPS   HN2 7749   5.681   3.402  10.867  0.2904 -0.8662 -2.9062
   83SAPS   HN3 7750   5.697   3.556  10.925 -1.2131 -0.4806 -0.8320
   83SAPS   C12 7751   5.828   3.432  11.016  0.4559 -1.3572  0.0377
   83SAPS  H12A 7752   5.897   3.510  11.046  0.1421 -1.7416  1.8679
   83SAPS   C13 7753   5.727   3.421  11.128  0.4249  0.6295 -0.4708
   83SAPS  O13A 7754   5.616   3.483  11.127  0.5094 -0.1182 -0.6094
   83SAPS  O13B 7755   5.759   3.345  11.231 -0.2413 -0.6074 -0.2909
   83SAPS   C11 7756   5.904   3.303  10.992 -0.1462  0.3898 -0.2742
   83SAPS  H11A 7757   5.828   3.226  10.966 -0.0147  0.4145 -0.7450
   83SAPS  H11B 7758   5.941   3.272  11.093  0.3012 -0.5146 -0.6976
   83SAPS     P 7759   6.123   3.195  10.929 -0.0670  0.1276  0.0721
   83SAPS   O13 7760   6.219   3.239  11.035 -0.4451  0.5391 -0.1995
   83SAPS   O14 7761   6.072   3.058  10.945  0.6704  0.6422 -0.8286
   83SAPS   O12 7762   6.011   3.304  10.897 -0.2093 -0.3704  0.2306
   83SAPS   O11 7763   6.206   3.195  10.798 -0.4660 -0.3328 -0.3873
   83SAPS    C1 7764   6.225   3.318  10.731 -0.7089 -0.5740  0.4743
   83SAPS    HA 7765   6.136   3.384  10.724  0.4051  0.8469 -0.8193
   83SAPS    HB 7766   6.302   3.371  10.790 -2.0201  0.2316  1.5400
   83SAPS    C2 7767   6.267   3.287  10.586 -0.2411 -0.1847  0.2834
   83SAPS    HS 7768   6.264   3.383  10.529  1.6518 -0.1095  0.2494
   83SAPS   O21 7769   6.184   3.179  10.533  0.0968 -0.1504  0.2399
   83SAPS   C21 7770   6.071   3.223  10.498  0.1314  0.1934 -0.2910
   83SAPS   O22 7771   6.036   3.341  10.497  0.8546 -0.2645  0.3433
   83SAPS   C22 7772   5.983   3.105  10.454  0.8202 -0.1693  0.1249
   83SAPS   H2R 7773   6.049   3.026  10.414  1.4265  0.4696 -0.1629
   83SAPS   H2S 7774   5.926   3.072  10.543 -1.7106 -0.7703 -1.5909
   83SAPS    C3 7775   6.420   3.257  10.577  0.2050 -0.2396 -0.5597
   83SAPS    HX 7776   6.441   3.179  10.653  0.2324  1.3119  1.1036
   83SAPS    HY 7777   6.486   3.342  10.604 -0.1991 -0.7250  2.2910
   83SAPS   O31 7778   6.441   3.215  10.443 -0.4028 -0.3576 -0.2540
   83SAPS   C31 7779   6.449   3.088  10.418  0.5707  0.2488  0.2333
   83SAPS   O32 7780   6.458   2.998  10.503  0.1579 -0.5185 -0.1761
   83SAPS   C32 7781   6.432   3.071  10.273 -0.0491  1.2324 -0.6359
   83SAPS   H2X 7782   6.327   3.069  10.237 -0.0423 -1.9660 -0.6866
   83SAPS   H2Y 7783   6.463   2.965  10.261 -2.9482  0.4083 -1.5457
   83SAPS   C23 7784   5.874   3.141  10.350  0.5547 -0.0319  0.9017
   83SAPS   H3R 7785   5.823   3.237  10.374  1.2637  0.9534 -1.2677
   83SAPS   H3S 7786   5.788   3.072  10.348 -0.1877  0.8917 -0.4179
   83SAPS   C24 7787   5.939   3.170  10.210  0.2397 -0.0977  0.3062
   83SAPS   H4R 7788   6.005   3.259  10.223  1.9727 -0.7066 -3.1529
   83SAPS   H4S 7789   5.867   3.215  10.138  1.1943  1.7397  0.4271
   83SAPS   C25 7790   6.013   3.053  10.143  0.4212  0.1120 -0.4259
   83SAPS   H5R 7791   6.080   3.011  10.219 -1.0982  2.0028  2.0892
   83SAPS   C26 7792   5.996   3.000  10.022  0.2276 -0.0778 -0.2771
   83SAPS   H6R 7793   6.043   2.901  10.010 -0.7871 -0.4187 -1.7299
   83SAPS   C27 7794   5.910   3.052   9.906  0.2852  0.1911  0.1689
   83SAPS   H7R 7795   5.985   3.079   9.828  0.7091  0.2087  0.5776
   83SAPS   H7S 7796   5.866   3.151   9.929  0.7335  0.7786 -1.3368
   83SAPS   C28 7797   5.805   2.945   9.859 -0.7609 -1.3772  0.0691
   83SAPS   H8R 7798   5.771   2.871   9.932 -0.0511 -2.7815 -0.9842
   83SAPS   C29 7799   5.751   2.956   9.737 -0.9452  0.1269 -0.0620
   83SAPS   H9R 7800   5.678   2.884   9.697 -0.6389 -0.3279  0.1929
   83SAPS  C210 7801   5.767   3.061   9.636  0.1304  0.0814  0.7486
   83SAPS  H10R 7802   5.865   3.033   9.592 -0.8056 -0.4302 -1.1428
   83SAPS  H10S 7803   5.789   3.158   9.685  0.1167  1.8576 -2.4907
   83SAPS  C211 7804   5.666   3.082   9.522  1.0474 -0.0506 -0.1062
   83SAPS  H11R 7805   5.561   3.057   9.545  1.7547 -1.0271  2.3575
   83SAPS  C212 7806   5.695   3.118   9.396 -0.0222 -0.6694  0.2542
   83SAPS  H12R 7807   5.616   3.110   9.321 -0.5140 -2.3101  0.9023
   83SAPS  C213 7808   5.836   3.156   9.347 -0.2343 -0.0035 -0.1729
   83SAPS  H13R 7809   5.876   3.066   9.297  0.1956  0.4254 -0.6213
   83SAPS  H13S 7810   5.909   3.171   9.429 -1.5368  2.4849  0.6682
   83SAPS  C214 7811   5.837   3.266   9.247  0.0008 -0.1051 -0.6453
   83SAPS  H14R 7812   5.864   3.363   9.292  0.0056 -0.0325 -0.8009
   83SAPS  C215 7813   5.826   3.271   9.112 -0.6601  0.1357 -0.3615
   83SAPS  H15R 7814   5.833   3.365   9.056 -1.4521  0.0213 -0.6543
   83SAPS  C216 7815   5.809   3.138   9.044  0.3722 -0.1168  0.0438
   83SAPS  H16R 7816   5.773   3.063   9.118 -0.7530  0.0662 -0.2876
   83SAPS  H16S 7817   5.899   3.100   8.991 -0.2100  0.5620 -1.5232
   83SAPS  C217 7818   5.688   3.139   8.950 -0.3707  0.4415  0.1278
   83SAPS  H17R 7819   5.665   3.034   8.925  0.9132  0.1552  0.0867
   83SAPS  H17S 7820   5.723   3.190   8.857 -0.9807  0.2362 -0.2176
   83SAPS  C218 7821   5.563   3.199   9.008  0.0219 -0.0081 -0.2123
   83SAPS  H18R 7822   5.576   3.307   9.030 -0.6558 -0.4135  2.5110
   83SAPS  H18S 7823   5.549   3.142   9.103  1.4685 -0.2448 -0.1202
   83SAPS  C219 7824   5.438   3.192   8.916  0.4236  1.2264  0.0745
   83SAPS  H19R 7825   5.345   3.205   8.976 -0.0879  2.1158 -0.8653
   83SAPS  H19S 7826   5.446   3.095   8.863  0.1132  1.1258  0.2067
   83SAPS  C220 7827   5.421   3.309   8.817 -0.3726  0.2207  0.6293
   83SAPS  H20R 7828   5.373   3.399   8.861 -1.0627  0.5707 -0.7846
   83SAPS  H20S 7829   5.360   3.279   8.729  0.0260  1.0074  0.0659
   83SAPS  H20T 7830   5.519   3.338   8.774 -0.2562 -1.8159 -0.6165
   83SAPS   C33 7831   6.510   3.178  10.190  0.4275  0.4936  0.4519
   83SAPS   H3X 7832   6.617   3.149  10.194  0.2979 -0.8727 -2.5805
   83SAPS   H3Y 7833   6.482   3.280  10.224 -2.5863  0.2315 -0.8857
   83SAPS   C34 7834   6.478   3.171  10.042  0.3010 -0.2708  0.1003
   83SAPS   H4X 7835   6.372   3.201  10.034  0.2321  0.0037  1.8026
   83SAPS   H4Y 7836   6.497   3.067  10.006  0.4265  0.1221 -1.0046
   83SAPS   C35 7837   6.572   3.262   9.964 -0.1602 -0.4979 -0.5741
   83SAPS   H5X 7838   6.678   3.230   9.978 -0.1488 -1.1823 -2.0385
   83SAPS   H5Y 7839   6.546   3.360  10.010 -2.4286 -0.6279 -1.4383
   83SAPS   C36 7840   6.525   3.252   9.824  0.4887  0.4450  0.0086
   83SAPS   H6X 7841   6.573   3.336   9.769 -1.5703  2.4695  1.1291
   83SAPS   H6Y 7842   6.418   3.283   9.822  0.5939  0.8083 -0.0772
   83SAPS   C37 7843   6.556   3.119   9.749  0.3463  0.2223 -0.0993
   83SAPS   H7X 7844   6.523   3.127   9.643 -1.4975  1.5773  0.5240
   83SAPS   H7Y 7845   6.488   3.042   9.791  0.4283  1.0677  1.6695
   83SAPS   C38 7846   6.699   3.071   9.758  0.3820 -0.4967  0.1730
   83SAPS   H8X 7847   6.714   3.042   9.864  0.8025  2.6081  1.0600
   83SAPS   H8Y 7848   6.774   3.152   9.746 -0.2926 -0.1099 -1.8594
   83SAPS   C39 7849   6.737   2.955   9.663 -0.3517  0.1312  0.4693
   83SAPS   H9X 7850   6.651   2.885   9.657 -2.5122  2.5744  0.8428
   83SAPS   H9Y 7851   6.830   2.912   9.707 -0.2416  0.5269  0.6257
   83SAPS  C310 7852   6.769   2.998   9.517  0.5787  0.7543 -0.0732
   83SAPS  H10X 7853   6.859   3.062   9.514  0.6102  0.8390  1.7775
   83SAPS  H10Y 7854   6.687   3.050   9.462 -0.0014 -0.1666 -0.0953
   83SAPS  C311 7855   6.810   2.873   9.431 -0.1581 -0.4934 -0.0585
   83SAPS  H11X 7856   6.723   2.804   9.425  1.3172 -2.4265 -0.1755
   83SAPS  H11Y 7857   6.894   2.818   9.480  0.0385  0.4796  0.7250
   83SAPS  C312 7858   6.859   2.907   9.284  0.7654 -0.5402  0.3170
   83SAPS  H12X 7859   6.943   2.979   9.291  0.1433  0.4240 -1.4466
   83SAPS  H12Y 7860   6.766   2.955   9.246  0.1567 -1.0378  1.1423
   83SAPS  C313 7861   6.910   2.799   9.194 -0.5454 -0.3552 -0.4255
   83SAPS  H13X 7862   6.830   2.732   9.157 -1.2190  1.1651 -1.8615
   83SAPS  H13Y 7863   6.982   2.731   9.244 -0.4068 -0.4739 -0.7836
   83SAPS  C314 7864   6.983   2.850   9.064 -0.2529 -0.3025 -0.3670
   83SAPS  H14X 7865   7.061   2.926   9.085 -1.0338 -0.0738  2.0225
   83SAPS  H14Y 7866   6.906   2.905   9.006  1.0488  1.2868 -0.6484
   83SAPS  C315 7867   7.045   2.740   8.983 -0.2389 -0.8250 -0.1220
   83SAPS  H15X 7868   6.975   2.654   8.982  1.2123 -2.0540 -1.2636
   83SAPS  H15Y 7869   7.137   2.706   9.037  0.5954  1.1236 -0.2514
   83SAPS  C316 7870   7.095   2.780   8.845 -0.2681 -0.1659 -0.8875
   83SAPS  H16X 7871   7.135   2.883   8.854 -1.0004  0.0230  0.3046
   83SAPS  H16Y 7872   7.008   2.790   8.777  0.6813 -0.9507 -2.2965
   83SAPS  C317 7873   7.199   2.694   8.779  0.5149  1.1348 -0.4265
   83SAPS  H17X 7874   7.202   2.597   8.832 -0.8984  1.2896 -0.0292
   83SAPS  H17Y 7875   7.299   2.739   8.799 -0.3086  1.3141  4.3898
   83SAPS  C318 7876   7.167   2.663   8.630  0.3319 -0.3998 -0.6239
   83SAPS  H18X 7877   7.217   2.572   8.592 -0.3225 -0.9537 -0.1733
   83SAPS  H18Y 7878   7.189   2.755   8.571  0.9522  0.1870  0.4875
   83SAPS  H18Z 7879   7.060   2.641   8.608  0.4816 -2.0279  0.1520
   84SAPS     N 7880   0.119   3.518  10.563  0.2204 -0.6260  0.0611
   84SAPS   HN1 7881   0.122   3.613  10.520 -3.8743 -0.2992  0.0914
   84SAPS   HN2 7882   0.206   3.463  10.550  1.9614  1.6827  1.0946
   84SAPS   HN3 7883   0.040   3.469  10.517 -0.7926  0.5659  0.4494
   84SAPS   C12 7884   0.098   3.512  10.711 -0.1311  0.5796  0.0538
   84SAPS  H12A 7885   0.188   3.540  10.764  0.2242  0.1318 -0.3105
   84SAPS   C13 7886  -0.014   3.608  10.760  0.0485 -0.9208  0.3232
   84SAPS  O13A 7887  -0.063   3.694  10.678  0.4524 -0.2045 -0.5531
   84SAPS  O13B 7888  -0.042   3.613  10.880 -0.3145  0.8626 -0.0877
   84SAPS   C11 7889   0.055   3.364  10.741  0.4364  0.5555 -0.6141
   84SAPS  H11A 7890  -0.044   3.347  10.694 -1.0570 -0.9143  2.7659
   84SAPS  H11B 7891   0.043   3.357  10.851  0.5174  0.8479 -0.5855
   84SAPS     P 7892   0.173   3.139  10.775 -0.3829 -0.3198  0.1903
   84SAPS   O13 7893   0.260   3.182  10.888 -0.3412  0.4279  0.1579
   84SAPS   O14 7894   0.056   3.058  10.813 -0.2508  0.1708 -0.4943
   84SAPS   O12 7895   0.143   3.266  10.682  0.6701  0.3627 -0.1233
   84SAPS   O11 7896   0.262   3.051  10.676  0.8668 -0.1469 -0.1778
   84SAPS    C1 7897   0.331   3.122  10.567  0.4302 -0.1295  0.4099
   84SAPS    HA 7898   0.356   3.226  10.600  0.5839 -0.0795  0.1369
   84SAPS    HB 7899   0.428   3.071  10.553 -1.3370 -3.1027 -2.3528
   84SAPS    C2 7900   0.259   3.138  10.422  0.6075 -0.4234 -0.5962
   84SAPS    HS 7901   0.184   3.214  10.452  1.2942 -0.2303  0.7028
   84SAPS   O21 7902   0.215   3.008  10.387  0.0962  0.8745 -0.0049
   84SAPS   C21 7903   0.086   2.993  10.353  0.3240 -0.2940 -0.5406
   84SAPS   O22 7904  -0.010   3.067  10.366 -0.6848 -0.2858 -0.3551
   84SAPS   C22 7905   0.065   2.844  10.312  0.6498 -0.2053  0.0372
   84SAPS   H2R 7906   0.086   2.793  10.408  1.9200  1.7201  0.8405
   84SAPS   H2S 7907  -0.045   2.834  10.296  0.8034 -1.8339 -0.2033
   84SAPS    C3 7908   0.348   3.203  10.316 -0.9591  0.2167 -0.1108
   84SAPS    HX 7909   0.422   3.125  10.289  0.3079  1.0102  0.9358
   84SAPS    HY 7910   0.413   3.285  10.353 -1.3810  2.2532 -3.4902
   84SAPS   O31 7911   0.282   3.244  10.192 -0.0240  0.6353  0.1596
   84SAPS   C31 7912   0.225   3.360  10.204 -0.2798 -0.9200  0.2839
   84SAPS   O32 7913   0.243   3.441  10.298 -0.6580 -0.3844  0.5269
   84SAPS   C32 7914   0.140   3.386  10.077 -0.6312  0.5063  0.1613
   84SAPS   H2X 7915   0.042   3.339  10.100 -0.0127  0.0268  1.9709
   84SAPS   H2Y 7916   0.196   3.330   9.999 -0.6302  3.4575 -2.1467
   84SAPS   C23 7917   0.150   2.786  10.187 -0.0088  0.2558  0.2753
   84SAPS   H3R 7918   0.119   2.679  10.188 -0.3028  0.3415  0.6477
   84SAPS   H3S 7919   0.259   2.786  10.211 -0.1048  1.4001  0.7688
   84SAPS   C24 7920   0.106   2.850  10.052  0.3915  0.1931  0.0537
   84SAPS   H4R 7921   0.103   2.960  10.068 -0.2132  0.1162  0.5313
   84SAPS   H4S 7922  -0.003   2.830  10.038 -0.0190  2.3917 -0.2531
   84SAPS   C25 7923   0.184   2.805   9.934 -0.0414 -0.1541 -0.6831
   84SAPS   H5R 7924   0.188   2.696   9.928  2.8763 -0.1606 -0.3101
   84SAPS   C26 7925   0.268   2.879   9.859  1.2438 -0.5890  0.0509
   84SAPS   H6R 7926   0.323   2.833   9.776 -0.9792 -0.8902 -1.3295
   84SAPS   C27 7927   0.296   3.029   9.866  0.7219 -0.1957  0.8004
   84SAPS   H7R 7928   0.203   3.081   9.899  1.7806  2.8357 -0.7124
   84SAPS   H7S 7929   0.321   3.067   9.765  1.9025 -2.3793  0.2081
   84SAPS   C28 7930   0.400   3.059   9.969  0.6504 -0.6768 -0.3241
   84SAPS   H8R 7931   0.373   3.001  10.059  0.8294 -2.0736 -1.1493
   84SAPS   C29 7932   0.507   3.147   9.969  0.7464  0.2627  0.4828
   84SAPS   H9R 7933   0.578   3.137  10.052  2.0869 -1.3746 -0.7706
   84SAPS  C210 7934   0.560   3.221   9.857 -0.2491 -0.3118 -0.6275
   84SAPS  H10R 7935   0.655   3.273   9.881  0.9183 -2.0947 -1.1996
   84SAPS  H10S 7936   0.486   3.301   9.833 -1.2101 -0.2777  2.0983
   84SAPS  C211 7937   0.589   3.136   9.736  0.2239 -0.0573  0.2543
   84SAPS  H11R 7938   0.664   3.057   9.755  1.3004 -0.0107 -3.0055
   84SAPS  C212 7939   0.551   3.154   9.605  0.5995 -0.1411 -0.0254
   84SAPS  H12R 7940   0.580   3.077   9.532  0.6205 -0.4221  0.2768
   84SAPS  C213 7941   0.466   3.269   9.553  0.3963 -0.1018  0.0405
   84SAPS  H13R 7942   0.532   3.340   9.499 -1.5020  1.2075 -0.6913
   84SAPS  H13S 7943   0.414   3.326   9.633  2.2517  0.1156  1.1383
   84SAPS  C214 7944   0.362   3.222   9.455 -0.2171  0.8524  0.1742
   84SAPS  H14R 7945   0.290   3.151   9.497 -0.7649  2.0027  1.2376
   84SAPS  C215 7946   0.345   3.265   9.328  0.2892 -0.4922 -0.2762
   84SAPS  H15R 7947   0.259   3.217   9.280  0.2023 -3.6539  2.6811
   84SAPS  C216 7948   0.417   3.378   9.253 -0.1399  0.3678 -0.7638
   84SAPS  H16R 7949   0.459   3.459   9.315  1.1799 -0.5948 -0.3658
   84SAPS  H16S 7950   0.353   3.426   9.176  0.0188 -0.0994 -1.1919
   84SAPS  C217 7951   0.536   3.310   9.184 -0.6462 -0.0944 -0.3899
   84SAPS  H17R 7952   0.605   3.265   9.259 -0.7751  0.6537  0.1877
   84SAPS  H17S 7953   0.590   3.386   9.123 -1.2345  0.9469  0.3562
   84SAPS  C218 7954   0.489   3.211   9.076 -0.8639 -0.1346 -0.2988
   84SAPS  H18R 7955   0.461   3.119   9.132 -0.7678  0.9108  1.5660
   84SAPS  H18S 7956   0.581   3.170   9.029 -0.3531  1.2564 -0.5616
   84SAPS  C219 7957   0.389   3.256   8.967 -0.0876 -0.4053 -0.5433
   84SAPS  H19R 7958   0.417   3.352   8.919  0.1057  0.1305  0.6040
   84SAPS  H19S 7959   0.292   3.255   9.022  0.8972 -0.0566  1.2904
   84SAPS  C220 7960   0.361   3.155   8.859 -0.2705 -0.7071  0.4801
   84SAPS  H20R 7961   0.287   3.191   8.785 -0.4426  0.1344  1.0469
   84SAPS  H20S 7962   0.306   3.069   8.903  0.4777 -0.8445  1.1842
   84SAPS  H20T 7963   0.450   3.104   8.815 -1.3311 -0.2257 -2.4100
   84SAPS   C33 7964   0.126   3.537  10.048 -0.3918 -0.1481  0.5518
   84SAPS   H3X 7965   0.191   3.607  10.104 -1.6096  1.9879 -0.5879
   84SAPS   H3Y 7966   0.021   3.569  10.067  0.0713  0.4004  2.4168
   84SAPS   C34 7967   0.147   3.568   9.897 -0.2474 -0.5565  0.7975
   84SAPS   H4X 7968   0.254   3.558   9.870  0.4883  3.3752  1.6817
   84SAPS   H4Y 7969   0.121   3.674   9.881  0.6444 -0.4169  0.2024
   84SAPS   C35 7970   0.059   3.480   9.794  0.2774 -0.2446 -0.4837
   84SAPS   H5X 7971  -0.046   3.501   9.823  0.2556 -0.5050 -0.3670
   84SAPS   H5Y 7972   0.074   3.372   9.813 -1.3089 -0.3586  0.2875
   84SAPS   C36 7973   0.085   3.502   9.647 -0.1414  0.1106  0.4091
   84SAPS   H6X 7974   0.190   3.470   9.630  0.0508  0.8712  0.1133
   84SAPS   H6Y 7975   0.084   3.609   9.616  2.7978  0.8584  2.5501
   84SAPS   C37 7976   0.008   3.407   9.546  0.5415 -0.3249 -0.1794
   84SAPS   H7X 7977  -0.098   3.397   9.576  0.5708 -1.9108 -0.5163
   84SAPS   H7Y 7978   0.056   3.309   9.564  0.7487  0.1085  1.8051
   84SAPS   C38 7979   0.013   3.447   9.400 -0.4273 -0.3126  0.1212
   84SAPS   H8X 7980   0.120   3.476   9.386 -0.8282  3.1294  2.8651
   84SAPS   H8Y 7981  -0.052   3.536   9.392  0.0876  0.1597  1.0217
   84SAPS   C39 7982  -0.033   3.338   9.302 -0.0372 -0.9722  0.4114
   84SAPS   H9X 7983  -0.139   3.326   9.333  0.4934 -0.7799  2.4470
   84SAPS   H9Y 7984   0.021   3.245   9.329  0.1366 -0.9658  0.0950
   84SAPS  C310 7985   0.004   3.363   9.155 -0.2564  0.1181 -0.0622
   84SAPS  H10X 7986   0.105   3.410   9.150  0.4479 -0.8534  2.9879
   84SAPS  H10Y 7987  -0.070   3.436   9.116 -0.6859  0.0641  0.6484
   84SAPS  C311 7988   0.005   3.239   9.064 -0.0221  0.2878  0.1797
   84SAPS  H11X 7989   0.084   3.174   9.107 -0.7914 -0.2298  0.8360
   84SAPS  H11Y 7990   0.040   3.259   8.961  1.3621 -0.3804  0.5016
   84SAPS  C312 7991  -0.134   3.174   9.059  0.2807  0.2600 -0.0069
   84SAPS  H12X 7992  -0.184   3.167   9.158  0.8574 -0.8872  0.2220
   84SAPS  H12Y 7993  -0.127   3.067   9.031  0.0227  0.1397  0.3766
   84SAPS  C313 7994  -0.224   3.253   8.965  0.1998  0.2944  0.1474
   84SAPS  H13X 7995  -0.247   3.352   9.010  0.3351 -0.1790  1.2674
   84SAPS  H13Y 7996  -0.312   3.186   8.961  1.7420 -1.7691 -0.6212
   84SAPS  C314 7997  -0.175   3.284   8.820 -0.1640  0.5000 -0.6326
   84SAPS  H14X 7998  -0.138   3.187   8.781 -1.3934 -0.6350  0.8763
   84SAPS  H14Y 7999  -0.079   3.340   8.821  0.4573 -0.3350 -3.6242
   84SAPS  C315 8000  -0.271   3.358   8.724  0.6221 -0.5174  0.5328
   84SAPS  H15X 8001  -0.277   3.464   8.754 -3.4796 -0.5690  0.5067
   84SAPS  H15Y 8002  -0.369   3.306   8.717  0.7055 -0.4671 -3.8271
   84SAPS  C316 8003  -0.220   3.348   8.574 -0.6885 -0.0041  0.2124
   84SAPS  H16X 8004  -0.212   3.243   8.541 -0.3381 -0.2041  0.9008
   84SAPS  H16Y 8005  -0.125   3.405   8.564 -0.6055 -0.4439 -1.8671
   84SAPS  C317 8006  -0.303   3.418   8.467 -0.2770 -0.6476  0.4453
   84SAPS  H17X 8007  -0.399   3.363   8.455 -1.1122  0.9658 -0.5345
   84SAPS  H17Y 8008  -0.264   3.422   8.364 -0.8040 -2.2758  0.1511
   84SAPS  C318 8009  -0.346   3.562   8.492  0.3069  0.9477  0.3372
   84SAPS  H18X 8010  -0.411   3.592   8.407  0.0685 -1.6041 -0.4788
   84SAPS  H18Y 8011  -0.255   3.625   8.501  0.4950  0.6648  0.4272
   84SAPS  H18Z 8012  -0.415   3.569   8.579 -0.7204  0.0664 -0.3768
   85SAPS     N 8013   5.396   3.331  11.144  0.2655 -0.0719  0.0784
   85SAPS   HN1 8014   5.439   3.236  11.147  0.9447  0.2421  0.6995
   85SAPS   HN2 8015   5.470   3.397  11.112 -0.1393  0.8339  0.9300
   85SAPS   HN3 8016   5.356   3.356  11.237  0.4122  1.7375 -0.3041
   85SAPS   C12 8017   5.289   3.329  11.042  0.2287 -0.6106 -0.1518
   85SAPS  H12A 8018   5.341   3.298  10.953 -0.4578  0.3422 -0.9012
   85SAPS   C13 8019   5.179   3.230  11.064 -0.6181  0.1362 -0.3985
   85SAPS  O13A 8020   5.181   3.156  11.169  0.1670  0.3191 -0.5345
   85SAPS  O13B 8021   5.101   3.201  10.967  0.6128  0.4026 -0.5700
   85SAPS   C11 8022   5.225   3.472  11.024 -0.3981  0.2236  0.5532
   85SAPS  H11A 8023   5.148   3.475  11.103  0.4182  0.1651  1.3699
   85SAPS  H11B 8024   5.172   3.473  10.926  0.6436 -0.3870 -0.0321
   85SAPS     P 8025   5.312   3.694  11.139  0.0748  0.3172 -0.2464
   85SAPS   O13 8026   5.310   3.630  11.271 -0.8891  0.0782 -0.2928
   85SAPS   O14 8027   5.421   3.790  11.120 -0.1448  0.2842 -0.0866
   85SAPS   O12 8028   5.318   3.575  11.027  0.6014 -0.3023 -0.2139
   85SAPS   O11 8029   5.177   3.770  11.127  1.0049 -0.3577 -0.2088
   85SAPS    C1 8030   5.137   3.878  11.041 -0.0692  0.2643  0.1043
   85SAPS    HA 8031   5.079   3.953  11.098  1.0651  1.6870 -0.5565
   85SAPS    HB 8032   5.220   3.922  10.982  0.9238 -2.5416 -0.7428
   85SAPS    C2 8033   5.049   3.834  10.913  0.4114 -0.4122 -0.3423
   85SAPS    HS 8034   4.965   3.773  10.952 -1.4682  0.8423 -2.1955
   85SAPS   O21 8035   5.135   3.749  10.834 -0.1988  0.8474  0.2238
   85SAPS   C21 8036   5.060   3.656  10.764 -1.1516 -0.2145  0.4072
   85SAPS   O22 8037   4.950   3.621  10.790 -0.0635 -0.1949 -0.6101
   85SAPS   C22 8038   5.156   3.593  10.658  0.4281 -0.4662 -0.0085
   85SAPS   H2R 8039   5.260   3.614  10.690  0.9326 -1.5674 -0.8569
   85SAPS   H2S 8040   5.142   3.483  10.656 -0.1647 -0.3908 -0.6580
   85SAPS    C3 8041   4.993   3.954  10.825  0.0069  0.7093 -0.2497
   85SAPS    HX 8042   5.069   4.032  10.805 -1.8533  2.5066 -0.6960
   85SAPS    HY 8043   4.919   4.000  10.893  0.0179 -0.3285  0.4792
   85SAPS   O31 8044   4.937   3.909  10.699  0.4765 -0.7022  0.0000
   85SAPS   C31 8045   4.810   3.871  10.700  0.2969 -0.0931 -0.0992
   85SAPS   O32 8046   4.738   3.874  10.794 -0.1842  0.3324  0.3442
   85SAPS   C32 8047   4.759   3.845  10.557 -0.2475  0.0008  0.3461
   85SAPS   H2X 8048   4.666   3.786  10.573 -0.0228  0.2192  2.8624
   85SAPS   H2Y 8049   4.824   3.769  10.509  1.0957  1.5026 -0.3018
   85SAPS   C23 8050   5.118   3.648  10.516  0.3391 -0.5314  0.0271
   85SAPS   H3R 8051   5.008   3.659  10.517  0.3021 -0.9394  0.5847
   85SAPS   H3S 8052   5.135   3.568  10.441  0.1889 -1.7540  1.2542
   85SAPS   C24 8053   5.182   3.790  10.486  0.2243 -0.1366  0.2198
   85SAPS   H4R 8054   5.170   3.870  10.563  0.1917  0.0893 -0.0195
   85SAPS   H4S 8055   5.114   3.839  10.413  0.1314 -0.6489 -0.0430
   85SAPS   C25 8056   5.316   3.782  10.425 -0.3561 -0.0157  0.0377
   85SAPS   H5R 8057   5.389   3.764  10.506 -0.2966 -0.4309 -0.1052
   85SAPS   C26 8058   5.366   3.791  10.298 -0.1824  0.0823 -0.5693
   85SAPS   H6R 8059   5.470   3.759  10.284 -0.1432 -0.4088  0.6688
   85SAPS   C27 8060   5.288   3.817  10.172 -0.5477  0.3809 -1.0736
   85SAPS   H7R 8061   5.345   3.872  10.095 -2.1554  2.4769 -0.8708
   85SAPS   H7S 8062   5.209   3.892  10.196 -1.2587 -0.1898 -1.5827
   85SAPS   C28 8063   5.213   3.704  10.118  0.2664 -0.2925 -0.0221
   85SAPS   H8R 8064   5.236   3.609  10.169 -1.9928  0.0266  1.7730
   85SAPS   C29 8065   5.120   3.704  10.021  0.0575  0.7746 -0.7683
   85SAPS   H9R 8066   5.074   3.611   9.983 -1.8951  1.3284  0.1536
   85SAPS  C210 8067   5.065   3.821   9.947 -0.3906 -0.4796 -0.1268
   85SAPS  H10R 8068   5.092   3.912  10.005 -1.6224  0.7153 -1.3424
   85SAPS  H10S 8069   4.955   3.828   9.932 -0.1832  0.9567 -1.1429
   85SAPS  C211 8070   5.149   3.854   9.827  0.4162  0.8948 -0.4228
   85SAPS  H11R 8071   5.254   3.884   9.843  0.4135  0.7140 -0.0545
   85SAPS  C212 8072   5.106   3.828   9.706  0.2184 -0.0560 -0.3309
   85SAPS  H12R 8073   5.174   3.876   9.634 -0.6283  1.0881 -0.3792
   85SAPS  C213 8074   4.970   3.764   9.667 -0.2495  1.3876  0.0725
   85SAPS  H13R 8075   4.893   3.844   9.658  1.2838  2.7853 -1.2575
   85SAPS  H13S 8076   4.928   3.698   9.746  0.7928  1.3923  0.6540
   85SAPS  C214 8077   4.994   3.691   9.537  0.0974  0.0254  0.4533
   85SAPS  H14R 8078   5.012   3.583   9.547 -1.5742 -0.6868 -2.7892
   85SAPS  C215 8079   4.996   3.742   9.412  0.0777 -0.2739  0.7573
   85SAPS  H15R 8080   5.000   3.667   9.331  0.4316  0.6929 -0.1486
   85SAPS  C216 8081   4.975   3.889   9.376  0.8006 -0.1310  0.5910
   85SAPS  H16R 8082   5.062   3.934   9.323  0.0023  0.4401 -0.2837
   85SAPS  H16S 8083   4.945   3.948   9.465 -0.3004  0.7097 -0.2944
   85SAPS  C217 8084   4.852   3.896   9.279 -0.0068 -0.8979  0.4260
   85SAPS  H17R 8085   4.816   4.000   9.263  0.0463 -0.9120  0.2179
   85SAPS  H17S 8086   4.761   3.841   9.311  0.0360 -0.4400  1.3784
   85SAPS  C218 8087   4.890   3.854   9.135  0.9980  0.0130  0.5221
   85SAPS  H18R 8088   4.828   3.764   9.114  1.8011 -0.2000 -1.0952
   85SAPS  H18S 8089   4.995   3.822   9.118  0.7278 -1.3948  1.3047
   85SAPS  C219 8090   4.854   3.957   9.029 -0.0614 -0.7362 -0.3912
   85SAPS  H19R 8091   4.926   4.041   9.032 -0.1972 -0.4285 -3.1464
   85SAPS  H19S 8092   4.760   4.013   9.051  1.1334  0.9645  0.6025
   85SAPS  C220 8093   4.872   3.895   8.885 -0.3491 -0.4829 -0.1962
   85SAPS  H20R 8094   4.788   3.917   8.815  0.2247 -2.5758 -1.6325
   85SAPS  H20S 8095   4.885   3.785   8.882  0.5300 -0.3802 -0.3228
   85SAPS  H20T 8096   4.954   3.953   8.838  0.5339 -0.5463  1.2079
   85SAPS   C33 8097   4.733   3.963  10.463  0.8910 -0.3963 -0.3585
   85SAPS   H3X 8098   4.790   4.056  10.484 -1.6134  0.9896  0.7384
   85SAPS   H3Y 8099   4.630   4.002  10.477  1.7626  2.2964 -0.8062
   85SAPS   C34 8100   4.747   3.927  10.312 -0.1405 -0.0905  0.7364
   85SAPS   H4X 8101   4.700   3.829  10.288  2.1322 -1.4164  1.3611
   85SAPS   H4Y 8102   4.853   3.912  10.282 -0.5960  0.2119 -1.1283
   85SAPS   C35 8103   4.693   4.034  10.221 -0.3796  0.2737 -0.3276
   85SAPS   H5X 8104   4.715   4.132  10.269 -1.5169  0.2315  0.3096
   85SAPS   H5Y 8105   4.585   4.020  10.200 -0.0252 -2.4745 -0.7069
   85SAPS   C36 8106   4.753   4.040  10.082 -0.4756  0.8514  0.3645
   85SAPS   H6X 8107   4.853   3.993  10.078 -0.8476  0.1087 -0.9494
   85SAPS   H6Y 8108   4.766   4.147  10.053  0.3738  0.7800  0.4690
   85SAPS   C37 8109   4.666   3.965   9.975 -0.6904 -0.3894  0.0465
   85SAPS   H7X 8110   4.559   3.971  10.006 -0.1794 -1.1398  2.1150
   85SAPS   H7Y 8111   4.685   3.856   9.990 -0.6838 -0.2931  0.7549
   85SAPS   C38 8112   4.685   4.011   9.826 -0.1006 -0.5456  1.0333
   85SAPS   H8X 8113   4.779   3.967   9.785  1.0168  1.3156  1.4766
   85SAPS   H8Y 8114   4.679   4.121   9.842  1.3129 -0.2057 -0.5169
   85SAPS   C39 8115   4.576   3.957   9.730  0.4752 -0.2377  0.6743
   85SAPS   H9X 8116   4.478   3.991   9.768  1.1433 -0.1654  2.4366
   85SAPS   H9Y 8117   4.570   3.847   9.722 -2.0048 -0.1730  0.9394
   85SAPS  C310 8118   4.583   4.036   9.591 -0.2892  0.2559 -0.6764
   85SAPS  H10X 8119   4.676   3.996   9.546  0.2237 -1.2670  1.5593
   85SAPS  H10Y 8120   4.583   4.145   9.610 -2.7237  0.0089  1.2605
   85SAPS  C311 8121   4.463   4.012   9.494 -0.2584  0.0759  0.7589
   85SAPS  H11X 8122   4.371   4.069   9.520  0.2539  2.2026 -1.6858
   85SAPS  H11Y 8123   4.431   3.906   9.489 -2.2731  0.6671 -3.1485
   85SAPS  C312 8124   4.485   4.060   9.347 -0.1085  0.2627 -0.1808
   85SAPS  H12X 8125   4.568   3.994   9.316 -0.4141  0.4604 -1.4742
   85SAPS  H12Y 8126   4.518   4.166   9.349  2.9763 -0.6073  1.5428
   85SAPS  C313 8127   4.365   4.030   9.267 -0.0295 -1.2256  0.7452
   85SAPS  H13X 8128   4.274   4.084   9.297  1.3736  1.0192  1.1937
   85SAPS  H13Y 8129   4.340   3.922   9.282  1.4191 -1.7778 -0.5470
   85SAPS  C314 8130   4.393   4.051   9.119  0.0263 -0.2185 -0.4325
   85SAPS  H14X 8131   4.462   3.968   9.093  0.8078 -0.9729  3.3585
   85SAPS  H14Y 8132   4.451   4.146   9.109  0.5898 -0.4815  0.2139
   85SAPS  C315 8133   4.267   4.046   9.034 -0.0386 -0.1543 -0.0194
   85SAPS  H15X 8134   4.200   4.131   9.057 -0.2917 -0.5573  0.7537
   85SAPS  H15Y 8135   4.207   3.957   9.062 -0.5680  0.0403 -0.5132
   85SAPS  C316 8136   4.307   4.050   8.886  1.1136  0.5911  0.5481
   85SAPS  H16X 8137   4.400   4.000   8.854  0.3798  0.8922 -2.2812
   85SAPS  H16Y 8138   4.322   4.159   8.868  1.2983  0.3138 -1.0563
   85SAPS  C317 8139   4.197   3.999   8.793  0.6133  0.2092  0.2778
   85SAPS  H17X 8140   4.163   3.898   8.825  1.5509 -0.2572 -0.1479
   85SAPS  H17Y 8141   4.234   3.998   8.688 -1.3937  0.4933 -0.4754
   85SAPS  C318 8142   4.078   4.094   8.787 -0.1777  0.1070  0.5463
   85SAPS  H18X 8143   4.018   4.075   8.878 -1.5959 -4.6507 -1.0438
   85SAPS  H18Y 8144   4.013   4.065   8.701 -1.3794 -1.1282  1.8001
   85SAPS  H18Z 8145   4.102   4.201   8.772  0.1630  0.3572  2.6744
   86SAPS     N 8146   0.485   3.097  10.950 -0.0849 -0.2720 -0.0320
   86SAPS   HN1 8147   0.384   3.112  10.934 -0.4281 -0.5676  1.7229
   86SAPS   HN2 8148   0.505   3.069  11.048  1.4986  1.2610  0.1402
   86SAPS   HN3 8149   0.532   3.187  10.928 -0.9368  0.0507 -0.5488
   86SAPS   C12 8150   0.543   2.989  10.857 -0.5033  0.4555 -0.3850
   86SAPS  H12A 8151   0.495   2.990  10.760 -2.0344 -0.2434  0.3487
   86SAPS   C13 8152   0.693   2.992  10.831 -0.1427  0.5382  0.1447
   86SAPS  O13A 8153   0.766   3.073  10.896 -0.1179  0.6140 -0.6210
   86SAPS  O13B 8154   0.736   2.916  10.740 -0.3049  0.6882  0.2444
   86SAPS   C11 8155   0.510   2.857  10.916 -0.6588  0.2682  0.5564
   86SAPS  H11A 8156   0.563   2.842  11.013  3.0103 -0.4365 -1.3642
   86SAPS  H11B 8157   0.541   2.776  10.847 -0.5215 -0.7356  1.7421
   86SAPS     P 8158   0.291   2.705  10.936 -0.4139 -0.3270 -0.2325
   86SAPS   O13 8159   0.354   2.620  11.041 -0.1823 -0.1165  0.9679
   86SAPS   O14 8160   0.146   2.722  10.947  0.1783  0.5080  0.0990
   86SAPS   O12 8161   0.373   2.844  10.932  0.4501 -0.1567  0.6291
   86SAPS   O11 8162   0.322   2.634  10.796 -0.0105 -0.2100  0.4774
   86SAPS    C1 8163   0.242   2.678  10.688 -0.0079  0.2165 -0.4377
   86SAPS    HA 8164   0.152   2.614  10.675 -0.3577  0.3651  1.1187
   86SAPS    HB 8165   0.209   2.784  10.701 -2.1072 -0.3418 -0.8389
   86SAPS    C2 8166   0.312   2.661  10.553  0.1504  1.2529  0.4119
   86SAPS    HS 8167   0.249   2.699  10.470 -0.1311 -3.3286 -1.8008
   86SAPS   O21 8168   0.347   2.522  10.527  0.2095 -0.2988  0.0072
   86SAPS   C21 8169   0.245   2.444  10.493 -0.0382  0.2625  0.0374
   86SAPS   O22 8170   0.132   2.476  10.462  0.6650  0.2979  0.1207
   86SAPS   C22 8171   0.307   2.304  10.495  0.1982  0.4755  0.7231
   86SAPS   H2R 8172   0.331   2.288  10.602  0.8231  1.8977  0.8266
   86SAPS   H2S 8173   0.225   2.235  10.464 -0.2782  1.9695 -1.6497
   86SAPS    C3 8174   0.441   2.749  10.545  0.1674  0.7404  0.8726
   86SAPS    HX 8175   0.509   2.727  10.631  3.1690 -0.9348 -1.7272
   86SAPS    HY 8176   0.400   2.852  10.551 -3.0790 -0.0515 -3.3516
   86SAPS   O31 8177   0.505   2.724  10.418  0.4309 -0.6754  0.1242
   86SAPS   C31 8178   0.601   2.636  10.411 -0.3432  0.3129 -0.3078
   86SAPS   O32 8179   0.642   2.568  10.508  0.5288  0.1456  0.2356
   86SAPS   C32 8180   0.653   2.630  10.266 -0.7102  0.2413 -0.1992
   86SAPS   H2X 8181   0.589   2.564  10.204 -0.5963 -0.1760  0.1242
   86SAPS   H2Y 8182   0.754   2.584  10.276 -0.9493 -0.8129 -2.0759
   86SAPS   C23 8183   0.433   2.273  10.402  0.4920 -0.1082 -0.2781
   86SAPS   H3R 8184   0.486   2.176  10.413  3.3547  1.5303  1.7701
   86SAPS   H3S 8185   0.505   2.347  10.444 -2.3183  1.4340  2.2439
   86SAPS   C24 8186   0.403   2.312  10.254 -0.4297 -0.0513  0.2458
   86SAPS   H4R 8187   0.391   2.422  10.249 -0.1183 -0.0020  0.5921
   86SAPS   H4S 8188   0.306   2.269  10.218  0.7333 -1.3753 -1.4947
   86SAPS   C25 8189   0.506   2.269  10.155 -1.1363  0.2970  0.7824
   86SAPS   H5R 8190   0.591   2.213  10.196  0.8770  0.9790 -2.1174
   86SAPS   C26 8191   0.512   2.311  10.024  0.0702 -0.1362 -0.8101
   86SAPS   H6R 8192   0.602   2.287   9.965 -0.0255 -0.9046 -0.6601
   86SAPS   C27 8193   0.411   2.383   9.943  0.3915 -0.2591 -0.0298
   86SAPS   H7R 8194   0.309   2.351   9.973  1.3432 -2.8005  0.8300
   86SAPS   H7S 8195   0.426   2.361   9.835  1.6866  2.5527 -0.5082
   86SAPS   C28 8196   0.428   2.532   9.976  0.1914 -0.0613 -0.1547
   86SAPS   H8R 8197   0.392   2.566  10.075  0.0969  0.2217 -0.2855
   86SAPS   C29 8198   0.475   2.626   9.897  0.0646  0.4577  0.2049
   86SAPS   H9R 8199   0.472   2.729   9.937  0.1609  0.8807 -0.8360
   86SAPS  C210 8200   0.522   2.603   9.755  0.2644  0.1601  0.7108
   86SAPS  H10R 8201   0.574   2.505   9.756  1.7912  0.9405  0.5202
   86SAPS  H10S 8202   0.604   2.672   9.728  0.2133  0.7704  2.0155
   86SAPS  C211 8203   0.403   2.617   9.659  0.2313 -0.2222  0.2421
   86SAPS  H11R 8204   0.314   2.558   9.685  0.2245  0.0302  0.8168
   86SAPS  C212 8205   0.405   2.680   9.537  0.0171  0.6627 -0.3052
   86SAPS  H12R 8206   0.313   2.684   9.476  0.5347 -0.1692 -1.1671
   86SAPS  C213 8207   0.518   2.748   9.462 -0.0397 -0.4816  0.0919
   86SAPS  H13R 8208   0.574   2.797   9.544 -2.4656 -0.1183  1.6301
   86SAPS  H13S 8209   0.482   2.835   9.403  3.2898 -0.0531 -1.5534
   86SAPS  C214 8210   0.607   2.665   9.378 -0.2601 -0.6186 -0.0271
   86SAPS  H14R 8211   0.603   2.560   9.413 -0.0977 -0.5028  0.3406
   86SAPS  C215 8212   0.670   2.701   9.265 -0.4915 -1.4789 -0.2090
   86SAPS  H15R 8213   0.709   2.620   9.201  0.5594 -1.7646  0.7551
   86SAPS  C216 8214   0.664   2.845   9.197 -0.0680  0.7666  0.4384
   86SAPS  H16R 8215   0.682   2.913   9.283 -0.0331 -1.5789  2.3916
   86SAPS  H16S 8216   0.565   2.862   9.150 -0.9652 -1.8166  1.2134
   86SAPS  C217 8217   0.783   2.860   9.104  0.4015 -0.1501  0.1829
   86SAPS  H17R 8218   0.875   2.861   9.166  1.4533 -0.4122 -1.3226
   86SAPS  H17S 8219   0.775   2.957   9.050  3.1173 -0.9161 -1.8009
   86SAPS  C218 8220   0.801   2.761   8.991 -0.6406  0.5095 -0.4052
   86SAPS  H18R 8221   0.698   2.742   8.953 -0.7119  0.9017 -0.4095
   86SAPS  H18S 8222   0.841   2.668   9.038 -0.7942  0.3230 -0.6435
   86SAPS  C219 8223   0.891   2.796   8.880  0.3995  0.1616 -0.3409
   86SAPS  H19R 8224   0.990   2.817   8.927  1.1100 -0.7507 -1.3883
   86SAPS  H19S 8225   0.864   2.891   8.829 -1.8822 -0.7816 -1.0017
   86SAPS  C220 8226   0.903   2.687   8.772 -0.8093  0.0021 -0.4071
   86SAPS  H20R 8227   0.992   2.721   8.716  0.8818  1.1270  2.7259
   86SAPS  H20S 8228   0.809   2.669   8.715 -0.8138 -1.7212  0.0799
   86SAPS  H20T 8229   0.942   2.589   8.807  3.5863  1.7121  0.0595
   86SAPS   C33 8230   0.672   2.768  10.197 -0.1809 -0.4776 -0.2058
   86SAPS   H3X 8231   0.706   2.828  10.284 -1.1005 -1.7949  1.1070
   86SAPS   H3Y 8232   0.573   2.812  10.170  0.1732  0.4930  0.0361
   86SAPS   C34 8233   0.774   2.766  10.080  0.2081 -0.7986 -0.3965
   86SAPS   H4X 8234   0.735   2.686  10.013  0.1050 -1.3280  0.2848
   86SAPS   H4Y 8235   0.876   2.742  10.116  0.6909  1.6419  0.0513
   86SAPS   C35 8236   0.777   2.905  10.010  0.6764 -0.0347 -0.6719
   86SAPS   H5X 8237   0.776   2.987  10.085 -0.5905 -0.0271 -0.6759
   86SAPS   H5Y 8238   0.680   2.907   9.956  0.5134 -1.2366 -0.4549
   86SAPS   C36 8239   0.890   2.921   9.908  0.1466  0.4310  0.1767
   86SAPS   H6X 8240   0.992   2.901   9.947 -0.0570  0.4522  0.7309
   86SAPS   H6Y 8241   0.894   3.031   9.892 -1.0964  0.2631 -1.5698
   86SAPS   C37 8242   0.861   2.842   9.783  0.6368  0.1107  0.2211
   86SAPS   H7X 8243   0.771   2.885   9.733  0.8407  0.3726  0.0732
   86SAPS   H7Y 8244   0.847   2.736   9.812 -0.4122  0.0147 -0.5850
   86SAPS   C38 8245   0.974   2.862   9.684  0.4722  0.3118 -0.2659
   86SAPS   H8X 8246   1.067   2.858   9.745  0.6946  1.0458 -0.5518
   86SAPS   H8Y 8247   0.956   2.967   9.655 -0.6469 -0.0222 -0.8419
   86SAPS   C39 8248   0.980   2.758   9.569 -0.3754 -0.2113  0.2750
   86SAPS   H9X 8249   0.882   2.743   9.519 -0.2622 -0.8409  0.2441
   86SAPS   H9Y 8250   1.010   2.656   9.600 -0.6450 -1.0596 -2.0318
   86SAPS  C310 8251   1.071   2.809   9.461  0.3171 -0.1509 -0.0825
   86SAPS  H10X 8252   1.176   2.826   9.492 -0.0943  0.9338  0.7379
   86SAPS  H10Y 8253   1.031   2.902   9.417  1.6369 -0.0409 -1.1303
   86SAPS  C311 8254   1.076   2.709   9.346 -0.4217 -0.3664 -0.1598
   86SAPS  H11X 8255   0.971   2.699   9.310 -0.7150 -1.0196  0.8384
   86SAPS  H11Y 8256   1.109   2.606   9.373  0.2504  0.3613  2.0567
   86SAPS  C312 8257   1.167   2.753   9.231  0.9569 -0.4086  0.4023
   86SAPS  H12X 8258   1.268   2.783   9.265 -0.5219  1.9486  3.1538
   86SAPS  H12Y 8259   1.124   2.844   9.184  0.9992 -0.0997  0.9577
   86SAPS  C313 8260   1.164   2.645   9.128  0.0102  0.0932 -0.4951
   86SAPS  H13X 8261   1.192   2.684   9.028  0.5601  1.5500  0.1933
   86SAPS  H13Y 8262   1.056   2.622   9.113 -0.3063  1.1346  0.0294
   86SAPS  C314 8263   1.265   2.532   9.158 -0.0698 -0.0391 -0.3289
   86SAPS  H14X 8264   1.241   2.505   9.263  0.3732 -0.4639 -0.3359
   86SAPS  H14Y 8265   1.363   2.583   9.164 -0.5755  0.9917 -0.4855
   86SAPS  C315 8266   1.259   2.408   9.063 -0.3680 -0.1738  0.5471
   86SAPS  H15X 8267   1.295   2.446   8.965  2.8667  0.6001  1.8844
   86SAPS  H15Y 8268   1.152   2.382   9.055 -0.6892  1.0828  0.5772
   86SAPS  C316 8269   1.340   2.290   9.116 -0.4406  0.4224 -0.6099
   86SAPS  H16X 8270   1.313   2.274   9.223 -1.3547 -2.5032 -1.1846
   86SAPS  H16Y 8271   1.449   2.305   9.121  0.1093 -2.9451 -0.3228
   86SAPS  C317 8272   1.303   2.154   9.057 -0.7149 -0.0877 -0.2284
   86SAPS  H17X 8273   1.315   2.152   8.946 -0.2219 -2.9051 -0.1864
   86SAPS  H17Y 8274   1.200   2.129   9.090 -0.3265 -0.9546  0.3549
   86SAPS  C318 8275   1.389   2.038   9.116 -0.0285  0.2508 -0.9741
   86SAPS  H18X 8276   1.495   2.056   9.088 -0.1962  1.5923 -0.7874
   86SAPS  H18Y 8277   1.366   1.939   9.070  3.7589 -0.4934 -1.6140
   86SAPS  H18Z 8278   1.374   2.023   9.225 -0.7277 -2.7695 -1.3814
   87SAPS     N 8279   0.810   3.275  11.053  0.1473  0.0972  0.3463
   87SAPS   HN1 8280   0.796   3.188  10.997  2.3182 -0.0746  0.0137
   87SAPS   HN2 8281   0.796   3.248  11.153  1.7119 -1.4348  0.2103
   87SAPS   HN3 8282   0.751   3.352  11.017  0.8547  0.4561 -0.0660
   87SAPS   C12 8283   0.950   3.315  11.041 -0.2031  0.1100  0.0270
   87SAPS  H12A 8284   0.954   3.396  11.112 -0.4474  0.6764 -0.5979
   87SAPS   C13 8285   1.053   3.209  11.066 -0.9869 -0.4784 -0.1179
   87SAPS  O13A 8286   1.004   3.091  11.068  0.3280 -0.5642 -0.3551
   87SAPS  O13B 8287   1.172   3.227  11.093 -0.5304  0.2955  0.3056
   87SAPS   C11 8288   0.964   3.373  10.902  0.0734 -0.0509  0.2859
   87SAPS  H11A 8289   0.945   3.296  10.825  2.7425 -1.4272  0.8860
   87SAPS  H11B 8290   1.067   3.409  10.879 -1.1781  2.1976 -2.4250
   87SAPS     P 8291   0.876   3.584  10.756  0.2739 -0.1234  0.0177
   87SAPS   O13 8292   0.752   3.670  10.759 -0.5151  0.5570  0.0647
   87SAPS   O14 8293   1.002   3.660  10.741 -0.0705 -0.2541  0.7516
   87SAPS   O12 8294   0.887   3.498  10.887 -0.4458  0.3534 -0.5955
   87SAPS   O11 8295   0.857   3.471  10.650  0.0921  0.3165  0.3261
   87SAPS    C1 8296   0.963   3.439  10.554 -0.1771  0.1312  0.4417
   87SAPS    HA 8297   1.065   3.437  10.599  0.3293  0.2159 -0.6730
   87SAPS    HB 8298   0.944   3.335  10.521 -0.5768  0.5032 -0.5556
   87SAPS    C2 8299   0.951   3.522  10.422 -0.4103  0.8494 -0.3479
   87SAPS    HS 8300   0.961   3.628  10.455  2.3605  0.8147 -0.8724
   87SAPS   O21 8301   0.827   3.494  10.358  0.4848  0.0643 -1.0588
   87SAPS   C21 8302   0.746   3.594  10.349 -0.1053 -0.0184  0.0967
   87SAPS   O22 8303   0.778   3.711  10.365  0.3338  0.0940 -0.2298
   87SAPS   C22 8304   0.605   3.556  10.312  0.2631 -0.6889  0.2006
   87SAPS   H2R 8305   0.592   3.447  10.329  0.6999 -0.5026  1.9369
   87SAPS   H2S 8306   0.553   3.613  10.391  0.5146  1.1144 -0.8623
   87SAPS    C3 8307   1.076   3.490  10.334  0.4947  0.2344 -0.8837
   87SAPS    HX 8308   1.091   3.380  10.331  2.5769  0.0998  4.2131
   87SAPS    HY 8309   1.168   3.529  10.383  1.0226 -1.8071 -0.1607
   87SAPS   O31 8310   1.063   3.541  10.201 -0.6077  0.3580  0.2597
   87SAPS   C31 8311   1.140   3.646  10.171 -0.2678  0.4147 -0.3212
   87SAPS   O32 8312   1.211   3.705  10.249 -0.2168 -0.7649 -0.0953
   87SAPS   C32 8313   1.129   3.676  10.020  0.0691 -0.3106  0.0734
   87SAPS   H2X 8314   1.020   3.682   9.998  0.7297 -0.6540 -4.0624
   87SAPS   H2Y 8315   1.179   3.607   9.949  1.2492 -0.0362  0.6051
   87SAPS   C23 8316   0.552   3.615  10.181 -0.3121 -0.6146 -0.2181
   87SAPS   H3R 8317   0.546   3.726  10.184 -1.2191 -0.5821 -1.8144
   87SAPS   H3S 8318   0.453   3.566  10.168 -2.3880  3.3018 -0.6891
   87SAPS   C24 8319   0.625   3.574  10.057  0.2795 -0.8872 -0.0509
   87SAPS   H4R 8320   0.549   3.552   9.979  0.5206  1.3930 -1.0068
   87SAPS   H4S 8321   0.676   3.476  10.072  2.1529  0.4757  4.1688
   87SAPS   C25 8322   0.732   3.670  10.007  0.3796  0.5103 -0.0074
   87SAPS   H5R 8323   0.794   3.718  10.085 -0.4270 -0.3498  1.2086
   87SAPS   C26 8324   0.762   3.694   9.876  0.0142 -0.4264  0.1426
   87SAPS   H6R 8325   0.831   3.777   9.857 -2.2836  1.1922 -1.7272
   87SAPS   C27 8326   0.706   3.641   9.754 -0.5832 -0.3516 -0.6967
   87SAPS   H7R 8327   0.644   3.717   9.701 -0.9280  0.7781  1.2610
   87SAPS   H7S 8328   0.641   3.553   9.774 -2.0254 -0.1072 -3.7171
   87SAPS   C28 8329   0.817   3.601   9.660  0.1569 -0.4781  0.2417
   87SAPS   H8R 8330   0.915   3.579   9.705  0.8016 -1.2356 -1.4595
   87SAPS   C29 8331   0.795   3.590   9.531  0.3181  0.1910 -0.4710
   87SAPS   H9R 8332   0.877   3.565   9.461  0.8619  1.1489 -0.1880
   87SAPS  C210 8333   0.668   3.610   9.452  0.2149  0.5880  0.2450
   87SAPS  H10R 8334   0.582   3.600   9.521  0.7159 -1.1839  0.6797
   87SAPS  H10S 8335   0.671   3.520   9.386  0.0744  1.1914 -0.5977
   87SAPS  C211 8336   0.676   3.745   9.381  0.0807 -0.6233  0.0263
   87SAPS  H11R 8337   0.639   3.827   9.444 -0.4266 -0.7387 -0.1178
   87SAPS  C212 8338   0.713   3.777   9.250  0.1700  0.1117 -0.2002
   87SAPS  H12R 8339   0.721   3.885   9.229 -0.3676  0.1241 -0.3539
   87SAPS  C213 8340   0.755   3.677   9.150  0.2648  0.4836 -0.1331
   87SAPS  H13R 8341   0.770   3.576   9.194  0.1199  0.5181 -0.0042
   87SAPS  H13S 8342   0.855   3.713   9.118  1.0184  0.7043  2.2716
   87SAPS  C214 8343   0.653   3.674   9.041 -0.1300  0.5313 -0.2087
   87SAPS  H14R 8344   0.570   3.607   9.067 -0.0709  0.1973 -0.8410
   87SAPS  C215 8345   0.652   3.756   8.933 -0.1516 -0.4268 -0.3071
   87SAPS  H15R 8346   0.568   3.742   8.864 -0.0035 -1.7990 -0.2339
   87SAPS  C216 8347   0.747   3.867   8.901 -0.4543  0.8678  0.2832
   87SAPS  H16R 8348   0.816   3.900   8.982 -1.1702 -1.3139  1.8799
   87SAPS  H16S 8349   0.694   3.962   8.876  1.6990  2.0454 -0.0363
   87SAPS  C217 8350   0.836   3.819   8.785 -0.1744  0.3813 -0.4730
   87SAPS  H17R 8351   0.909   3.739   8.810  0.8087  1.2353 -0.5356
   87SAPS  H17S 8352   0.882   3.913   8.750  0.3420  0.3344  0.0694
   87SAPS  C218 8353   0.750   3.759   8.668  0.4572 -0.4134 -0.6120
   87SAPS  H18R 8354   0.669   3.830   8.641 -0.4766 -0.5042  1.7543
   87SAPS  H18S 8355   0.704   3.664   8.703 -0.6471  0.4577  0.3847
   87SAPS  C219 8356   0.833   3.732   8.545  0.0697 -0.3205  0.1737
   87SAPS  H19R 8357   0.888   3.822   8.511  0.2903 -0.5298 -0.0314
   87SAPS  H19S 8358   0.765   3.709   8.460  2.1452  1.5342 -2.1694
   87SAPS  C220 8359   0.935   3.614   8.548  0.1832 -0.4087 -0.2067
   87SAPS  H20R 8360   1.010   3.644   8.624 -2.1563 -0.6983  2.3868
   87SAPS  H20S 8361   0.975   3.603   8.446 -0.3122 -0.3339 -0.4135
   87SAPS  H20T 8362   0.884   3.521   8.582 -0.4999 -0.6568 -1.8394
   87SAPS   C33 8363   1.180   3.823   9.989  0.1185  0.2299  0.0252
   87SAPS   H3X 8364   1.290   3.824   9.982  0.5241 -0.9832  3.6587
   87SAPS   H3Y 8365   1.137   3.882  10.073  1.5281  0.5561  0.5412
   87SAPS   C34 8366   1.126   3.868   9.849 -0.1070 -0.1206 -0.0943
   87SAPS   H4X 8367   1.173   3.968   9.833  0.6783 -0.6143 -0.9539
   87SAPS   H4Y 8368   1.015   3.868   9.854 -0.0855 -2.3344  2.4280
   87SAPS   C35 8369   1.173   3.776   9.736 -0.4863  0.3035  0.6124
   87SAPS   H5X 8370   1.134   3.673   9.751  2.2671 -0.8991  0.1186
   87SAPS   H5Y 8371   1.284   3.769   9.739 -0.3688 -0.0384 -2.3164
   87SAPS   C36 8372   1.140   3.830   9.599 -0.2368  0.0515 -0.0989
   87SAPS   H6X 8373   1.198   3.924   9.588  0.3935  0.0112  2.2862
   87SAPS   H6Y 8374   1.035   3.857   9.575 -0.2617 -0.8463 -1.0918
   87SAPS   C37 8375   1.179   3.732   9.483  0.4878 -0.3891  0.5157
   87SAPS   H7X 8376   1.094   3.667   9.455  1.1069 -0.1579 -2.2070
   87SAPS   H7Y 8377   1.267   3.668   9.505 -0.3924 -1.9434 -0.3002
   87SAPS   C38 8378   1.212   3.813   9.352  0.5167 -0.2684  0.1044
   87SAPS   H8X 8379   1.290   3.889   9.372  0.8329  0.2446 -2.7080
   87SAPS   H8Y 8380   1.120   3.867   9.322  0.9291  0.4982  0.2076
   87SAPS   C39 8381   1.251   3.734   9.225  0.1795  0.3849 -0.1166
   87SAPS   H9X 8382   1.160   3.689   9.181 -1.6214 -0.4332  3.9182
   87SAPS   H9Y 8383   1.317   3.652   9.264 -2.5326 -2.6891 -1.5453
   87SAPS  C310 8384   1.322   3.815   9.120  0.7070 -0.2038  0.2459
   87SAPS  H10X 8385   1.387   3.755   9.053  0.8817  1.8121 -1.5058
   87SAPS  H10Y 8386   1.387   3.893   9.164  1.6074 -0.9858  0.3316
   87SAPS  C311 8387   1.237   3.900   9.018 -0.1911  0.1209  0.5938
   87SAPS  H11X 8388   1.205   3.996   9.065  0.3983  0.1348  0.9786
   87SAPS  H11Y 8389   1.152   3.833   8.993  2.1247 -2.7657 -0.1140
   87SAPS  C312 8390   1.307   3.926   8.882  0.2038  0.6743 -0.3550
   87SAPS  H12X 8391   1.358   3.838   8.839 -0.0218  0.5744 -0.4207
   87SAPS  H12Y 8392   1.384   4.006   8.889 -1.2803  2.0557  1.2323
   87SAPS  C313 8393   1.206   3.984   8.784  0.1302 -0.0038 -0.0202
   87SAPS  H13X 8394   1.196   4.094   8.791  1.8913  0.3053 -1.2988
   87SAPS  H13Y 8395   1.103   3.944   8.783 -0.3010  1.0388 -1.3044
   87SAPS  C314 8396   1.270   3.982   8.640  0.0977  1.1625 -0.1105
   87SAPS  H14X 8397   1.298   3.877   8.620  1.3867  1.3891  0.4449
   87SAPS  H14Y 8398   1.372   4.023   8.628  0.4795 -0.1709 -1.8744
   87SAPS  C315 8399   1.181   4.020   8.517 -0.3235  0.2433 -1.4666
   87SAPS  H15X 8400   1.130   4.118   8.531  0.1494  0.5791 -2.0628
   87SAPS  H15Y 8401   1.094   3.951   8.514  0.8847 -1.3215 -1.9304
   87SAPS  C316 8402   1.255   4.031   8.390  0.4407  0.0513  0.6549
   87SAPS  H16X 8403   1.342   4.098   8.402  0.3339  0.7411 -1.8465
   87SAPS  H16Y 8404   1.191   4.078   8.312 -2.4356  0.0762  2.8346
   87SAPS  C317 8405   1.306   3.892   8.346  0.3845  0.4335  0.4900
   87SAPS  H17X 8406   1.218   3.825   8.333  0.5684 -0.1517  2.0398
   87SAPS  H17Y 8407   1.373   3.849   8.424  1.1871 -0.4341 -0.6494
   87SAPS  C318 8408   1.391   3.896   8.214 -0.4282  0.4713  0.5236
   87SAPS  H18X 8409   1.412   3.798   8.167 -1.4929  0.8782 -0.8897
   87SAPS  H18Y 8410   1.486   3.951   8.229  0.9157 -1.3219 -1.0994
   87SAPS  H18Z 8411   1.328   3.955   8.144  0.8876  0.8332 -0.3835
   88SAPS     N 8412   4.063   3.690  11.092  0.6183  0.0768  0.0802
   88SAPS   HN1 8413   4.140   3.683  11.023  0.5101  0.4873 -0.0865
   88SAPS   HN2 8414   3.971   3.707  11.047  1.4395  1.3016 -1.2140
   88SAPS   HN3 8415   4.067   3.774  11.153 -2.8697  0.0057  0.6334
   88SAPS   C12 8416   4.052   3.576  11.181 -0.1945 -0.4641  0.0766
   88SAPS  H12A 8417   4.143   3.574  11.240 -0.4641  3.3994  0.8754
   88SAPS   C13 8418   3.935   3.599  11.286 -0.4955 -0.0851 -0.0651
   88SAPS  O13A 8419   3.858   3.690  11.264 -0.6761  0.0504  0.2319
   88SAPS  O13B 8420   3.914   3.517  11.382 -0.7183  0.0170  0.2217
   88SAPS   C11 8421   4.030   3.436  11.109  0.0125  0.8066  0.0911
   88SAPS  H11A 8422   3.998   3.362  11.186 -1.1368 -1.2020 -2.2009
   88SAPS  H11B 8423   4.123   3.406  11.056 -1.6892 -0.6479 -2.2321
   88SAPS     P 8424   3.906   3.326  10.901 -0.3480 -0.1156  0.2168
   88SAPS   O13 8425   3.951   3.191  10.944  0.3371  0.3429  0.1484
   88SAPS   O14 8426   3.767   3.337  10.846  0.1509 -0.0714  0.3745
   88SAPS   O12 8427   3.918   3.441  11.014 -0.2510 -0.4423 -0.0665
   88SAPS   O11 8428   3.994   3.376  10.781 -0.1308 -0.1823 -0.2544
   88SAPS    C1 8429   4.046   3.509  10.766 -0.0136  0.4051  0.0620
   88SAPS    HA 8430   3.972   3.588  10.741 -0.2732 -0.3218 -1.6479
   88SAPS    HB 8431   4.091   3.535  10.864  0.8817  1.4365 -0.5846
   88SAPS    C2 8432   4.163   3.523  10.662 -0.6421 -0.2744  0.5060
   88SAPS    HS 8433   4.187   3.630  10.639 -2.6653 -0.2774 -1.9657
   88SAPS   O21 8434   4.131   3.464  10.537 -0.2070  0.5732 -0.4510
   88SAPS   C21 8435   4.051   3.537  10.462 -0.3737  0.3559 -0.1762
   88SAPS   O22 8436   4.017   3.654  10.467 -0.0557  0.2165 -0.0955
   88SAPS   C22 8437   4.012   3.436  10.361  0.1690 -0.4560  0.5073
   88SAPS   H2R 8438   4.101   3.381  10.323 -0.3254 -0.4123 -0.7695
   88SAPS   H2S 8439   3.945   3.362  10.409 -1.1946  1.0194  0.9538
   88SAPS    C3 8440   4.298   3.456  10.721  0.7220 -0.2496 -0.2798
   88SAPS    HX 8441   4.265   3.350  10.723 -1.3966  0.3624 -0.6887
   88SAPS    HY 8442   4.320   3.494  10.823  0.9553  0.3302 -0.5404
   88SAPS   O31 8443   4.413   3.498  10.642 -0.3836  0.5720  0.0151
   88SAPS   C31 8444   4.509   3.408  10.647 -0.5354  0.5103 -0.3324
   88SAPS   O32 8445   4.505   3.296  10.682 -0.6136 -0.2565 -0.1639
   88SAPS   C32 8446   4.643   3.479  10.617 -0.1493 -0.5295  0.0757
   88SAPS   H2X 8447   4.709   3.443  10.700 -2.7978 -3.8451  0.9549
   88SAPS   H2Y 8448   4.625   3.589  10.615  0.4156 -0.4197  0.5090
   88SAPS   C23 8449   3.920   3.495  10.261 -0.7416 -0.1576  0.7056
   88SAPS   H3R 8450   3.980   3.553  10.188 -2.0559 -0.3091 -0.5398
   88SAPS   H3S 8451   3.851   3.569  10.308 -0.9008  0.0822  0.1066
   88SAPS   C24 8452   3.834   3.383  10.192  0.4799  0.0220  1.0651
   88SAPS   H4R 8453   3.752   3.423  10.128  3.3778 -0.8545 -3.6382
   88SAPS   H4S 8454   3.770   3.332  10.268 -1.4539  0.2160 -0.3416
   88SAPS   C25 8455   3.912   3.299  10.099  0.0780 -0.3867  0.3222
   88SAPS   H5R 8456   3.951   3.206  10.144 -0.4524 -1.0054 -0.4679
   88SAPS   C26 8457   3.915   3.311   9.968 -0.2297  0.0882 -0.3145
   88SAPS   H6R 8458   3.983   3.243   9.914  0.2970  0.3062  0.0682
   88SAPS   C27 8459   3.857   3.426   9.895  0.2619 -0.6300  0.2033
   88SAPS   H7R 8460   3.935   3.466   9.826  0.3862  1.8200  1.6233
   88SAPS   H7S 8461   3.841   3.513   9.962 -3.0635  1.1469 -2.5960
   88SAPS   C28 8462   3.729   3.392   9.817  0.5621  0.2560 -0.6467
   88SAPS   H8R 8463   3.656   3.324   9.864 -0.8662  1.3315 -1.2634
   88SAPS   C29 8464   3.704   3.419   9.688  0.6242 -0.9379  0.2187
   88SAPS   H9R 8465   3.609   3.387   9.643  0.4680  1.3460 -1.2528
   88SAPS  C210 8466   3.782   3.486   9.588  0.2262 -0.4776 -0.0780
   88SAPS  H10R 8467   3.858   3.548   9.640 -0.1842 -1.5341  1.8906
   88SAPS  H10S 8468   3.719   3.554   9.527 -2.4489 -1.0568  1.8775
   88SAPS  C211 8469   3.845   3.384   9.498 -0.2246  0.2354 -0.3144
   88SAPS  H11R 8470   3.913   3.310   9.542  1.1512  0.0349 -2.6102
   88SAPS  C212 8471   3.829   3.382   9.364 -0.3390 -0.0770 -0.7948
   88SAPS  H12R 8472   3.877   3.291   9.324  1.9068  0.3325  0.8148
   88SAPS  C213 8473   3.749   3.464   9.266  0.6162  0.1098  0.6587
   88SAPS  H13R 8474   3.822   3.509   9.196  1.0106  1.0495  1.6445
   88SAPS  H13S 8475   3.690   3.543   9.318 -1.2393 -1.2043  0.6456
   88SAPS  C214 8476   3.664   3.373   9.184 -0.1451  0.0814 -0.6339
   88SAPS  H14R 8477   3.723   3.282   9.167  1.1135  0.4849  1.3154
   88SAPS  C215 8478   3.533   3.380   9.164  0.2583 -0.5431  0.0331
   88SAPS  H15R 8479   3.482   3.312   9.094 -0.3225  1.2432 -1.3733
   88SAPS  C216 8480   3.431   3.491   9.192  0.0959  0.3833  0.0988
   88SAPS  H16R 8481   3.468   3.595   9.205 -3.0842  1.9460 -2.0890
   88SAPS  H16S 8482   3.383   3.472   9.290 -1.9706 -3.4304 -1.4458
   88SAPS  C217 8483   3.331   3.521   9.081 -0.3986 -0.7340  0.3072
   88SAPS  H17R 8484   3.265   3.602   9.118 -0.1636 -0.1520 -0.5406
   88SAPS  H17S 8485   3.264   3.433   9.077  0.7594 -1.6667  0.5825
   88SAPS  C218 8486   3.385   3.559   8.950  0.0818  0.0370  0.1730
   88SAPS  H18R 8487   3.316   3.519   8.873  0.3565  0.5277 -0.3296
   88SAPS  H18S 8488   3.487   3.516   8.947  0.0399 -0.4650  3.1236
   88SAPS  C219 8489   3.397   3.710   8.931 -0.1542 -0.1656  0.2594
   88SAPS  H19R 8490   3.427   3.723   8.825 -0.6851  2.3839  0.3594
   88SAPS  H19S 8491   3.468   3.752   9.005 -1.0560  0.1322  0.9894
   88SAPS  C220 8492   3.261   3.780   8.944  0.7044 -0.1424  0.7726
   88SAPS  H20R 8493   3.261   3.874   8.884 -2.1420 -0.4294  0.1974
   88SAPS  H20S 8494   3.237   3.803   9.050  0.1314 -2.4403  1.1892
   88SAPS  H20T 8495   3.179   3.718   8.902  1.4287  0.9103 -2.5332
   88SAPS   C33 8496   4.704   3.426  10.492 -0.6851 -0.3842 -0.9615
   88SAPS   H3X 8497   4.684   3.318  10.471  3.5402 -1.9046  1.6583
   88SAPS   H3Y 8498   4.811   3.440  10.515 -0.8194  0.6844 -0.9473
   88SAPS   C34 8499   4.668   3.515  10.372  0.1074  0.2185 -0.4096
   88SAPS   H4X 8500   4.688   3.620  10.401  0.4465 -0.1167  0.6006
   88SAPS   H4Y 8501   4.558   3.498  10.363  0.3182 -2.8871  1.4239
   88SAPS   C35 8502   4.743   3.475  10.244 -0.1254  0.0377  0.3586
   88SAPS   H5X 8503   4.729   3.366  10.227  1.6930 -0.7074  2.9438
   88SAPS   H5Y 8504   4.851   3.500  10.239  0.1327 -1.1937 -2.6772
   88SAPS   C36 8505   4.693   3.555  10.122 -0.6789 -0.8569  0.3012
   88SAPS   H6X 8506   4.745   3.653  10.127 -1.4211 -0.1812 -2.8169
   88SAPS   H6Y 8507   4.582   3.561  10.126 -0.5750  2.1726  0.6130
   88SAPS   C37 8508   4.722   3.501   9.979  0.0472  0.4986 -0.0593
   88SAPS   H7X 8509   4.695   3.394   9.973  1.4284  0.2150 -2.3001
   88SAPS   H7Y 8510   4.829   3.510   9.951 -0.7666  1.5846 -3.2613
   88SAPS   C38 8511   4.640   3.578   9.868  0.3670 -0.1278  0.8913
   88SAPS   H8X 8512   4.665   3.686   9.857  0.3269 -0.1969  0.0571
   88SAPS   H8Y 8513   4.531   3.567   9.884 -0.2399  1.2369 -1.7375
   88SAPS   C39 8514   4.663   3.509   9.729 -0.5596  0.1669  0.0869
   88SAPS   H9X 8515   4.647   3.400   9.739  0.6572 -0.1277 -0.9657
   88SAPS   H9Y 8516   4.764   3.529   9.687 -0.7535 -1.1751 -1.0797
   88SAPS  C310 8517   4.569   3.552   9.620 -0.4931 -0.3853  0.2422
   88SAPS  H10X 8518   4.552   3.660   9.640 -1.9609 -1.0953  3.6426
   88SAPS  H10Y 8519   4.465   3.513   9.626  0.1911 -2.3690  0.0085
   88SAPS  C311 8520   4.626   3.521   9.484 -0.4923 -0.6706  0.3589
   88SAPS  H11X 8521   4.623   3.410   9.486 -0.3721 -0.6692  0.5972
   88SAPS  H11Y 8522   4.729   3.559   9.470 -1.1524  0.4492 -2.0434
   88SAPS  C312 8523   4.550   3.559   9.358 -0.4452  0.2296 -0.6229
   88SAPS  H12X 8524   4.557   3.670   9.359  1.6812  0.1962  2.6146
   88SAPS  H12Y 8525   4.444   3.529   9.370 -0.8509  1.9911  0.4559
   88SAPS  C313 8526   4.608   3.498   9.237 -0.0901  0.2565  0.4321
   88SAPS  H13X 8527   4.636   3.392   9.256 -2.5666 -0.6020 -0.3208
   88SAPS  H13Y 8528   4.701   3.546   9.199 -0.9025  1.5778  0.0407
   88SAPS  C314 8529   4.507   3.506   9.124 -0.1611  0.1577 -0.1569
   88SAPS  H14X 8530   4.416   3.452   9.160  0.0300  0.1021  0.2519
   88SAPS  H14Y 8531   4.529   3.443   9.036 -0.8230  0.6451 -0.6805
   88SAPS  C315 8532   4.484   3.653   9.068 -0.4625 -0.4803  0.4116
   88SAPS  H15X 8533   4.579   3.695   9.029 -0.1324  0.0254  1.6796
   88SAPS  H15Y 8534   4.463   3.721   9.154  3.8818  1.3716  0.2638
   88SAPS  C316 8535   4.364   3.671   8.982 -0.1340  0.6610  1.5080
   88SAPS  H16X 8536   4.329   3.776   8.976  0.8715  0.9750 -2.5581
   88SAPS  H16Y 8537   4.267   3.634   9.020 -0.7712  2.8702  2.1570
   88SAPS  C317 8538   4.379   3.638   8.831 -0.2877 -0.1299  0.4194
   88SAPS  H17X 8539   4.288   3.675   8.778 -0.8467 -1.2425  0.5629
   88SAPS  H17Y 8540   4.384   3.527   8.825  2.2557 -0.0592  0.1193
   88SAPS  C318 8541   4.502   3.697   8.757 -0.1009 -0.0459 -1.0171
   88SAPS  H18X 8542   4.487   3.703   8.647  2.1083 -0.3052 -1.3770
   88SAPS  H18Y 8543   4.584   3.623   8.770 -2.2196 -2.3510  0.1670
   88SAPS  H18Z 8544   4.522   3.797   8.801  0.4288 -1.1208  1.3472
   89SAPS     N 8545   5.640   5.081  11.112  0.4588  0.3471  0.2144
   89SAPS   HN1 8546   5.619   5.152  11.185  1.6133  0.6882  0.2380
   89SAPS   HN2 8547   5.564   5.081  11.041  0.0237 -3.5322  0.4587
   89SAPS   HN3 8548   5.641   4.995  11.170  1.2375  0.7590  0.8549
   89SAPS   C12 8549   5.774   5.102  11.056 -0.3285  0.3877 -0.3523
   89SAPS  H12A 8550   5.760   5.200  11.013 -0.6160  0.4937 -0.0245
   89SAPS   C13 8551   5.879   5.128  11.169 -0.8357  0.1934  0.4344
   89SAPS  O13A 8552   5.863   5.092  11.289  0.0159  0.2820  0.1172
   89SAPS  O13B 8553   5.988   5.183  11.123  0.5049 -0.1241 -0.8908
   89SAPS   C11 8554   5.806   4.977  10.974  0.3723  0.4870  0.1660
   89SAPS  H11A 8555   5.795   4.883  11.031 -1.0242  0.0858 -0.7197
   89SAPS  H11B 8556   5.909   4.984  10.933  1.0710 -0.7230  1.6389
   89SAPS     P 8557   5.698   4.830  10.780 -0.2488 -0.1235 -0.1642
   89SAPS   O13 8558   5.650   4.725  10.873 -0.7395  0.1085  0.5401
   89SAPS   O14 8559   5.603   4.850  10.667  0.0669  0.0002 -0.3158
   89SAPS   O12 8560   5.725   4.969  10.856 -0.0291  0.0764 -0.1179
   89SAPS   O11 8561   5.836   4.790  10.732 -0.4207 -0.6444  0.8332
   89SAPS    C1 8562   5.931   4.880  10.669 -1.2171  0.4032 -0.2106
   89SAPS    HA 8563   5.907   4.981  10.708 -2.0119 -0.2183  1.0139
   89SAPS    HB 8564   6.035   4.856  10.699 -1.9018 -1.4755  0.8189
   89SAPS    C2 8565   5.938   4.873  10.511  0.5240  0.0853 -0.4622
   89SAPS    HS 8566   6.033   4.917  10.476 -0.0714  1.9396  0.1540
   89SAPS   O21 8567   5.827   4.940  10.454 -0.3819  0.1466  0.7757
   89SAPS   C21 8568   5.816   5.068  10.483 -0.0894 -1.0682 -0.4941
   89SAPS   O22 8569   5.896   5.140  10.543 -0.0924  0.3512  0.1466
   89SAPS   C22 8570   5.684   5.115  10.411  0.0838 -0.2510  0.5685
   89SAPS   H2R 8571   5.697   5.082  10.306  1.1070 -0.4686  0.7515
   89SAPS   H2S 8572   5.609   5.047  10.458  1.7547 -0.0231  3.8689
   89SAPS    C3 8573   5.960   4.720  10.467 -0.3275  0.1594  0.4682
   89SAPS    HX 8574   5.888   4.672  10.536  0.5792  0.7046  1.8439
   89SAPS    HY 8575   6.065   4.691  10.492  0.4010  2.1518 -0.0567
   89SAPS   O31 8576   5.927   4.710  10.328 -0.3566 -0.0330  0.3602
   89SAPS   C31 8577   5.890   4.591  10.283 -0.1324 -0.0370 -0.0538
   89SAPS   O32 8578   5.875   4.493  10.352  0.1894  0.3961 -0.3273
   89SAPS   C32 8579   5.874   4.595  10.130 -0.4586 -0.2177  0.9321
   89SAPS   H2X 8580   5.977   4.621  10.095 -0.8321  0.7083  0.5068
   89SAPS   H2Y 8581   5.799   4.672  10.104 -1.3770 -0.7628  1.9004
   89SAPS   C23 8582   5.659   5.270  10.400 -0.3849  0.1135 -0.1339
   89SAPS   H3R 8583   5.699   5.319  10.491 -1.2410  2.6408 -1.0310
   89SAPS   H3S 8584   5.550   5.289  10.392 -0.2800  0.4679 -0.7779
   89SAPS   C24 8585   5.736   5.328  10.277 -0.0644 -0.4645  0.0219
   89SAPS   H4R 8586   5.714   5.437  10.270 -1.8899 -0.8513 -0.8114
   89SAPS   H4S 8587   5.685   5.288  10.186 -2.1507  3.1875 -0.6059
   89SAPS   C25 8588   5.881   5.300  10.263 -0.8645 -0.0120 -0.5855
   89SAPS   H5R 8589   5.953   5.347  10.333  1.2937 -1.1133 -1.9521
   89SAPS   C26 8590   5.931   5.223  10.166  0.0067 -0.2904  0.3245
   89SAPS   H6R 8591   6.040   5.208  10.166 -0.1848 -1.8015  1.0234
   89SAPS   C27 8592   5.864   5.156  10.049 -0.1304 -0.0974 -0.4196
   89SAPS   H7R 8593   5.929   5.188   9.965 -0.3560  1.1385 -0.1537
   89SAPS   H7S 8594   5.763   5.194  10.025 -0.4652 -1.2025 -0.8113
   89SAPS   C28 8595   5.863   5.006  10.046 -0.0832 -0.5795  0.0268
   89SAPS   H8R 8596   5.903   4.944  10.128 -2.2509 -1.5013  0.4567
   89SAPS   C29 8597   5.808   4.940   9.939  0.0298  0.2571  0.7615
   89SAPS   H9R 8598   5.805   4.830   9.937  1.7226  0.1706 -2.2048
   89SAPS  C210 8599   5.740   5.006   9.823  0.0619 -0.6652  0.1169
   89SAPS  H10R 8600   5.758   5.116   9.818 -3.3604  0.0735  1.1851
   89SAPS  H10S 8601   5.640   4.987   9.866  1.0764 -3.3381  1.5550
   89SAPS  C211 8602   5.767   4.941   9.690  0.5176  0.0039 -0.1638
   89SAPS  H11R 8603   5.744   4.834   9.684  0.2016  0.0304  0.4760
   89SAPS  C212 8604   5.800   4.998   9.575 -0.3572 -0.8811 -0.6512
   89SAPS  H12R 8605   5.828   4.929   9.494 -0.4228 -1.4644 -0.1878
   89SAPS  C213 8606   5.830   5.147   9.558 -0.3786 -0.7884  0.7283
   89SAPS  H13R 8607   5.917   5.159   9.489 -2.4245 -0.8119 -2.0067
   89SAPS  H13S 8608   5.860   5.200   9.652 -2.0712  0.4208  0.6213
   89SAPS  C214 8609   5.709   5.225   9.505  0.6136  0.6009 -0.3229
   89SAPS  H14R 8610   5.683   5.307   9.574  2.0150 -0.5565  1.6743
   89SAPS  C215 8611   5.644   5.208   9.391  0.2783 -0.1092  0.2520
   89SAPS  H15R 8612   5.572   5.281   9.351  0.0786 -0.8451 -0.8028
   89SAPS  C216 8613   5.687   5.109   9.283  0.3526 -0.3616  0.4578
   89SAPS  H16R 8614   5.627   5.019   9.307 -0.3487  0.3076  1.2598
   89SAPS  H16S 8615   5.795   5.083   9.285  1.0065  1.3534 -3.2204
   89SAPS  C217 8616   5.664   5.148   9.132 -0.2581 -0.2106  0.0834
   89SAPS  H17R 8617   5.737   5.228   9.107  0.9572 -0.5422  2.2798
   89SAPS  H17S 8618   5.565   5.195   9.120 -0.3090 -0.5463 -0.8874
   89SAPS  C218 8619   5.673   5.032   9.030 -0.0228  0.1836  0.4396
   89SAPS  H18R 8620   5.600   4.962   9.076 -0.3314  0.5920  0.5819
   89SAPS  H18S 8621   5.769   4.977   9.038 -1.1693 -1.6763  2.6818
   89SAPS  C219 8622   5.650   5.073   8.883 -0.1741  0.7144 -0.1693
   89SAPS  H19R 8623   5.552   5.124   8.875 -0.2558  0.3900 -1.4094
   89SAPS  H19S 8624   5.641   4.977   8.828  2.3145  1.7790 -2.6425
   89SAPS  C220 8625   5.747   5.171   8.804 -0.0553  0.4476 -0.4355
   89SAPS  H20R 8626   5.845   5.125   8.778 -0.2110 -1.4311  1.9228
   89SAPS  H20S 8627   5.763   5.261   8.867  3.7040 -0.2995 -0.0372
   89SAPS  H20T 8628   5.693   5.193   8.710  0.2970  0.1599 -0.7078
   89SAPS   C33 8629   5.844   4.456  10.064  0.1214  0.1899  0.8177
   89SAPS   H3X 8630   5.753   4.419  10.115  0.2964  0.4077  1.3049
   89SAPS   H3Y 8631   5.932   4.392  10.087  1.4399  0.9145 -1.7994
   89SAPS   C34 8632   5.834   4.473   9.913 -0.7221  0.3104 -0.2331
   89SAPS   H4X 8633   5.938   4.479   9.874 -0.5629 -0.0946  0.1270
   89SAPS   H4Y 8634   5.790   4.570   9.881  0.3470  0.7136 -0.5450
   89SAPS   C35 8635   5.775   4.351   9.842 -0.9934  0.4296  0.0102
   89SAPS   H5X 8636   5.664   4.345   9.831 -0.8628 -0.8289 -0.8163
   89SAPS   H5Y 8637   5.822   4.264   9.893  0.3327  1.5698  0.7819
   89SAPS   C36 8638   5.820   4.345   9.693 -0.7104  0.0647 -0.2252
   89SAPS   H6X 8639   5.791   4.242   9.663  2.3443 -0.4276 -1.9409
   89SAPS   H6Y 8640   5.930   4.355   9.699 -0.6824  0.8702 -1.5981
   89SAPS   C37 8641   5.757   4.436   9.589  0.5628 -0.8443 -0.0425
   89SAPS   H7X 8642   5.791   4.541   9.601  1.4665 -0.8179 -2.2551
   89SAPS   H7Y 8643   5.647   4.441   9.603  0.1834 -1.4425 -2.4091
   89SAPS   C38 8644   5.770   4.381   9.449  0.3675  0.4437 -0.1503
   89SAPS   H8X 8645   5.726   4.279   9.458  2.3011 -0.3329  1.1630
   89SAPS   H8Y 8646   5.877   4.356   9.426 -0.3802 -2.4012 -1.0695
   89SAPS   C39 8647   5.719   4.476   9.340  0.5246  0.3457 -0.1232
   89SAPS   H9X 8648   5.768   4.576   9.344 -0.9661  1.1045  0.0723
   89SAPS   H9Y 8649   5.612   4.489   9.369  0.7161 -3.3662  3.0039
   89SAPS  C310 8650   5.731   4.407   9.207 -0.3870 -0.0552 -0.3115
   89SAPS  H10X 8651   5.675   4.311   9.204 -2.2065  0.9822 -0.8441
   89SAPS  H10Y 8652   5.838   4.381   9.193  0.1710  0.8968  1.8124
   89SAPS  C311 8653   5.686   4.493   9.092  0.0640  0.7798 -0.3544
   89SAPS  H11X 8654   5.763   4.567   9.061 -0.6216  0.8736 -1.9573
   89SAPS  H11Y 8655   5.599   4.554   9.126 -0.2831  0.3779 -0.5068
   89SAPS  C312 8656   5.659   4.408   8.958  0.2742 -0.4074 -0.3671
   89SAPS  H12X 8657   5.618   4.490   8.894 -1.0013 -0.5604  0.2094
   89SAPS  H12Y 8658   5.592   4.321   8.971 -2.1091  1.3459 -0.0639
   89SAPS  C313 8659   5.792   4.352   8.916  0.1771  0.0260  0.2505
   89SAPS  H13X 8660   5.829   4.257   8.960 -1.1981 -0.2953  0.7542
   89SAPS  H13Y 8661   5.868   4.433   8.923 -0.0198  0.5072 -2.1109
   89SAPS  C314 8662   5.789   4.322   8.762 -0.3610  0.7846 -0.5174
   89SAPS  H14X 8663   5.891   4.298   8.723 -0.6848 -0.4096 -0.6744
   89SAPS  H14Y 8664   5.740   4.401   8.701 -0.8686  1.3708  0.6265
   89SAPS  C315 8665   5.725   4.190   8.734 -0.1113 -0.5973  0.0430
   89SAPS  H15X 8666   5.620   4.193   8.772 -0.1879 -1.4054 -0.0934
   89SAPS  H15Y 8667   5.777   4.103   8.779 -0.6987 -0.5314  0.8577
   89SAPS  C316 8668   5.719   4.147   8.584 -0.4101  0.2508  0.4094
   89SAPS  H16X 8669   5.826   4.131   8.559 -1.0158 -0.5955 -1.8200
   89SAPS  H16Y 8670   5.682   4.219   8.508  2.0518 -0.0328 -1.1640
   89SAPS  C317 8671   5.649   4.014   8.547  0.7771  0.4950  0.3373
   89SAPS  H17X 8672   5.691   3.940   8.618  2.0229  2.5685  1.8931
   89SAPS  H17Y 8673   5.666   3.987   8.440  1.1129  2.0977 -0.0538
   89SAPS  C318 8674   5.496   4.017   8.560 -0.6532  0.3344  0.5229
   89SAPS  H18X 8675   5.462   4.080   8.644  0.4864  2.4005 -0.5027
   89SAPS  H18Y 8676   5.448   3.916   8.556 -0.9825  0.4991  0.1825
   89SAPS  H18Z 8677   5.443   4.065   8.475 -2.9850  0.0139  1.7186
   90SAPS     N 8678   3.502   5.843  10.574 -0.7479  0.9758 -0.6714
   90SAPS   HN1 8679   3.404   5.876  10.564 -1.5415 -1.1010 -0.2386
   90SAPS   HN2 8680   3.569   5.881  10.504  0.2209  1.3903  0.4414
   90SAPS   HN3 8681   3.507   5.739  10.576  0.9893  1.0469  0.4716
   90SAPS   C12 8682   3.547   5.900  10.704  1.1859 -0.1344 -0.3020
   90SAPS  H12A 8683   3.475   5.865  10.775  2.4885 -1.3189  0.4915
   90SAPS   C13 8684   3.673   5.835  10.759 -0.5990 -0.5742 -1.0072
   90SAPS  O13A 8685   3.707   5.721  10.704  0.3799 -0.2608  0.2998
   90SAPS  O13B 8686   3.695   5.852  10.882  0.3936 -0.2411 -0.0347
   90SAPS   C11 8687   3.557   6.057  10.684 -0.9643 -0.2840  0.3424
   90SAPS  H11A 8688   3.649   6.073  10.624 -1.3949  1.2124  0.0392
   90SAPS  H11B 8689   3.578   6.097  10.785  2.2281 -1.2946  0.1800
   90SAPS     P 8690   3.328   6.184  10.706 -0.3105  0.5288 -0.2912
   90SAPS   O13 8691   3.240   6.075  10.752 -0.1521  0.5951  0.0200
   90SAPS   O14 8692   3.386   6.269  10.813 -0.3117  0.3923 -0.2263
   90SAPS   O12 8693   3.445   6.121  10.620  0.0320  0.8026  0.2938
   90SAPS   O11 8694   3.259   6.272  10.598  0.1257 -0.3139 -0.5138
   90SAPS    C1 8695   3.129   6.256  10.549 -0.5651  1.0786  0.6976
   90SAPS    HA 8696   3.047   6.242  10.624  0.1881  0.9333  1.5093
   90SAPS    HB 8697   3.114   6.336  10.474  0.4862 -0.1569 -0.9076
   90SAPS    C2 8698   3.130   6.123  10.461 -0.0818 -0.5935 -0.2599
   90SAPS    HS 8699   3.139   6.032  10.525 -2.7707 -1.3072 -0.7693
   90SAPS   O21 8700   3.241   6.141  10.369  0.0816  0.3571  0.1512
   90SAPS   C21 8701   3.315   6.035  10.349 -0.3487 -0.4241 -0.0508
   90SAPS   O22 8702   3.312   5.928  10.409 -0.1939 -0.2165 -0.1482
   90SAPS   C22 8703   3.426   6.059  10.239  0.8251  0.6997  0.2218
   90SAPS   H2R 8704   3.428   6.168  10.218  1.4915  0.6461 -0.0086
   90SAPS   H2S 8705   3.523   6.017  10.271  1.9076  1.5837 -1.7020
   90SAPS    C3 8706   2.992   6.102  10.385  0.2891 -0.7268  0.1382
   90SAPS    HX 8707   3.000   6.168  10.296  4.7638 -0.3676  0.5782
   90SAPS    HY 8708   2.911   6.135  10.454  1.0178 -0.6917  0.9855
   90SAPS   O31 8709   2.976   5.968  10.327  0.4659  0.2379 -0.2991
   90SAPS   C31 8710   2.887   5.896  10.390  0.1237 -0.2480  0.5660
   90SAPS   O32 8711   2.822   5.928  10.484 -0.0091 -0.4915 -0.3118
   90SAPS   C32 8712   2.856   5.775  10.302  0.2951  0.1906 -0.2506
   90SAPS   H2X 8713   2.938   5.701  10.294 -1.4481 -1.6759 -1.9133
   90SAPS   H2Y 8714   2.830   5.813  10.201  0.5228  0.1225 -0.3337
   90SAPS   C23 8715   3.405   5.989  10.102 -0.2525  0.4200 -0.0833
   90SAPS   H3R 8716   3.399   5.878  10.104  1.1433  0.2701 -1.9522
   90SAPS   H3S 8717   3.500   6.015  10.051  1.4558 -2.1977  1.5045
   90SAPS   C24 8718   3.294   6.058  10.009  0.0130  0.2079 -0.0732
   90SAPS   H4R 8719   3.317   6.027   9.904  0.5905  0.7931 -0.1312
   90SAPS   H4S 8720   3.314   6.167  10.011  1.7003 -0.0427  2.9973
   90SAPS   C25 8721   3.152   6.011  10.042 -0.4556 -0.1549  0.0586
   90SAPS   H5R 8722   3.130   6.043  10.145 -4.2229 -0.8115 -0.4009
   90SAPS   C26 8723   3.053   5.950   9.959 -0.3430 -0.0150  0.0559
   90SAPS   H6R 8724   2.958   5.928  10.009  0.2824 -0.5508  1.0254
   90SAPS   C27 8725   3.083   5.918   9.812  0.5716  0.5489  0.2594
   90SAPS   H7R 8726   3.187   5.881   9.800  0.3285  0.2550 -1.1118
   90SAPS   H7S 8727   3.079   6.009   9.748  1.1228  0.0663 -0.4858
   90SAPS   C28 8728   2.983   5.807   9.768 -0.1372 -0.2233  0.6646
   90SAPS   H8R 8729   2.955   5.748   9.857 -2.3674  1.0386  0.8709
   90SAPS   C29 8730   2.929   5.783   9.651  0.3252 -0.4629  0.3176
   90SAPS   H9R 8731   2.846   5.710   9.644 -0.5289  0.6015 -1.4522
   90SAPS  C210 8732   2.940   5.871   9.535 -0.0263 -0.2609  0.7658
   90SAPS  H10R 8733   3.007   5.829   9.457 -0.7864  0.4410 -0.2712
   90SAPS  H10S 8734   2.986   5.967   9.567  1.6753 -0.6866 -0.2491
   90SAPS  C211 8735   2.806   5.903   9.463  0.3229 -0.0245  0.1117
   90SAPS  H11R 8736   2.720   5.901   9.531 -0.0551 -0.5737 -0.3665
   90SAPS  C212 8737   2.788   5.933   9.331 -0.1380  0.2581  0.6248
   90SAPS  H12R 8738   2.685   5.939   9.293 -0.2126  0.2613  0.8253
   90SAPS  C213 8739   2.891   5.935   9.223 -0.4282  0.2884 -0.9300
   90SAPS  H13R 8740   2.992   5.904   9.257 -0.6658  0.3146 -0.2024
   90SAPS  H13S 8741   2.908   6.043   9.204  0.5661  0.1676 -0.7449
   90SAPS  C214 8742   2.845   5.853   9.096 -0.0464 -0.2733 -0.7115
   90SAPS  H14R 8743   2.812   5.751   9.121  0.0474 -0.0363  0.4040
   90SAPS  C215 8744   2.826   5.892   8.970 -0.5358 -1.0214 -0.4465
   90SAPS  H15R 8745   2.820   5.813   8.894  0.6765 -1.9513  0.3808
   90SAPS  C216 8746   2.850   6.036   8.917 -0.3080 -0.5985  0.2136
   90SAPS  H16R 8747   2.955   6.068   8.936 -0.7670  2.6707 -2.0010
   90SAPS  H16S 8748   2.782   6.104   8.973 -1.0537 -1.4435  0.3636
   90SAPS  C217 8749   2.835   6.034   8.766  0.9194 -0.6078 -0.6116
   90SAPS  H17R 8750   2.734   5.999   8.736  0.4206  2.3369 -2.8844
   90SAPS  H17S 8751   2.908   5.964   8.721  1.3345 -1.1375  0.8200
   90SAPS  C218 8752   2.850   6.179   8.711 -0.8152  0.4676  0.3870
   90SAPS  H18R 8753   2.948   6.218   8.747  0.2480 -2.7960  1.3311
   90SAPS  H18S 8754   2.763   6.238   8.747 -3.2397 -2.3853 -0.3776
   90SAPS  C219 8755   2.842   6.185   8.558 -0.7593 -1.2144 -0.0454
   90SAPS  H19R 8756   2.755   6.125   8.525 -1.2657 -1.8825  2.3041
   90SAPS  H19S 8757   2.932   6.138   8.513  1.9148  1.7280  1.7443
   90SAPS  C220 8758   2.824   6.321   8.496 -0.2860 -0.2910  0.2293
   90SAPS  H20R 8759   2.835   6.318   8.386 -1.6882 -0.0152  0.0577
   90SAPS  H20S 8760   2.902   6.386   8.542 -1.2257  2.1194 -1.3899
   90SAPS  H20T 8761   2.728   6.367   8.527 -0.3734 -0.1422 -0.2567
   90SAPS   C33 8762   2.739   5.686  10.359  0.3786  0.3130 -0.4597
   90SAPS   H3X 8763   2.649   5.743  10.390 -0.1933 -1.8942  2.2719
   90SAPS   H3Y 8764   2.773   5.642  10.456  1.6233 -0.0215 -1.0249
   90SAPS   C34 8765   2.714   5.568  10.265  0.3539 -0.4356  0.4957
   90SAPS   H4X 8766   2.632   5.508  10.312  1.9291 -1.1850  2.4487
   90SAPS   H4Y 8767   2.790   5.490  10.245  1.2558  0.9802 -1.9465
   90SAPS   C35 8768   2.668   5.621  10.128 -0.2983 -0.0733  0.4021
   90SAPS   H5X 8769   2.755   5.613  10.059 -0.7087 -1.9489  0.0480
   90SAPS   H5Y 8770   2.634   5.727  10.126  0.8103  0.2961 -0.5557
   90SAPS   C36 8771   2.553   5.541  10.066  0.0368  0.1887 -0.6076
   90SAPS   H6X 8772   2.469   5.540  10.139  1.7488 -0.1457  1.4356
   90SAPS   H6Y 8773   2.582   5.434  10.054  3.0053  0.9646 -1.0007
   90SAPS   C37 8774   2.498   5.596   9.929  0.6879 -0.5148 -0.0460
   90SAPS   H7X 8775   2.526   5.703   9.928 -0.4741 -0.1984 -0.9357
   90SAPS   H7Y 8776   2.390   5.579   9.910  0.0615  1.1569  1.7914
   90SAPS   C38 8777   2.578   5.539   9.806  0.1243 -0.4528  0.1199
   90SAPS   H8X 8778   2.544   5.434   9.796  2.8358 -1.3630 -0.4817
   90SAPS   H8Y 8779   2.687   5.542   9.826  0.1842 -0.3492 -0.2200
   90SAPS   C39 8780   2.549   5.618   9.681  0.0283  0.4331 -0.0723
   90SAPS   H9X 8781   2.603   5.713   9.700  0.8953 -0.3172  1.4280
   90SAPS   H9Y 8782   2.439   5.635   9.675 -0.4341 -2.3378 -1.1708
   90SAPS  C310 8783   2.592   5.554   9.550  0.1249  0.1086  0.4943
   90SAPS  H10X 8784   2.553   5.452   9.533  1.7011 -0.2660 -1.1662
   90SAPS  H10Y 8785   2.701   5.538   9.537 -0.0814  0.5052 -2.7694
   90SAPS  C311 8786   2.528   5.628   9.434  0.0006 -0.1843  0.4289
   90SAPS  H11X 8787   2.573   5.730   9.433 -0.8489  0.2083  0.5839
   90SAPS  H11Y 8788   2.418   5.637   9.451 -0.5964  0.9374 -3.2099
   90SAPS  C312 8789   2.558   5.555   9.298 -0.3003  0.1678 -0.2675
   90SAPS  H12X 8790   2.497   5.462   9.288  2.1869 -1.6652  0.3957
   90SAPS  H12Y 8791   2.666   5.527   9.297 -0.2998 -0.3281  2.9827
   90SAPS  C313 8792   2.530   5.643   9.178 -0.3392  0.2130 -0.3659
   90SAPS  H13X 8793   2.562   5.581   9.092  1.8666 -2.5636  2.2370
   90SAPS  H13Y 8794   2.604   5.725   9.189 -1.7302  1.2308  2.6995
   90SAPS  C314 8795   2.381   5.700   9.180 -0.2182  0.6735  0.2855
   90SAPS  H14X 8796   2.357   5.763   9.268  1.6264  0.8309  0.7334
   90SAPS  H14Y 8797   2.298   5.628   9.188  0.4477 -0.0231  1.2051
   90SAPS  C315 8798   2.345   5.777   9.054 -0.0810  0.4200  0.0392
   90SAPS  H15X 8799   2.356   5.712   8.965 -0.7825 -1.5108  1.2934
   90SAPS  H15Y 8800   2.411   5.866   9.050  0.9171 -0.2626  0.7802
   90SAPS  C316 8801   2.203   5.830   9.071 -0.1283  0.4352 -0.1096
   90SAPS  H16X 8802   2.187   5.895   9.160  0.1444  2.3799 -1.4076
   90SAPS  H16Y 8803   2.144   5.737   9.086  1.0407 -0.1317  1.3269
   90SAPS  C317 8804   2.145   5.906   8.953  1.6087 -0.5821  0.4665
   90SAPS  H17X 8805   2.225   5.980   8.927  2.8843 -2.2456 -0.5832
   90SAPS  H17Y 8806   2.057   5.968   8.981  3.2696  2.5744 -0.6936
   90SAPS  C318 8807   2.115   5.828   8.828  0.2011  0.3150 -0.8878
   90SAPS  H18X 8808   2.100   5.899   8.745  2.2313  0.2997 -1.3227
   90SAPS  H18Y 8809   2.027   5.761   8.835  0.7796 -0.3833 -0.0928
   90SAPS  H18Z 8810   2.203   5.767   8.799 -0.7083 -1.3306 -0.3453
   91SAPS     N 8811   1.789   5.046   6.029 -1.2251 -1.1005 -0.6368
   91SAPS   HN1 8812   1.851   5.029   6.111 -0.4554 -0.5773 -1.0913
   91SAPS   HN2 8813   1.859   5.096   5.970 -1.9379 -1.6117 -1.9684
   91SAPS   HN3 8814   1.717   5.113   6.062  1.1606 -0.0500  3.0675
   91SAPS   C12 8815   1.736   4.944   5.943  0.2656  0.2405 -0.4502
   91SAPS  H12A 8816   1.663   4.995   5.883 -1.3674  0.9506  1.9763
   91SAPS   C13 8817   1.843   4.880   5.846  0.3518 -0.0341  0.2144
   91SAPS  O13A 8818   1.959   4.873   5.880  0.0682  0.1783 -0.0690
   91SAPS  O13B 8819   1.800   4.821   5.745 -0.3338 -0.1459 -0.4012
   91SAPS   C11 8820   1.677   4.820   6.024  0.2605  0.2401 -1.8516
   91SAPS  H11A 8821   1.756   4.775   6.088 -1.7648 -0.8167  0.0489
   91SAPS  H11B 8822   1.642   4.745   5.949  1.3745 -0.8728 -1.2884
   91SAPS     P 8823   1.476   4.767   6.192 -0.3529  0.2042 -0.2471
   91SAPS   O13 8824   1.365   4.741   6.107  0.3534 -0.3230  0.1095
   91SAPS   O14 8825   1.548   4.653   6.252  0.4911  0.3113 -0.1910
   91SAPS   O12 8826   1.572   4.866   6.108 -0.3283 -0.4078  0.7343
   91SAPS   O11 8827   1.449   4.866   6.305 -0.1929  0.0760 -0.0994
   91SAPS    C1 8828   1.472   5.005   6.305 -0.2410  0.2960 -0.3544
   91SAPS    HA 8829   1.464   5.055   6.206  0.5171 -0.0855 -0.6164
   91SAPS    HB 8830   1.391   5.045   6.369  1.2259  0.1620  1.6634
   91SAPS    C2 8831   1.612   5.029   6.376  0.6165 -0.0010  0.3749
   91SAPS    HS 8832   1.693   4.978   6.320  1.3411  0.8368  0.6409
   91SAPS   O21 8833   1.597   4.968   6.502 -0.1136  0.6042 -0.1788
   91SAPS   C21 8834   1.711   4.928   6.559 -0.1996 -0.0060  0.0876
   91SAPS   O22 8835   1.819   4.953   6.509  0.6728  0.2339 -0.7962
   91SAPS   C22 8836   1.684   4.867   6.693 -0.2399 -0.4275  0.3092
   91SAPS   H2R 8837   1.646   4.945   6.762 -2.9474 -1.0670 -0.3195
   91SAPS   H2S 8838   1.591   4.806   6.681  0.1409 -1.0542  0.5287
   91SAPS    C3 8839   1.643   5.183   6.383  0.6142 -0.0494  0.1065
   91SAPS    HX 8840   1.643   5.211   6.276 -2.1396  0.0997  0.0692
   91SAPS    HY 8841   1.747   5.204   6.418  0.2381  2.4045 -0.0938
   91SAPS   O31 8842   1.546   5.260   6.447  0.4814 -0.2472 -0.3847
   91SAPS   C31 8843   1.571   5.293   6.568  0.3451 -0.4375 -0.2998
   91SAPS   O32 8844   1.639   5.223   6.647 -0.0383  0.1995 -0.1292
   91SAPS   C32 8845   1.512   5.425   6.615 -0.0043  0.3056 -0.2866
   91SAPS   H2X 8846   1.429   5.461   6.552  0.8087  2.7440 -0.0446
   91SAPS   H2Y 8847   1.596   5.497   6.611  0.9202 -0.7659 -1.1003
   91SAPS   C23 8848   1.795   4.790   6.762 -0.2157 -0.5520 -0.5126
   91SAPS   H3R 8849   1.890   4.842   6.737 -1.1360  1.1430 -0.6858
   91SAPS   H3S 8850   1.806   4.686   6.728  2.4030 -0.7582  0.7374
   91SAPS   C24 8851   1.786   4.785   6.914 -0.0532  0.2757 -0.7064
   91SAPS   H4R 8852   1.864   4.715   6.952 -0.0779  1.9152  2.6992
   91SAPS   H4S 8853   1.688   4.740   6.939 -0.8764  1.3581 -1.8560
   91SAPS   C25 8854   1.786   4.919   6.988 -0.0408 -0.2040 -0.4113
   91SAPS   H5R 8855   1.759   5.005   6.925 -1.0502 -0.4457 -0.3272
   91SAPS   C26 8856   1.797   4.938   7.123  0.3257  0.6444 -0.7248
   91SAPS   H6R 8857   1.803   5.042   7.159 -3.9251  1.1164 -0.9603
   91SAPS   C27 8858   1.807   4.833   7.230 -0.4998  0.5375 -0.0677
   91SAPS   H7R 8859   1.871   4.880   7.307 -0.9665  1.4592 -0.2276
   91SAPS   H7S 8860   1.862   4.743   7.197  0.8518  1.1259  0.5227
   91SAPS   C28 8861   1.675   4.794   7.287  0.5573 -0.3028 -0.3928
   91SAPS   H8R 8862   1.588   4.820   7.224 -0.5136 -0.1605  1.0711
   91SAPS   C29 8863   1.661   4.756   7.415 -0.1203  0.4258 -0.6528
   91SAPS   H9R 8864   1.561   4.744   7.459 -0.5597  0.0356 -1.7304
   91SAPS  C210 8865   1.771   4.728   7.520  0.2133  0.0534  0.1682
   91SAPS  H10R 8866   1.868   4.706   7.469  1.2451 -2.1880  2.8296
   91SAPS  H10S 8867   1.749   4.633   7.572 -0.6232  0.4721  0.5883
   91SAPS  C211 8868   1.796   4.853   7.608  0.3722  0.6546 -0.6129
   91SAPS  H11R 8869   1.834   4.942   7.557  1.4729  1.2048  1.0931
   91SAPS  C212 8870   1.771   4.859   7.739  0.2928  0.8344 -0.3487
   91SAPS  H12R 8871   1.786   4.956   7.789 -0.8817  1.1182 -0.4982
   91SAPS  C213 8872   1.715   4.750   7.827 -0.7473 -0.0618 -0.0696
   91SAPS  H13R 8873   1.649   4.690   7.760 -0.3800 -0.2734 -0.2462
   91SAPS  H13S 8874   1.648   4.785   7.909  0.1143 -3.4190  2.2593
   91SAPS  C214 8875   1.807   4.649   7.896 -0.3250  0.8707  0.2326
   91SAPS  H14R 8876   1.856   4.582   7.824 -0.7539 -0.1774  0.9057
   91SAPS  C215 8877   1.830   4.637   8.026  0.3291 -0.5844  0.1787
   91SAPS  H15R 8878   1.897   4.557   8.062 -0.0561 -0.7702  0.4940
   91SAPS  C216 8879   1.780   4.730   8.134  0.5877 -0.2354 -0.1231
   91SAPS  H16R 8880   1.674   4.700   8.153  0.0478  1.3704 -0.4376
   91SAPS  H16S 8881   1.775   4.835   8.100 -0.9655 -0.3501 -0.3517
   91SAPS  C217 8882   1.862   4.728   8.267 -0.5188 -0.3832  1.1687
   91SAPS  H17R 8883   1.965   4.769   8.260 -1.4602  1.9142 -0.1122
   91SAPS  H17S 8884   1.869   4.629   8.318  0.5318 -1.1442 -0.3630
   91SAPS  C218 8885   1.794   4.814   8.373 -0.1007 -0.3830 -0.1602
   91SAPS  H18R 8886   1.843   4.810   8.473 -0.0784 -0.6239 -0.1802
   91SAPS  H18S 8887   1.697   4.761   8.387  0.7748 -1.4642  2.3888
   91SAPS  C219 8888   1.782   4.967   8.336 -0.3223  0.0122 -0.4685
   91SAPS  H19R 8889   1.757   4.969   8.227 -1.5915 -2.4870 -0.3015
   91SAPS  H19S 8890   1.884   5.008   8.348  0.2902 -1.3233 -0.8366
   91SAPS  C220 8891   1.680   5.046   8.414 -0.6221 -0.0610  0.4016
   91SAPS  H20R 8892   1.577   5.005   8.406 -0.2654 -1.8462  3.5984
   91SAPS  H20S 8893   1.659   5.151   8.383 -0.2740 -0.9397 -3.2869
   91SAPS  H20T 8894   1.716   5.049   8.519  1.2867  2.2578 -0.2062
   91SAPS   C33 8895   1.472   5.420   6.771 -0.5552 -0.1499 -0.0731
   91SAPS   H3X 8896   1.535   5.342   6.820  0.0705  1.0827  1.1764
   91SAPS   H3Y 8897   1.362   5.404   6.778 -0.8720  1.0621 -1.7725
   91SAPS   C34 8898   1.492   5.552   6.848  0.2088 -0.0217 -0.1405
   91SAPS   H4X 8899   1.409   5.618   6.815 -0.9174 -0.3006  1.9796
   91SAPS   H4Y 8900   1.589   5.591   6.810  0.5449 -1.1024 -0.4266
   91SAPS   C35 8901   1.480   5.523   6.999  0.6590  0.3422  0.4388
   91SAPS   H5X 8902   1.569   5.467   7.034  0.3603 -1.4384 -1.4633
   91SAPS   H5Y 8903   1.392   5.459   7.019  0.3234 -0.2064 -2.3887
   91SAPS   C36 8904   1.483   5.650   7.088 -0.0650  0.2728 -0.1992
   91SAPS   H6X 8905   1.430   5.738   7.048  2.0058  1.3068 -0.8291
   91SAPS   H6Y 8906   1.587   5.690   7.091  0.3932 -0.9479  1.8621
   91SAPS   C37 8907   1.441   5.616   7.230 -0.6574 -0.1823 -0.1724
   91SAPS   H7X 8908   1.509   5.536   7.267  1.2517  1.1703 -0.5763
   91SAPS   H7Y 8909   1.332   5.597   7.239 -0.8476  0.6985 -0.4995
   91SAPS   C38 8910   1.493   5.732   7.319  0.2157  0.2072  0.3674
   91SAPS   H8X 8911   1.427   5.821   7.308 -1.0484 -0.8342 -0.9896
   91SAPS   H8Y 8912   1.596   5.762   7.290  0.8309 -1.6086  0.5830
   91SAPS   C39 8913   1.502   5.688   7.464  0.3742 -0.2343 -0.3861
   91SAPS   H9X 8914   1.576   5.605   7.471  0.9486  0.3730  1.2678
   91SAPS   H9Y 8915   1.408   5.639   7.497  1.0703 -1.8122 -0.6244
   91SAPS  C310 8916   1.539   5.796   7.560  0.9255 -0.3580 -0.1125
   91SAPS  H10X 8917   1.460   5.871   7.539 -2.2432 -3.1180  0.9072
   91SAPS  H10Y 8918   1.634   5.848   7.535  0.7709  0.1215  0.2935
   91SAPS  C311 8919   1.533   5.764   7.706  0.3396 -0.9385 -0.6267
   91SAPS  H11X 8920   1.607   5.688   7.740  0.3242 -0.7995 -0.2763
   91SAPS  H11Y 8921   1.427   5.733   7.719 -0.3199 -0.1075 -3.4180
   91SAPS  C312 8922   1.561   5.894   7.783  0.4380 -0.2992 -0.4205
   91SAPS  H12X 8923   1.486   5.970   7.753  0.4567  0.1492  0.6495
   91SAPS  H12Y 8924   1.660   5.926   7.746  0.4017 -0.4310 -0.6357
   91SAPS  C313 8925   1.565   5.888   7.933 -0.5540 -0.2037  0.1271
   91SAPS  H13X 8926   1.671   5.864   7.957 -0.6023  0.4029  0.9909
   91SAPS  H13Y 8927   1.505   5.800   7.965  2.6752 -1.5777  3.0324
   91SAPS  C314 8928   1.513   6.018   7.992  0.1972 -1.1367  0.3751
   91SAPS  H14X 8929   1.433   6.050   7.921 -0.1097 -0.1628  1.1250
   91SAPS  H14Y 8930   1.586   6.102   7.986 -0.2061 -0.8363 -0.5505
   91SAPS  C315 8931   1.451   6.007   8.128 -1.3958 -0.2750 -0.6144
   91SAPS  H15X 8932   1.507   5.934   8.189 -2.9467 -0.7850  0.2541
   91SAPS  H15Y 8933   1.343   5.980   8.130 -1.4137 -0.1803  1.1053
   91SAPS  C316 8934   1.463   6.134   8.215  0.1536 -0.8070  0.2086
   91SAPS  H16X 8935   1.444   6.220   8.146 -0.4045 -0.8332  0.3305
   91SAPS  H16Y 8936   1.565   6.150   8.256  0.0206  0.5730  0.0603
   91SAPS  C317 8937   1.353   6.146   8.328  0.4844 -0.8595  0.3799
   91SAPS  H17X 8938   1.365   6.059   8.395  0.3845 -0.0682  1.4469
   91SAPS  H17Y 8939   1.251   6.142   8.285 -0.9731  1.3646  3.3064
   91SAPS  C318 8940   1.363   6.276   8.401  0.1892  0.0814  0.4521
   91SAPS  H18X 8941   1.358   6.357   8.325  0.2045  0.3374  0.7208
   91SAPS  H18Y 8942   1.460   6.278   8.455  0.8837 -1.2243 -0.6894
   91SAPS  H18Z 8943   1.294   6.293   8.486  0.5641 -0.6341  0.9048
   92SAPS     N 8944   4.245   1.555   6.466 -0.0430  0.2336 -0.2430
   92SAPS   HN1 8945   4.144   1.579   6.460 -0.6028 -2.0276 -1.4195
   92SAPS   HN2 8946   4.247   1.451   6.467  0.4830  0.2367 -0.6916
   92SAPS   HN3 8947   4.274   1.581   6.562 -1.2517  1.8126 -0.2608
   92SAPS   C12 8948   4.326   1.624   6.378 -0.7108  0.7081  0.0865
   92SAPS  H12A 8949   4.428   1.610   6.408 -1.3880  0.4290  2.5075
   92SAPS   C13 8950   4.315   1.581   6.231 -0.5665  0.1304  0.5218
   92SAPS  O13A 8951   4.236   1.492   6.190  0.8633 -0.4619 -1.1885
   92SAPS  O13B 8952   4.414   1.622   6.155  0.8008 -0.1619 -0.5153
   92SAPS   C11 8953   4.283   1.773   6.387 -0.1813 -0.3311 -0.6428
   92SAPS  H11A 8954   4.176   1.764   6.358 -0.2299 -3.3074  0.1506
   92SAPS  H11B 8955   4.345   1.829   6.314  2.1489  1.6095  2.5520
   92SAPS     P 8956   4.296   1.981   6.536 -0.0083 -0.0073 -0.3393
   92SAPS   O13 8957   4.425   2.031   6.486 -0.5010  0.2566  0.5796
   92SAPS   O14 8958   4.177   2.036   6.475  0.1034  0.3041  0.6810
   92SAPS   O12 8959   4.299   1.829   6.518 -0.0862  0.4612 -0.0387
   92SAPS   O11 8960   4.282   1.996   6.697 -0.1399 -0.6075 -0.8614
   92SAPS    C1 8961   4.323   1.896   6.787 -0.7448  0.1234  0.1199
   92SAPS    HA 8962   4.241   1.831   6.823  1.1060 -1.6009  1.4292
   92SAPS    HB 8963   4.397   1.827   6.740 -0.8711 -0.5659  0.9253
   92SAPS    C2 8964   4.398   1.942   6.920 -0.8979 -0.0294  0.5697
   92SAPS    HS 8965   4.442   1.848   6.962  0.7757  0.7978  0.7503
   92SAPS   O21 8966   4.306   2.011   6.999 -0.3768 -0.0899 -0.2963
   92SAPS   C21 8967   4.298   1.978   7.131 -0.9376  0.2274  1.4565
   92SAPS   O22 8968   4.364   1.894   7.191 -0.0387  0.1159 -0.0233
   92SAPS   C22 8969   4.196   2.064   7.200  0.0358 -1.0358  0.4824
   92SAPS   H2R 8970   4.146   2.130   7.126 -0.4284 -0.2946  1.4345
   92SAPS   H2S 8971   4.126   1.998   7.255 -2.5471 -0.5158 -1.9644
   92SAPS    C3 8972   4.511   2.037   6.887 -0.3710  0.0952  0.4282
   92SAPS    HX 8973   4.457   2.130   6.860 -0.5962 -0.4609 -1.1051
   92SAPS    HY 8974   4.564   1.997   6.798  0.6767 -2.0919  1.9575
   92SAPS   O31 8975   4.597   2.066   6.999  0.1753 -0.8738 -0.4327
   92SAPS   C31 8976   4.683   1.976   7.043  0.1028  0.2237  0.3213
   92SAPS   O32 8977   4.715   1.880   6.973  0.1992 -0.6005  0.0618
   92SAPS   C32 8978   4.754   2.014   7.172 -0.2302 -0.1383  0.0707
   92SAPS   H2X 8979   4.693   2.093   7.220 -1.4805 -1.3963  0.6270
   92SAPS   H2Y 8980   4.846   2.073   7.151 -0.4104  0.1403  0.0552
   92SAPS   C23 8981   4.271   2.153   7.299  0.2269  0.0832 -0.7724
   92SAPS   H3R 8982   4.350   2.213   7.250 -0.2828  1.7075  0.3102
   92SAPS   H3S 8983   4.327   2.090   7.372  0.0309  1.4710  0.6361
   92SAPS   C24 8984   4.181   2.239   7.383  0.1878 -0.3230  0.4304
   92SAPS   H4R 8985   4.100   2.278   7.317  1.2090  3.5071  1.1679
   92SAPS   H4S 8986   4.239   2.329   7.414 -2.3282  0.4861  3.3806
   92SAPS   C25 8987   4.131   2.179   7.511  0.2635  0.3383 -0.0898
   92SAPS   H5R 8988   4.145   2.072   7.529 -1.6206 -0.2878 -1.8950
   92SAPS   C26 8989   4.061   2.246   7.606 -0.2231 -0.3031 -0.0685
   92SAPS   H6R 8990   4.023   2.179   7.685 -2.1327 -0.4213 -1.0242
   92SAPS   C27 8991   4.025   2.391   7.606 -0.2857  0.4272 -0.4032
   92SAPS   H7R 8992   3.921   2.422   7.629  0.3102  1.4268  1.1052
   92SAPS   H7S 8993   4.034   2.428   7.501  1.2840 -0.0497 -0.4668
   92SAPS   C28 8994   4.116   2.471   7.704  0.2773 -0.0879  0.4783
   92SAPS   H8R 8995   4.223   2.448   7.695  0.7342  0.9785  2.6061
   92SAPS   C29 8996   4.077   2.555   7.797  0.1122  0.0886  0.3846
   92SAPS   H9R 8997   4.153   2.604   7.859 -1.0457  2.6322 -0.1002
   92SAPS  C210 8998   3.933   2.595   7.825  0.1017 -0.1466 -0.0847
   92SAPS  H10R 8999   3.858   2.582   7.744 -1.2169  0.3724  1.0196
   92SAPS  H10S 9000   3.932   2.705   7.838 -1.8836 -0.1953  0.4045
   92SAPS  C211 9001   3.873   2.519   7.944 -0.3208 -0.0871  0.0802
   92SAPS  H11R 9002   3.862   2.410   7.932 -1.1522 -0.1461  1.1828
   92SAPS  C212 9003   3.815   2.582   8.054 -0.0669  0.0856 -0.2176
   92SAPS  H12R 9004   3.787   2.513   8.134 -2.0488 -0.3984 -1.2514
   92SAPS  C213 9005   3.809   2.728   8.078 -0.1484  0.4964  0.6391
   92SAPS  H13R 9006   3.735   2.771   8.007  0.3530 -1.4402 -1.1499
   92SAPS  H13S 9007   3.908   2.770   8.048  0.7957 -2.1300 -0.1552
   92SAPS  C214 9008   3.767   2.771   8.217 -0.0588  0.8849  0.6212
   92SAPS  H14R 9009   3.828   2.849   8.266 -1.2869  2.5312 -0.3493
   92SAPS  C215 9010   3.652   2.726   8.287 -0.6649 -0.6052  0.3345
   92SAPS  H15R 9011   3.629   2.773   8.384 -1.3536  2.2308 -1.1125
   92SAPS  C216 9012   3.548   2.632   8.248 -0.1028  1.0095  0.2729
   92SAPS  H16R 9013   3.544   2.544   8.316  3.4437  2.2886  2.4432
   92SAPS  H16S 9014   3.554   2.599   8.142 -1.2398 -1.4831  0.9039
   92SAPS  C217 9015   3.413   2.708   8.265 -0.2661  0.6570 -0.1090
   92SAPS  H17R 9016   3.337   2.665   8.196  0.7549  0.9399 -1.4622
   92SAPS  H17S 9017   3.426   2.811   8.224 -1.0465  1.2798  1.1601
   92SAPS  C218 9018   3.347   2.704   8.404 -0.3121  0.3736 -0.5130
   92SAPS  H18R 9019   3.425   2.732   8.478 -0.4293  0.0966 -0.2855
   92SAPS  H18S 9020   3.312   2.602   8.430  0.0054  0.6468  1.0985
   92SAPS  C219 9021   3.232   2.809   8.398  0.6891 -0.0887 -0.1152
   92SAPS  H19R 9022   3.147   2.779   8.333 -1.8681 -1.9849  3.7165
   92SAPS  H19S 9023   3.279   2.905   8.370 -0.9326  0.6059 -0.5589
   92SAPS  C220 9024   3.172   2.861   8.529 -0.0846  0.2406 -1.1995
   92SAPS  H20R 9025   3.127   2.773   8.579 -1.5787  2.3882  1.5018
   92SAPS  H20S 9026   3.098   2.942   8.511 -0.0066  0.6203  0.0998
   92SAPS  H20T 9027   3.249   2.901   8.598 -1.4706 -1.6731  1.6538
   92SAPS   C33 9028   4.785   1.885   7.260  0.0681 -0.8308  0.5405
   92SAPS   H3X 9029   4.859   1.829   7.198  0.2335  1.6515 -1.6642
   92SAPS   H3Y 9030   4.695   1.824   7.284  1.0667 -2.1742  1.0213
   92SAPS   C34 9031   4.847   1.921   7.393 -0.2225 -0.2660  0.1018
   92SAPS   H4X 9032   4.945   1.974   7.395 -0.5438  0.3304  0.4387
   92SAPS   H4Y 9033   4.866   1.831   7.455 -0.1696  0.3233  0.9614
   92SAPS   C35 9034   4.768   2.017   7.478  0.1182  0.0537 -0.5156
   92SAPS   H5X 9035   4.737   2.106   7.420 -0.3584 -0.3195 -0.8408
   92SAPS   H5Y 9036   4.831   2.062   7.559  2.3285 -0.8273 -1.6672
   92SAPS   C36 9037   4.649   1.955   7.552  0.1468  0.0148 -0.2456
   92SAPS   H6X 9038   4.674   1.853   7.589 -1.7990 -0.0706  0.9567
   92SAPS   H6Y 9039   4.563   1.952   7.482 -0.8497  1.0859  0.8670
   92SAPS   C37 9040   4.598   2.037   7.667  0.8261  0.4206 -0.2017
   92SAPS   H7X 9041   4.569   2.137   7.629 -1.0906  0.4761  1.2912
   92SAPS   H7Y 9042   4.667   2.042   7.754 -2.3738  2.3339  2.4210
   92SAPS   C38 9043   4.475   1.965   7.722 -0.6705  0.0509  0.6394
   92SAPS   H8X 9044   4.488   1.855   7.730  1.4452  0.1309 -0.8821
   92SAPS   H8Y 9045   4.384   1.973   7.658 -0.5217  0.2274  0.4509
   92SAPS   C39 9046   4.430   2.020   7.857  0.3497  0.2264 -0.4729
   92SAPS   H9X 9047   4.517   2.010   7.926  0.9284  4.6723 -0.2864
   92SAPS   H9Y 9048   4.349   1.960   7.904  1.4450 -0.2193  0.9694
   92SAPS  C310 9049   4.394   2.169   7.863  0.4236  0.4421  0.2853
   92SAPS  H10X 9050   4.315   2.186   7.787 -1.3859 -0.1571  1.9404
   92SAPS  H10Y 9051   4.490   2.221   7.840  1.3964 -0.9425  1.0781
   92SAPS  C311 9052   4.336   2.225   7.997 -0.2991 -0.0803 -0.4552
   92SAPS  H11X 9053   4.278   2.143   8.045  0.9669 -1.1206 -0.6554
   92SAPS  H11Y 9054   4.261   2.306   7.987  1.2549  1.2438 -2.0184
   92SAPS  C312 9055   4.453   2.269   8.092  0.2478 -0.0742 -0.9228
   92SAPS  H12X 9056   4.495   2.364   8.053 -0.0793  0.9902  1.1708
   92SAPS  H12Y 9057   4.537   2.198   8.081  0.3498  0.1972 -2.0444
   92SAPS  C313 9058   4.404   2.287   8.232  0.2556 -0.1090  0.1558
   92SAPS  H13X 9059   4.361   2.196   8.277 -2.3284  1.2215  0.5680
   92SAPS  H13Y 9060   4.313   2.348   8.209  0.7200  0.7159  0.4596
   92SAPS  C314 9061   4.500   2.359   8.323 -0.0964 -0.0280 -0.1494
   92SAPS  H14X 9062   4.560   2.440   8.276 -0.2643  0.2090  0.0435
   92SAPS  H14Y 9063   4.577   2.291   8.366 -0.6647  0.2144  1.3050
   92SAPS  C315 9064   4.423   2.427   8.437  0.0588 -0.0630 -0.5381
   92SAPS  H15X 9065   4.362   2.350   8.490  0.8530  1.7909  3.4903
   92SAPS  H15Y 9066   4.351   2.500   8.395  0.0868  1.3440  1.6905
   92SAPS  C316 9067   4.510   2.504   8.531  0.0148  0.4913 -0.4538
   92SAPS  H16X 9068   4.559   2.581   8.468 -0.9684  0.2290 -1.5909
   92SAPS  H16Y 9069   4.584   2.438   8.582 -1.1569 -0.2421  0.3731
   92SAPS  C317 9070   4.426   2.593   8.629  0.2547  0.4708  0.0902
   92SAPS  H17X 9071   4.367   2.521   8.690 -1.4175  2.2149  0.6336
   92SAPS  H17Y 9072   4.359   2.661   8.573  0.2515  0.3301 -0.0777
   92SAPS  C318 9073   4.507   2.683   8.728 -0.3656  0.1402  0.5696
   92SAPS  H18X 9074   4.610   2.642   8.727 -0.1760  0.6087 -0.7684
   92SAPS  H18Y 9075   4.469   2.683   8.832  2.3780 -1.2943  1.6721
   92SAPS  H18Z 9076   4.510   2.783   8.681  0.2668 -0.7747 -1.4814
   93SAPS     N 9077   6.286   3.533   6.126 -0.3720  0.0862 -0.2047
   93SAPS   HN1 9078   6.305   3.539   6.228  2.2282 -0.6905 -0.5815
   93SAPS   HN2 9079   6.347   3.458   6.088  0.3155  2.6115 -4.6813
   93SAPS   HN3 9080   6.312   3.617   6.071 -2.9012  0.1709 -1.3942
   93SAPS   C12 9081   6.143   3.494   6.090 -0.2328  0.3545 -1.6353
   93SAPS  H12A 9082   6.077   3.578   6.105 -1.1784 -0.8214  1.2920
   93SAPS   C13 9083   6.128   3.444   5.946 -0.1585 -0.2536 -0.0248
   93SAPS  O13A 9084   6.222   3.424   5.869 -0.1810 -0.5657  0.3376
   93SAPS  O13B 9085   6.012   3.423   5.899 -0.1420 -0.1660  0.1070
   93SAPS   C11 9086   6.107   3.391   6.195 -0.0140  0.0655 -0.7188
   93SAPS  H11A 9087   6.174   3.303   6.184 -1.0035 -0.8950  0.6896
   93SAPS  H11B 9088   6.004   3.354   6.177  0.6070 -1.9955 -0.2576
   93SAPS     P 9089   6.038   3.370   6.436 -0.3950 -0.0913 -0.1924
   93SAPS   O13 9090   5.899   3.417   6.422  0.1302  0.1417  0.1431
   93SAPS   O14 9091   6.064   3.229   6.419 -0.3250  0.2215  0.3989
   93SAPS   O12 9092   6.122   3.447   6.329 -0.1625  0.6525 -0.0498
   93SAPS   O11 9093   6.092   3.425   6.572  0.3000  0.5396 -0.8702
   93SAPS    C1 9094   6.222   3.385   6.611  0.0779  0.5591  0.2229
   93SAPS    HA 9095   6.273   3.306   6.552  1.0816 -1.1304  3.1091
   93SAPS    HB 9096   6.285   3.475   6.597  2.2781 -0.5144  2.3218
   93SAPS    C2 9097   6.239   3.357   6.762  0.0020  0.2240  1.0108
   93SAPS    HS 9098   6.340   3.315   6.780  0.4030  0.0169 -1.3685
   93SAPS   O21 9099   6.144   3.267   6.810  0.2309  1.0363 -0.8042
   93SAPS   C21 9100   6.151   3.143   6.758  0.7465 -1.3913  0.5053
   93SAPS   O22 9101   6.232   3.103   6.676  0.3659 -0.1306  0.0057
   93SAPS   C22 9102   6.036   3.053   6.809  0.0991 -0.0394 -0.8527
   93SAPS   H2R 9103   5.980   3.119   6.878 -1.3014 -1.8800 -0.1657
   93SAPS   H2S 9104   5.964   3.025   6.730  0.1315 -1.6557 -0.3559
   93SAPS    C3 9105   6.231   3.485   6.844 -0.1155 -0.3330  0.5132
   93SAPS    HX 9106   6.128   3.523   6.827  0.3605  0.5445 -0.6356
   93SAPS    HY 9107   6.311   3.540   6.789  0.1250 -2.7466 -1.7150
   93SAPS   O31 9108   6.260   3.467   6.985  0.7195  0.3465 -0.1028
   93SAPS   C31 9109   6.327   3.567   7.037 -0.6985  0.1181 -0.5793
   93SAPS   O32 9110   6.364   3.665   6.972  0.3771  0.2663 -0.2425
   93SAPS   C32 9111   6.345   3.553   7.185 -0.1856  0.0747 -0.4342
   93SAPS   H2X 9112   6.372   3.450   7.216 -0.3325  0.4409  0.9838
   93SAPS   H2Y 9113   6.241   3.573   7.218  0.6565 -0.0371  2.5605
   93SAPS   C23 9114   6.097   2.925   6.875  0.5950 -0.1284 -0.3310
   93SAPS   H3R 9115   6.177   2.890   6.805 -0.8241  1.6904 -3.0648
   93SAPS   H3S 9116   6.012   2.855   6.881 -0.9884  1.5532 -1.9312
   93SAPS   C24 9117   6.128   2.940   7.023 -0.5609  0.0168 -0.2735
   93SAPS   H4R 9118   6.163   2.837   7.044  0.9922  0.5748 -0.0298
   93SAPS   H4S 9119   6.043   2.969   7.089  0.0009 -1.2918  1.0928
   93SAPS   C25 9120   6.249   3.016   7.060 -0.6524 -0.1230  0.3280
   93SAPS   H5R 9121   6.288   3.085   6.984 -4.1695  0.4233 -1.1388
   93SAPS   C26 9122   6.303   3.027   7.184  0.2803 -0.6073  0.2124
   93SAPS   H6R 9123   6.395   3.087   7.196  0.5096 -0.9203  0.0217
   93SAPS   C27 9124   6.244   2.960   7.300 -0.3013  0.4385 -0.4441
   93SAPS   H7R 9125   6.265   2.851   7.305  1.6990  0.7901 -0.2292
   93SAPS   H7S 9126   6.135   2.978   7.299 -0.7358 -1.6699  1.4799
   93SAPS   C28 9127   6.308   3.012   7.430  0.2735  0.0344 -0.0739
   93SAPS   H8R 9128   6.411   3.050   7.424 -0.3294  1.8426  0.2553
   93SAPS   C29 9129   6.249   3.008   7.554 -0.5126  0.1631 -0.1668
   93SAPS   H9R 9130   6.303   3.066   7.630  3.7467 -0.2683 -2.5199
   93SAPS  C210 9131   6.111   2.963   7.584  0.0199 -0.3176 -0.2546
   93SAPS  H10R 9132   6.112   2.866   7.639  1.2107 -0.8908 -1.2378
   93SAPS  H10S 9133   6.043   2.940   7.499 -1.7041 -1.8872  1.4675
   93SAPS  C211 9134   6.041   3.058   7.680  0.1537 -0.5428  0.4076
   93SAPS  H11R 9135   5.988   3.139   7.628 -0.6335 -0.1043  1.8685
   93SAPS  C212 9136   6.027   3.041   7.813 -1.1707  0.5234  0.1732
   93SAPS  H12R 9137   5.962   3.102   7.876  0.5600  0.4093  2.1995
   93SAPS  C213 9138   6.104   2.942   7.892 -0.0133  0.2946  0.3136
   93SAPS  H13R 9139   6.106   2.987   7.993 -0.8186  0.6945  0.1610
   93SAPS  H13S 9140   6.210   2.934   7.861  0.7165  0.4369  2.5881
   93SAPS  C214 9141   6.017   2.811   7.890 -0.3797 -0.3934 -0.5107
   93SAPS  H14R 9142   6.002   2.766   7.791  2.8538 -0.1670 -1.2136
   93SAPS  C215 9143   5.960   2.749   7.993  0.5038 -0.0726 -0.3585
   93SAPS  H15R 9144   5.896   2.661   7.978 -0.4921  0.6400 -0.3635
   93SAPS  C216 9145   5.971   2.799   8.137  0.3703 -0.1149 -0.7980
   93SAPS  H16R 9146   5.917   2.894   8.158  1.8627  0.1818  2.2501
   93SAPS  H16S 9147   6.075   2.828   8.161 -0.0905  3.1190 -2.0819
   93SAPS  C217 9148   5.929   2.696   8.241  0.4727  0.2849  0.9607
   93SAPS  H17R 9149   5.981   2.602   8.215 -0.7156 -1.0573  3.0886
   93SAPS  H17S 9150   5.823   2.665   8.231  0.6704 -0.2672  0.5662
   93SAPS  C218 9151   5.962   2.727   8.387  0.0506 -0.0640  0.3331
   93SAPS  H18R 9152   5.931   2.831   8.413  1.2605  0.2688  0.5192
   93SAPS  H18S 9153   6.073   2.730   8.393  0.0071  1.1676  0.8749
   93SAPS  C219 9154   5.903   2.616   8.477 -0.1830 -0.0221  0.4872
   93SAPS  H19R 9155   5.947   2.526   8.430 -1.6914  0.1122 -1.2687
   93SAPS  H19S 9156   5.793   2.618   8.462 -0.0706 -0.6835 -0.4835
   93SAPS  C220 9157   5.939   2.627   8.627  0.1270  0.3815 -0.2568
   93SAPS  H20R 9158   5.913   2.531   8.676 -1.0297  0.6105 -0.4005
   93SAPS  H20S 9159   5.886   2.714   8.671 -0.8872  0.2231 -1.1409
   93SAPS  H20T 9160   6.048   2.646   8.640  0.4833 -0.9871 -0.9776
   93SAPS   C33 9161   6.456   3.649   7.239  0.1038  0.6861 -0.1218
   93SAPS   H3X 9162   6.424   3.756   7.234  0.1713  0.6661 -1.1531
   93SAPS   H3Y 9163   6.554   3.637   7.189 -0.5889 -0.8876 -1.1871
   93SAPS   C34 9164   6.450   3.640   7.396  0.0118  0.4841  0.3174
   93SAPS   H4X 9165   6.441   3.530   7.414  1.2300  0.2889 -0.1728
   93SAPS   H4Y 9166   6.361   3.689   7.441 -0.4156  2.1831 -2.1758
   93SAPS   C35 9167   6.585   3.690   7.462  0.0797 -0.0955  0.4934
   93SAPS   H5X 9168   6.602   3.800   7.462  0.2653 -0.0311 -2.3603
   93SAPS   H5Y 9169   6.669   3.649   7.402 -0.6770  0.9941 -1.4141
   93SAPS   C36 9170   6.597   3.635   7.608  0.3863 -0.9776 -0.5573
   93SAPS   H6X 9171   6.502   3.657   7.661  0.4175 -0.3266 -0.7571
   93SAPS   H6Y 9172   6.665   3.703   7.664 -3.4196  1.9596  0.9382
   93SAPS   C37 9173   6.641   3.491   7.618  0.4830 -0.8038 -0.1377
   93SAPS   H7X 9174   6.732   3.486   7.556 -0.0559  0.5913 -1.0839
   93SAPS   H7Y 9175   6.570   3.421   7.570 -2.5441  2.1863 -0.4478
   93SAPS   C38 9176   6.689   3.446   7.762 -0.0136  0.2949  0.6198
   93SAPS   H8X 9177   6.599   3.431   7.826  0.5646  1.7543  1.8232
   93SAPS   H8Y 9178   6.749   3.531   7.800 -1.2171  1.4450  0.0500
   93SAPS   C39 9179   6.786   3.319   7.757 -0.7092 -0.0412 -0.2694
   93SAPS   H9X 9180   6.861   3.346   7.681  0.4209  1.6698  1.3572
   93SAPS   H9Y 9181   6.730   3.225   7.739 -3.2080  1.1149  0.8028
   93SAPS  C310 9182   6.853   3.297   7.894 -0.3057  0.0044 -0.5982
   93SAPS  H10X 9183   6.780   3.301   7.978 -0.3564 -2.2401 -0.4664
   93SAPS  H10Y 9184   6.922   3.382   7.909 -1.0809  0.8154 -1.5338
   93SAPS  C311 9185   6.933   3.171   7.894 -0.1198 -0.5685  0.0881
   93SAPS  H11X 9186   7.000   3.159   7.806 -0.1429 -3.3271  0.3382
   93SAPS  H11Y 9187   6.866   3.082   7.895  0.2618 -0.8793 -0.7450
   93SAPS  C312 9188   7.014   3.153   8.030  0.0674  0.3955  0.3781
   93SAPS  H12X 9189   6.950   3.160   8.120  0.8482  0.5095  0.9311
   93SAPS  H12Y 9190   7.079   3.242   8.032  0.0435  0.4378 -0.4636
   93SAPS  C313 9191   7.095   3.033   8.037  0.0728 -0.1538 -0.2726
   93SAPS  H13X 9192   7.177   3.042   7.963  0.8556 -0.8308  0.4788
   93SAPS  H13Y 9193   7.043   2.943   7.997  0.5374 -1.9364  2.7801
   93SAPS  C314 9194   7.155   3.004   8.181  0.2818  1.0534 -0.0532
   93SAPS  H14X 9195   7.072   2.983   8.251 -0.7691 -1.0934 -1.8170
   93SAPS  H14Y 9196   7.207   3.099   8.206  3.8121 -0.7442  0.0192
   93SAPS  C315 9197   7.252   2.890   8.174  0.3829 -0.2041  0.5068
   93SAPS  H15X 9198   7.338   2.917   8.109 -0.0695 -2.0960 -0.9681
   93SAPS  H15Y 9199   7.218   2.795   8.127  2.2907 -1.4735  1.5564
   93SAPS  C316 9200   7.314   2.849   8.305  0.3752 -0.9478 -0.1861
   93SAPS  H16X 9201   7.237   2.804   8.371  0.8422 -0.8871  0.4087
   93SAPS  H16Y 9202   7.356   2.940   8.354  0.5406 -1.1368  0.0253
   93SAPS  C317 9203   7.437   2.756   8.284  0.8710 -0.2432 -0.9623
   93SAPS  H17X 9204   7.513   2.810   8.223  2.6301 -0.4758  0.9091
   93SAPS  H17Y 9205   7.398   2.667   8.229  1.0139 -0.7656 -0.2331
   93SAPS  C318 9206   7.497   2.723   8.423 -0.7726  0.2140 -0.2635
   93SAPS  H18X 9207   7.430   2.689   8.504 -1.5909 -1.5357 -1.6120
   93SAPS  H18Y 9208   7.548   2.810   8.469  1.7718 -0.7151 -1.1431
   93SAPS  H18Z 9209   7.578   2.648   8.408 -1.5653 -0.6193 -0.4736
   94SAPS     N 9210   5.607   6.335   5.769  0.1806 -0.2385 -0.3790
   94SAPS   HN1 9211   5.631   6.236   5.751  2.0374  0.4860 -2.3888
   94SAPS   HN2 9212   5.545   6.340   5.853  1.6534  1.3749  0.6860
   94SAPS   HN3 9213   5.559   6.379   5.688  1.2309  4.6782  1.2897
   94SAPS   C12 9214   5.736   6.404   5.782  0.0226 -0.2092  0.2212
   94SAPS  H12A 9215   5.789   6.384   5.690 -1.4128  1.7787 -1.1540
   94SAPS   C13 9216   5.720   6.559   5.791 -0.3688  0.4909  0.1203
   94SAPS  O13A 9217   5.604   6.607   5.774 -0.1854 -0.6407 -0.0644
   94SAPS  O13B 9218   5.825   6.624   5.804 -0.1872 -0.4949  0.1126
   94SAPS   C11 9219   5.821   6.335   5.896  0.0852 -0.1664  0.5946
   94SAPS  H11A 9220   5.772   6.353   5.993  0.6813 -0.4854  0.9612
   94SAPS  H11B 9221   5.919   6.386   5.889  0.1310 -0.4811 -1.9079
   94SAPS     P 9222   5.951   6.111   5.874 -0.1540 -0.3775  0.0299
   94SAPS   O13 9223   5.910   5.976   5.887  0.2903 -0.1623 -0.0221
   94SAPS   O14 9224   6.039   6.140   5.761  0.2319 -0.1459  0.1899
   94SAPS   O12 9225   5.822   6.197   5.868 -0.0749  0.1852  0.5469
   94SAPS   O11 9226   6.009   6.163   6.009 -0.4721 -0.1848 -0.0366
   94SAPS    C1 9227   5.996   6.087   6.127 -0.3881  0.0452  0.7744
   94SAPS    HA 9228   6.022   5.980   6.114  1.0369  0.5424 -0.8783
   94SAPS    HB 9229   6.066   6.129   6.203 -0.5921  0.9564  0.4763
   94SAPS    C2 9230   5.855   6.095   6.199  0.8426 -0.6107  0.1583
   94SAPS    HS 9231   5.784   6.049   6.126  1.4500 -1.0256 -0.1823
   94SAPS   O21 9232   5.827   6.224   6.229  0.5849  0.0216  0.0869
   94SAPS   C21 9233   5.700   6.247   6.259  0.5451  0.0856  0.5279
   94SAPS   O22 9234   5.601   6.172   6.256 -0.0306  0.6108 -0.1166
   94SAPS   C22 9235   5.677   6.396   6.293 -0.1647  0.2818 -0.0215
   94SAPS   H2R 9236   5.750   6.419   6.374 -0.2105  2.5710 -0.5813
   94SAPS   H2S 9237   5.707   6.461   6.208  1.9103  0.5888  0.8831
   94SAPS    C3 9238   5.845   6.003   6.328  0.5842 -0.1190  0.4981
   94SAPS    HX 9239   5.881   5.905   6.291  0.4458 -0.5115  1.3713
   94SAPS    HY 9240   5.740   5.992   6.365  0.7779 -1.1128  0.7803
   94SAPS   O31 9241   5.908   6.065   6.438  0.3467  0.4116  0.1048
   94SAPS   C31 9242   6.029   6.020   6.466  0.2782  0.1938  0.6022
   94SAPS   O32 9243   6.086   5.926   6.413  0.1161 -0.4005  0.5478
   94SAPS   C32 9244   6.096   6.104   6.572 -0.2242 -0.2137  0.3488
   94SAPS   H2X 9245   6.050   6.204   6.559  0.0347  0.2029  2.3183
   94SAPS   H2Y 9246   6.204   6.110   6.547 -0.3197 -0.5029 -0.1440
   94SAPS   C23 9247   5.535   6.438   6.333  0.1610 -0.0229  0.3542
   94SAPS   H3R 9248   5.461   6.400   6.258  0.5410  2.0692 -1.1604
   94SAPS   H3S 9249   5.528   6.542   6.295  0.9759 -0.1415 -0.1483
   94SAPS   C24 9250   5.488   6.421   6.478 -0.3481  0.2322 -0.0660
   94SAPS   H4R 9251   5.380   6.444   6.486 -0.8895 -1.2249 -2.3768
   94SAPS   H4S 9252   5.537   6.500   6.540  1.9222 -0.1253 -1.2878
   94SAPS   C25 9253   5.512   6.285   6.543 -0.0700 -0.7111 -0.0816
   94SAPS   H5R 9254   5.458   6.203   6.493 -0.2882 -2.4288  2.7355
   94SAPS   C26 9255   5.590   6.258   6.646 -0.4289 -0.0406  0.5023
   94SAPS   H6R 9256   5.584   6.162   6.700  0.4985  0.3726  1.3872
   94SAPS   C27 9257   5.676   6.354   6.724  0.0536  0.4655 -0.6816
   94SAPS   H7R 9258   5.683   6.442   6.656 -1.1504  0.6128 -0.6335
   94SAPS   H7S 9259   5.774   6.302   6.734 -1.5834 -3.0071 -1.3064
   94SAPS   C28 9260   5.621   6.387   6.857 -0.1551  0.0121 -0.3674
   94SAPS   H8R 9261   5.524   6.438   6.846 -0.0935  0.2385  0.1015
   94SAPS   C29 9262   5.679   6.377   6.988  0.9123  0.1253  0.4955
   94SAPS   H9R 9263   5.617   6.420   7.068  0.2244  1.6248 -0.7788
   94SAPS  C210 9264   5.816   6.335   7.024 -0.8432 -0.1298 -0.0301
   94SAPS  H10R 9265   5.866   6.418   7.077  0.0819 -0.0818 -0.9367
   94SAPS  H10S 9266   5.874   6.316   6.930  0.1273 -0.5159  0.6269
   94SAPS  C211 9267   5.808   6.215   7.115 -0.2282 -0.4211  0.3215
   94SAPS  H11R 9268   5.776   6.126   7.057 -0.4728  1.4277 -2.5822
   94SAPS  C212 9269   5.814   6.206   7.248 -0.4438 -0.8274  0.5115
   94SAPS  H12R 9270   5.798   6.107   7.294  0.5331 -0.4294  1.7569
   94SAPS  C213 9271   5.834   6.319   7.350 -0.1417  0.3861  0.5546
   94SAPS  H13R 9272   5.749   6.341   7.419  1.6266  0.9684  2.6482
   94SAPS  H13S 9273   5.875   6.407   7.295  0.5900 -0.9244 -1.0634
   94SAPS  C214 9274   5.941   6.282   7.448 -0.4298 -0.1329  0.3791
   94SAPS  H14R 9275   6.011   6.206   7.412 -0.3007 -0.6644  1.6785
   94SAPS  C215 9276   5.945   6.316   7.576  0.5061  0.4732  0.0395
   94SAPS  H15R 9277   6.025   6.277   7.641  0.9168  1.1371 -0.0560
   94SAPS  C216 9278   5.848   6.401   7.658  0.1871  0.1907 -0.7658
   94SAPS  H16R 9279   5.760   6.429   7.596 -0.2350 -0.3373 -0.4177
   94SAPS  H16S 9280   5.901   6.495   7.685  1.7961 -0.9836  0.3763
   94SAPS  C217 9281   5.802   6.332   7.794 -0.1181 -0.6394  0.8683
   94SAPS  H17R 9282   5.772   6.227   7.776  1.7439 -1.0525 -0.1196
   94SAPS  H17S 9283   5.723   6.394   7.841 -1.7749 -0.0547 -2.3994
   94SAPS  C218 9284   5.922   6.327   7.892  0.2152  0.1196 -0.7036
   94SAPS  H18R 9285   5.976   6.421   7.870 -0.8594  0.6224 -1.2955
   94SAPS  H18S 9286   5.994   6.248   7.863  0.6094 -0.1059  0.8202
   94SAPS  C219 9287   5.880   6.310   8.041 -0.5021  0.6815 -0.9150
   94SAPS  H19R 9288   5.811   6.396   8.059 -2.1385 -0.8956  0.7611
   94SAPS  H19S 9289   5.957   6.323   8.119 -0.5555  0.2102 -0.7811
   94SAPS  C220 9290   5.805   6.177   8.073  0.6753 -0.5485 -1.4976
   94SAPS  H20R 9291   5.884   6.101   8.090  2.6848  1.7401 -0.0523
   94SAPS  H20S 9292   5.751   6.132   7.987 -0.3740 -1.8034 -0.2387
   94SAPS  H20T 9293   5.744   6.176   8.166  4.2522 -2.7255  1.0993
   94SAPS   C33 9294   6.058   6.055   6.717  0.6624 -1.4091 -0.9958
   94SAPS   H3X 9295   6.081   5.947   6.723  0.5471 -1.3571  1.2506
   94SAPS   H3Y 9296   5.954   6.087   6.739  0.3463 -1.9912 -1.6143
   94SAPS   C34 9297   6.149   6.118   6.829  0.1602  0.0791  0.0221
   94SAPS   H4X 9298   6.137   6.227   6.815 -3.6289 -0.0681  1.0441
   94SAPS   H4Y 9299   6.252   6.084   6.806  0.7045  1.0889  0.8880
   94SAPS   C35 9300   6.106   6.053   6.967 -0.3510  0.2681  1.0489
   94SAPS   H5X 9301   6.110   5.943   6.955  1.8094  0.3415  0.6914
   94SAPS   H5Y 9302   6.005   6.094   6.991 -1.1399 -0.2943 -1.0951
   94SAPS   C36 9303   6.205   6.084   7.076  0.2033 -0.4070 -0.2705
   94SAPS   H6X 9304   6.227   6.189   7.049 -0.4903  0.1692  1.2967
   94SAPS   H6Y 9305   6.308   6.043   7.064 -0.2163 -0.9610 -2.2589
   94SAPS   C37 9306   6.162   6.057   7.218 -0.5127 -0.6190  0.1657
   94SAPS   H7X 9307   6.052   6.070   7.229 -0.8582  2.1982 -4.1404
   94SAPS   H7Y 9308   6.216   6.128   7.284  0.6380 -1.0810 -0.2583
   94SAPS   C38 9309   6.204   5.917   7.264  0.4325  0.3804  0.0250
   94SAPS   H8X 9310   6.315   5.910   7.264  0.3447 -1.4393 -1.3837
   94SAPS   H8Y 9311   6.166   5.844   7.190 -0.8285  0.2734  0.7561
   94SAPS   C39 9312   6.143   5.869   7.395  0.6094  0.2567 -0.0178
   94SAPS   H9X 9313   6.184   5.766   7.403  2.1259  0.7852 -0.5722
   94SAPS   H9Y 9314   6.033   5.857   7.392  0.6443 -0.6500  1.3137
   94SAPS  C310 9315   6.178   5.952   7.522  0.7488 -0.3887 -0.0785
   94SAPS  H10X 9316   6.142   6.057   7.517  0.7438 -0.4374 -1.1415
   94SAPS  H10Y 9317   6.282   5.981   7.496  0.4194  1.4852  0.5273
   94SAPS  C311 9318   6.151   5.886   7.655 -0.5052 -0.5953  0.6383
   94SAPS  H11X 9319   6.220   5.799   7.661  0.5951  0.0430 -1.5900
   94SAPS  H11Y 9320   6.045   5.852   7.659 -0.8006  0.2913  4.9622
   94SAPS  C312 9321   6.176   5.982   7.769  0.2907  0.5487  0.4973
   94SAPS  H12X 9322   6.108   6.069   7.777 -1.0129 -0.2276 -1.5043
   94SAPS  H12Y 9323   6.276   6.030   7.762  0.9361 -0.7473  0.4003
   94SAPS  C313 9324   6.167   5.902   7.908 -0.3756  0.6379  0.1661
   94SAPS  H13X 9325   6.234   5.814   7.906 -0.7406  0.3675 -0.7665
   94SAPS  H13Y 9326   6.061   5.871   7.924  0.6763 -2.1072  2.4851
   94SAPS  C314 9327   6.213   5.999   8.017  0.1318  0.3043  0.3250
   94SAPS  H14X 9328   6.185   6.100   7.981 -0.0648 -0.6209 -2.3313
   94SAPS  H14Y 9329   6.323   5.984   8.024 -0.0831 -2.3124 -0.6693
   94SAPS  C315 9330   6.155   5.976   8.161 -0.1518  0.3566  0.9679
   94SAPS  H15X 9331   6.172   5.869   8.186 -0.2378 -0.1354 -0.9676
   94SAPS  H15Y 9332   6.047   5.999   8.146  0.1856  0.4598 -1.7498
   94SAPS  C316 9333   6.228   6.066   8.262  0.7005 -0.0486 -0.1665
   94SAPS  H16X 9334   6.190   6.166   8.232  1.1902  0.0353 -0.5297
   94SAPS  H16Y 9335   6.338   6.048   8.255  0.3783 -3.7327  1.7498
   94SAPS  C317 9336   6.189   6.032   8.403 -0.1659  0.4614 -0.1518
   94SAPS  H17X 9337   6.258   6.061   8.484 -0.3065  0.0746  0.1087
   94SAPS  H17Y 9338   6.201   5.922   8.411 -0.3353  0.4441 -0.1286
   94SAPS  C318 9339   6.046   6.069   8.440  0.2256 -0.1833  0.8330
   94SAPS  H18X 9340   6.038   6.167   8.491  1.4997 -0.7875  2.2915
   94SAPS  H18Y 9341   6.006   6.002   8.519 -3.3833 -0.6143 -1.1467
   94SAPS  H18Z 9342   5.971   6.050   8.361 -0.0445 -0.1112  1.0709
   95SAPS     N 9343   3.310   4.544   6.188  0.0329 -0.2782  0.1705
   95SAPS   HN1 9344   3.282   4.463   6.247 -3.6170  1.4800  1.1451
   95SAPS   HN2 9345   3.382   4.600   6.238  0.9900  0.4347 -1.8997
   95SAPS   HN3 9346   3.223   4.598   6.169  0.9148  1.6482  1.3141
   95SAPS   C12 9347   3.368   4.507   6.058  0.2607 -0.6382  0.6431
   95SAPS  H12A 9348   3.309   4.431   6.009 -0.4465  0.1295  0.2873
   95SAPS   C13 9349   3.368   4.630   5.954 -0.6057  0.6480 -0.1121
   95SAPS  O13A 9350   3.334   4.747   5.986 -0.0835 -0.5850  0.0094
   95SAPS  O13B 9351   3.419   4.601   5.842 -0.3073 -0.1612 -0.2710
   95SAPS   C11 9352   3.513   4.454   6.081 -0.8894  0.1843 -0.3665
   95SAPS  H11A 9353   3.571   4.548   6.092 -1.4512  0.3611  1.3032
   95SAPS  H11B 9354   3.552   4.397   5.994  1.4941  1.2169 -0.0497
   95SAPS     P 9355   3.635   4.266   6.215  0.1738  0.0872  0.3875
   95SAPS   O13 9356   3.572   4.132   6.193 -0.6748  0.0954  0.1028
   95SAPS   O14 9357   3.749   4.310   6.134  0.0159  0.0077 -1.0245
   95SAPS   O12 9358   3.522   4.372   6.191 -0.1107  0.1946 -1.0364
   95SAPS   O11 9359   3.669   4.287   6.369  0.0599 -0.2743  0.0393
   95SAPS    C1 9360   3.663   4.401   6.453 -0.2830 -0.8348  0.5005
   95SAPS    HA 9361   3.764   4.419   6.495 -1.0121  3.9652  0.7838
   95SAPS    HB 9362   3.659   4.498   6.399 -1.3854 -0.6687  0.8670
   95SAPS    C2 9363   3.547   4.406   6.557  0.2051  0.2361 -0.6608
   95SAPS    HS 9364   3.517   4.513   6.569  0.3242  0.2178 -0.1838
   95SAPS   O21 9365   3.598   4.339   6.679  0.0863  0.4231  0.3488
   95SAPS   C21 9366   3.662   4.421   6.763 -0.1380  0.0295 -0.1233
   95SAPS   O22 9367   3.696   4.537   6.746  0.3427  0.3249  0.3983
   95SAPS   C22 9368   3.689   4.344   6.891 -0.1872  0.4455 -0.3586
   95SAPS   H2R 9369   3.691   4.237   6.858 -0.7321  0.3656 -0.1509
   95SAPS   H2S 9370   3.788   4.377   6.928  0.8395 -0.7764 -1.8434
   95SAPS    C3 9371   3.427   4.335   6.501 -0.0426  0.4771  0.5206
   95SAPS    HX 9372   3.454   4.230   6.477 -2.8512 -0.5260  1.3733
   95SAPS    HY 9373   3.400   4.388   6.407 -1.3181  0.3030  0.7630
   95SAPS   O31 9374   3.315   4.332   6.592  0.6063  0.3204 -0.6418
   95SAPS   C31 9375   3.292   4.238   6.668  0.0668  0.6211  0.5891
   95SAPS   O32 9376   3.348   4.125   6.663 -0.8089 -0.1228 -0.3126
   95SAPS   C32 9377   3.181   4.281   6.764  0.6979 -0.8172  0.0376
   95SAPS   H2X 9378   3.092   4.321   6.712  0.3277  0.8848  1.8671
   95SAPS   H2Y 9379   3.216   4.369   6.822 -1.7520  0.8648 -0.9052
   95SAPS   C23 9380   3.564   4.346   6.990 -0.4487  0.0450  0.3921
   95SAPS   H3R 9381   3.476   4.308   6.934  0.1643  1.5810 -1.7315
   95SAPS   H3S 9382   3.550   4.448   7.031  0.9908 -0.2273  1.6115
   95SAPS   C24 9383   3.592   4.258   7.108  0.0971 -1.0812 -0.2413
   95SAPS   H4R 9384   3.618   4.155   7.077  3.9350 -0.4177  0.2747
   95SAPS   H4S 9385   3.502   4.250   7.172 -1.5837 -0.0574 -2.3483
   95SAPS   C25 9386   3.717   4.300   7.189 -0.0917 -0.3935 -0.0135
   95SAPS   H5R 9387   3.814   4.276   7.143  0.9933  2.3989  0.6093
   95SAPS   C26 9388   3.725   4.358   7.308 -0.0849 -0.5962  0.2627
   95SAPS   H6R 9389   3.824   4.388   7.345 -0.9973 -0.0136  2.4315
   95SAPS   C27 9390   3.605   4.387   7.392 -0.2519  0.2108  0.1996
   95SAPS   H7R 9391   3.515   4.325   7.375 -0.8457  1.4824 -1.4897
   95SAPS   H7S 9392   3.569   4.490   7.373  2.8792  1.6521  1.4439
   95SAPS   C28 9393   3.662   4.393   7.539 -1.3638  0.1956  0.0458
   95SAPS   H8R 9394   3.766   4.415   7.566 -0.8191 -3.9167  2.1256
   95SAPS   C29 9395   3.589   4.348   7.646 -0.5106  0.0216  0.2746
   95SAPS   H9R 9396   3.634   4.365   7.745 -1.4237  0.9026  0.5582
   95SAPS  C210 9397   3.455   4.281   7.652 -1.1364 -0.1652 -0.0859
   95SAPS  H10R 9398   3.468   4.176   7.685  0.1111 -0.1220 -0.3868
   95SAPS  H10S 9399   3.410   4.275   7.550 -0.6755  0.7772 -0.3556
   95SAPS  C211 9400   3.357   4.353   7.737  0.0494  0.3534 -0.5798
   95SAPS  H11R 9401   3.346   4.462   7.722  0.1068  0.4139 -0.2120
   95SAPS  C212 9402   3.297   4.292   7.838  0.6502  0.4014  0.6438
   95SAPS  H12R 9403   3.228   4.350   7.901  0.3048  0.3775  0.2901
   95SAPS  C213 9404   3.310   4.154   7.895 -0.0034 -0.2985  0.7384
   95SAPS  H13R 9405   3.408   4.109   7.868  0.5556  0.4961  1.4220
   95SAPS  H13S 9406   3.238   4.081   7.852  0.4291 -0.1155 -0.3343
   95SAPS  C214 9407   3.316   4.151   8.050 -0.1390  0.6594  0.0232
   95SAPS  H14R 9408   3.260   4.061   8.080  2.1652 -1.0794 -0.5326
   95SAPS  C215 9409   3.375   4.218   8.145 -0.9222 -0.6567 -0.0586
   95SAPS  H15R 9410   3.356   4.189   8.249  3.8289 -3.1955  0.3803
   95SAPS  C216 9411   3.473   4.326   8.110 -0.3676  0.3449  0.1343
   95SAPS  H16R 9412   3.506   4.321   8.004  1.1372 -2.7156  0.6221
   95SAPS  H16S 9413   3.566   4.297   8.164  0.0139 -0.7002 -1.0300
   95SAPS  C217 9414   3.436   4.465   8.160 -0.1124  0.3479  0.2493
   95SAPS  H17R 9415   3.384   4.463   8.258 -0.3719  1.3661  0.1470
   95SAPS  H17S 9416   3.355   4.499   8.092 -1.0659  2.0830  2.1349
   95SAPS  C218 9417   3.556   4.565   8.155  0.4614  0.4123 -0.9381
   95SAPS  H18R 9418   3.531   4.672   8.168  0.8719  0.3338  0.6469
   95SAPS  H18S 9419   3.611   4.551   8.060  0.5070 -0.6966 -0.7636
   95SAPS  C219 9420   3.664   4.538   8.266 -1.0898 -0.1713 -0.1137
   95SAPS  H19R 9421   3.735   4.624   8.273 -1.7908  0.4714 -0.6554
   95SAPS  H19S 9422   3.727   4.450   8.241 -0.6316 -0.1425  0.8986
   95SAPS  C220 9423   3.609   4.509   8.408 -0.1762 -0.3522 -0.8784
   95SAPS  H20R 9424   3.576   4.605   8.453  1.9438 -0.7042  1.6690
   95SAPS  H20S 9425   3.677   4.465   8.484 -1.5517  1.3789  1.4559
   95SAPS  H20T 9426   3.522   4.441   8.416 -0.6364  0.0160 -2.4294
   95SAPS   C33 9427   3.138   4.177   6.869  0.0088 -0.4004 -0.6373
   95SAPS   H3X 9428   3.122   4.073   6.833 -0.0369 -0.6335  0.0468
   95SAPS   H3Y 9429   3.047   4.212   6.921 -0.1146 -2.0976  0.3851
   95SAPS   C34 9430   3.250   4.174   6.978  0.5284 -0.0850  0.1523
   95SAPS   H4X 9431   3.263   4.280   7.008 -0.2995  0.4004 -1.0933
   95SAPS   H4Y 9432   3.341   4.126   6.936  1.0454 -1.1903  2.4229
   95SAPS   C35 9433   3.205   4.089   7.097  0.4686 -0.2598 -0.0262
   95SAPS   H5X 9434   3.296   4.031   7.125  0.4855 -1.7062 -2.8002
   95SAPS   H5Y 9435   3.121   4.018   7.080  0.2573  0.0457 -0.2647
   95SAPS   C36 9436   3.174   4.175   7.217  0.2351 -0.1180 -0.4626
   95SAPS   H6X 9437   3.092   4.244   7.190  0.1296 -0.6359 -1.5476
   95SAPS   H6Y 9438   3.267   4.233   7.235  0.2304  0.4615 -2.1601
   95SAPS   C37 9439   3.128   4.085   7.337 -0.6263 -0.8494  0.6814
   95SAPS   H7X 9440   3.210   4.015   7.367  0.6538  0.3782  0.1755
   95SAPS   H7Y 9441   3.037   4.029   7.309  0.1237 -2.6552  1.6449
   95SAPS   C38 9442   3.070   4.175   7.441 -0.0678 -0.5465 -0.8958
   95SAPS   H8X 9443   3.010   4.259   7.399  2.5432  1.7435 -0.3573
   95SAPS   H8Y 9444   3.156   4.214   7.500 -0.6761  0.0139 -0.3625
   95SAPS   C39 9445   2.978   4.098   7.544  0.5278  0.3265  0.0654
   95SAPS   H9X 9446   3.038   4.011   7.580 -0.6701 -2.2766 -3.5946
   95SAPS   H9Y 9447   2.887   4.055   7.497  0.8801  0.3132 -0.6252
   95SAPS  C310 9448   2.943   4.190   7.661 -0.1819 -0.0305 -0.5852
   95SAPS  H10X 9449   2.856   4.252   7.630 -0.5105 -0.4683 -0.5482
   95SAPS  H10Y 9450   3.032   4.250   7.689 -0.2675 -0.0860 -0.1883
   95SAPS  C311 9451   2.909   4.101   7.785 -0.7912 -0.1010  0.3829
   95SAPS  H11X 9452   2.990   4.025   7.794 -2.6329 -1.9681  2.6647
   95SAPS  H11Y 9453   2.816   4.046   7.760  0.4420 -1.9603 -0.3387
   95SAPS  C312 9454   2.911   4.174   7.922  0.6378 -0.2758  0.4783
   95SAPS  H12X 9455   2.844   4.262   7.913 -0.8641 -1.3054  1.2210
   95SAPS  H12Y 9456   3.013   4.212   7.944  0.1762  2.5242 -1.7045
   95SAPS  C313 9457   2.852   4.083   8.033 -0.2181  0.9442  0.0217
   95SAPS  H13X 9458   2.914   3.994   8.053 -0.2341  0.5285 -1.6226
   95SAPS  H13Y 9459   2.769   4.036   7.976  0.2492  0.0510  0.0693
   95SAPS  C314 9460   2.823   4.158   8.164  0.0214  0.6904  0.6153
   95SAPS  H14X 9461   2.754   4.244   8.150  1.0801  1.5113  0.2856
   95SAPS  H14Y 9462   2.917   4.207   8.199 -0.6444  1.7914  0.9306
   95SAPS  C315 9463   2.761   4.070   8.273 -1.3811 -0.2307  0.0514
   95SAPS  H15X 9464   2.801   3.967   8.275 -0.4865  0.0769 -1.0564
   95SAPS  H15Y 9465   2.652   4.058   8.255 -2.0987  0.0142  3.5675
   95SAPS  C316 9466   2.770   4.125   8.415  0.9833 -1.3072 -0.8592
   95SAPS  H16X 9467   2.755   4.235   8.413 -1.2350 -1.5113  0.4064
   95SAPS  H16Y 9468   2.872   4.129   8.459  0.6879  2.1166 -0.1928
   95SAPS  C317 9469   2.669   4.056   8.506  0.1309 -0.6581  0.2524
   95SAPS  H17X 9470   2.665   3.947   8.483  2.0126 -0.8091  0.4968
   95SAPS  H17Y 9471   2.569   4.094   8.474  1.2920  0.4925 -2.2616
   95SAPS  C318 9472   2.683   4.087   8.661  0.9693 -0.4305  0.5282
   95SAPS  H18X 9473   2.656   4.193   8.677  0.6715 -0.5636  0.9233
   95SAPS  H18Y 9474   2.780   4.052   8.700  1.3266 -1.3365 -1.0599
   95SAPS  H18Z 9475   2.607   4.033   8.722  1.0396 -2.2279 -0.8649
   96SAPS     N 9476   5.877   4.300   6.174 -0.0083 -0.1106  0.0283
   96SAPS   HN1 9477   5.870   4.251   6.265  0.3291 -0.5227 -0.1671
   96SAPS   HN2 9478   5.978   4.322   6.164  0.2867  0.7634  3.4882
   96SAPS   HN3 9479   5.829   4.392   6.186 -0.4691 -0.5278  1.7128
   96SAPS   C12 9480   5.815   4.228   6.057  0.4654 -0.4104 -0.1733
   96SAPS  H12A 9481   5.815   4.297   5.975  2.0059 -1.4532 -1.1120
   96SAPS   C13 9482   5.892   4.098   6.028  0.0400  0.2291  0.0667
   96SAPS  O13A 9483   5.997   4.068   6.089  0.2696 -0.6206  0.4564
   96SAPS  O13B 9484   5.869   4.046   5.917  0.1836  0.3932  0.0285
   96SAPS   C11 9485   5.672   4.189   6.093  0.5054 -0.7621  0.1272
   96SAPS  H11A 9486   5.630   4.123   6.014 -2.1368 -0.5189  1.1974
   96SAPS  H11B 9487   5.609   4.280   6.100 -0.0836 -1.0211 -1.4652
   96SAPS     P 9488   5.525   4.055   6.266  0.1787 -0.0785 -0.1509
   96SAPS   O13 9489   5.451   4.002   6.146  0.1218 -0.2148 -0.4855
   96SAPS   O14 9490   5.567   3.954   6.364  0.2425  0.6011  0.1146
   96SAPS   O12 9491   5.668   4.119   6.215  0.4419  0.2401 -0.4987
   96SAPS   O11 9492   5.449   4.174   6.333  0.6302  0.0128  0.4548
   96SAPS    C1 9493   5.500   4.275   6.424  0.0671  0.4167 -0.3682
   96SAPS    HA 9494   5.610   4.282   6.414  0.0941  0.7292  0.1253
   96SAPS    HB 9495   5.450   4.371   6.400 -2.9571 -0.9073  0.1748
   96SAPS    C2 9496   5.452   4.235   6.570  0.3386  0.3007  0.4172
   96SAPS    HS 9497   5.464   4.328   6.630  0.5075  0.2290  0.4946
   96SAPS   O21 9498   5.542   4.140   6.627 -0.1801  0.0108  0.0457
   96SAPS   C21 9499   5.664   4.175   6.662 -0.4721 -0.5193  0.9103
   96SAPS   O22 9500   5.716   4.288   6.639 -0.2818  0.2657 -0.1285
   96SAPS   C22 9501   5.735   4.060   6.728 -1.0499 -0.3737  0.1557
   96SAPS   H2R 9502   5.724   3.976   6.655  1.7733  1.9643 -3.2822
   96SAPS   H2S 9503   5.842   4.089   6.722 -0.4589 -1.9710  2.0385
   96SAPS    C3 9504   5.306   4.180   6.573 -0.4302  0.2723  0.0165
   96SAPS    HX 9505   5.323   4.083   6.521  0.1474  0.3470  0.0583
   96SAPS    HY 9506   5.234   4.247   6.521 -0.2497  1.2984  1.0579
   96SAPS   O31 9507   5.261   4.143   6.703 -0.2801 -0.9740  0.3817
   96SAPS   C31 9508   5.239   4.236   6.793  0.5018 -0.2971  0.0908
   96SAPS   O32 9509   5.265   4.357   6.779  0.0698 -0.1657  0.9661
   96SAPS   C32 9510   5.172   4.184   6.920  0.3650  0.5524 -0.0105
   96SAPS   H2X 9511   5.108   4.098   6.891  0.5747 -0.6386  2.6779
   96SAPS   H2Y 9512   5.101   4.263   6.953  0.4177  1.0421 -1.0295
   96SAPS   C23 9513   5.693   4.036   6.875  0.0649  0.1965  0.1141
   96SAPS   H3R 9514   5.584   4.016   6.884 -0.0274  0.8227  0.3789
   96SAPS   H3S 9515   5.706   4.128   6.935 -0.7337  0.6177 -0.3308
   96SAPS   C24 9516   5.768   3.922   6.934 -0.2405 -0.2098 -0.3668
   96SAPS   H4R 9517   5.742   3.922   7.042 -1.0553  2.4488 -0.5090
   96SAPS   H4S 9518   5.877   3.946   6.937 -0.1162 -0.6410 -1.0096
   96SAPS   C25 9519   5.744   3.789   6.874 -0.1891  0.5897  0.0754
   96SAPS   H5R 9520   5.813   3.762   6.793  1.5044 -0.3493  1.7672
   96SAPS   C26 9521   5.667   3.691   6.919  0.1444  0.6187 -0.1228
   96SAPS   H6R 9522   5.659   3.604   6.852 -2.1804  1.0373 -0.4813
   96SAPS   C27 9523   5.576   3.682   7.037  0.2553 -0.1800 -0.4833
   96SAPS   H7R 9524   5.630   3.725   7.123  0.3219 -2.3076  0.6187
   96SAPS   H7S 9525   5.557   3.574   7.056  0.4447  0.0658  1.2125
   96SAPS   C28 9526   5.443   3.747   7.010  0.1363 -0.2415 -0.1521
   96SAPS   H8R 9527   5.445   3.818   6.926 -0.2223  0.1267  0.1449
   96SAPS   C29 9528   5.336   3.728   7.091 -0.4289 -0.0507 -0.0204
   96SAPS   H9R 9529   5.239   3.772   7.061 -1.9828 -2.2194  1.5122
   96SAPS  C210 9530   5.331   3.648   7.217  0.0486  1.2399 -0.1368
   96SAPS  H10R 9531   5.369   3.544   7.209 -3.1424 -0.0135 -0.5557
   96SAPS  H10S 9532   5.224   3.619   7.230  0.3075 -0.2485 -1.1136
   96SAPS  C211 9533   5.383   3.725   7.337  0.4471 -0.2767 -0.7820
   96SAPS  H11R 9534   5.360   3.832   7.323  3.1427  0.3503 -0.9834
   96SAPS  C212 9535   5.454   3.679   7.442 -0.9741  0.0625  0.5757
   96SAPS  H12R 9536   5.467   3.749   7.525  1.3806  0.9099 -0.4263
   96SAPS  C213 9537   5.500   3.539   7.473  0.3105 -0.5345  0.1708
   96SAPS  H13R 9538   5.610   3.551   7.485  0.1183  2.8297 -0.3065
   96SAPS  H13S 9539   5.486   3.467   7.390  1.9561  1.9073 -2.4410
   96SAPS  C214 9540   5.429   3.485   7.597 -0.4855  0.2335  0.1117
   96SAPS  H14R 9541   5.343   3.421   7.574  1.8547 -2.8637 -0.6196
   96SAPS  C215 9542   5.488   3.489   7.718  0.5164 -0.0249  0.5498
   96SAPS  H15R 9543   5.433   3.429   7.792 -3.1121 -1.8178 -3.2512
   96SAPS  C216 9544   5.623   3.553   7.754 -0.0410  0.0199 -0.8302
   96SAPS  H16R 9545   5.607   3.626   7.836 -0.0272 -0.7786 -0.1062
   96SAPS  H16S 9546   5.674   3.596   7.664  1.7476  0.2465  0.2402
   96SAPS  C217 9547   5.717   3.444   7.809 -0.0268  0.6693 -0.0041
   96SAPS  H17R 9548   5.820   3.486   7.817 -0.0536  0.6312  0.6150
   96SAPS  H17S 9549   5.726   3.359   7.738  0.8735 -1.1454  2.1414
   96SAPS  C218 9550   5.679   3.391   7.948 -0.4833 -1.1293 -0.2521
   96SAPS  H18R 9551   5.576   3.351   7.949  0.3402 -3.3580  0.2210
   96SAPS  H18S 9552   5.682   3.473   8.022 -0.5413 -1.2297 -0.1379
   96SAPS  C219 9553   5.786   3.298   8.007  0.4441 -0.6989 -0.2353
   96SAPS  H19R 9554   5.888   3.342   8.001  0.5549 -0.7701  0.9553
   96SAPS  H19S 9555   5.782   3.205   7.946  1.7258  0.4633 -2.2134
   96SAPS  C220 9556   5.754   3.270   8.152 -0.3688 -0.1279 -0.5615
   96SAPS  H20R 9557   5.818   3.191   8.199 -2.2842  0.1401  2.7982
   96SAPS  H20S 9558   5.654   3.223   8.158 -0.2932 -0.6439 -2.6839
   96SAPS  H20T 9559   5.770   3.366   8.206 -0.1004 -0.4893  0.0124
   96SAPS   C33 9560   5.276   4.133   7.025 -0.1451  0.2313 -0.4165
   96SAPS   H3X 9561   5.362   4.075   6.985  0.2610  0.1068  0.6043
   96SAPS   H3Y 9562   5.231   4.050   7.083  0.1527 -1.0248 -1.9173
   96SAPS   C34 9563   5.316   4.231   7.128  0.1903  0.9664 -0.2587
   96SAPS   H4X 9564   5.224   4.262   7.183  0.6373  1.2906  0.3157
   96SAPS   H4Y 9565   5.345   4.324   7.074  2.3912  0.8860  0.6935
   96SAPS   C35 9566   5.429   4.199   7.230 -0.0478 -0.7865  0.0153
   96SAPS   H5X 9567   5.462   4.294   7.278 -1.5841  0.0491 -0.5032
   96SAPS   H5Y 9568   5.517   4.159   7.176 -0.9911 -2.0206 -0.6593
   96SAPS   C36 9569   5.395   4.105   7.346 -0.1074  0.1408 -0.4217
   96SAPS   H6X 9570   5.340   4.019   7.303 -0.4553  0.9799 -1.7229
   96SAPS   H6Y 9571   5.323   4.160   7.409  0.2789  1.4234 -1.0552
   96SAPS   C37 9572   5.520   4.065   7.423  0.1816 -0.5653 -0.3374
   96SAPS   H7X 9573   5.602   4.027   7.359 -1.1236 -1.1240 -1.7320
   96SAPS   H7Y 9574   5.503   3.985   7.498  2.0993 -1.4657 -0.7947
   96SAPS   C38 9575   5.585   4.177   7.501 -0.4275 -0.2176 -0.0433
   96SAPS   H8X 9576   5.508   4.249   7.538 -0.9333 -0.7297 -0.0861
   96SAPS   H8Y 9577   5.654   4.237   7.439  0.9350 -0.8436  0.8300
   96SAPS   C39 9578   5.664   4.119   7.617  0.2484  0.5984 -0.4237
   96SAPS   H9X 9579   5.735   4.038   7.591 -0.3079 -0.5281  1.3551
   96SAPS   H9Y 9580   5.586   4.084   7.688 -1.0904  0.9062 -1.6792
   96SAPS  C310 9581   5.748   4.222   7.691 -0.6476  0.4709  1.2538
   96SAPS  H10X 9582   5.675   4.305   7.705 -1.8558 -0.7696  2.6141
   96SAPS  H10Y 9583   5.823   4.265   7.621 -2.0128 -0.9620 -1.2530
   96SAPS  C311 9584   5.805   4.171   7.822 -0.3076  0.4203  0.9683
   96SAPS  H11X 9585   5.861   4.254   7.871 -0.8215  0.5768  1.2953
   96SAPS  H11Y 9586   5.880   4.092   7.800 -0.5794 -0.9391  4.2778
   96SAPS  C312 9587   5.696   4.111   7.920  0.2125 -0.0757 -0.4257
   96SAPS  H12X 9588   5.632   4.031   7.877 -0.7390  0.4572 -0.0235
   96SAPS  H12Y 9589   5.625   4.195   7.932 -1.0989 -1.1174 -0.6692
   96SAPS  C313 9590   5.756   4.058   8.052 -0.0852 -0.1722  0.4961
   96SAPS  H13X 9591   5.665   4.047   8.115 -1.5566 -2.8755 -1.8633
   96SAPS  H13Y 9592   5.821   4.141   8.086  1.9095 -1.1040 -0.8400
   96SAPS  C314 9593   5.822   3.922   8.055 -0.1425  0.5063  0.1395
   96SAPS  H14X 9594   5.919   3.924   8.001  0.5851 -1.3901  1.2865
   96SAPS  H14Y 9595   5.751   3.850   8.008 -1.0255  2.2152 -1.2564
   96SAPS  C315 9596   5.860   3.868   8.200  0.6522 -0.2671 -0.4318
   96SAPS  H15X 9597   5.867   3.758   8.191  0.0521 -0.3789  0.4475
   96SAPS  H15Y 9598   5.778   3.898   8.268  3.3177 -1.7840  3.8545
   96SAPS  C316 9599   5.999   3.896   8.246 -0.5323  0.2266 -0.3047
   96SAPS  H16X 9600   6.020   4.004   8.256 -3.1329  0.7472  0.1798
   96SAPS  H16Y 9601   6.082   3.844   8.194 -0.9962  1.1441 -2.0362
   96SAPS  C317 9602   6.013   3.850   8.390  0.1684 -0.0541 -0.1382
   96SAPS  H17X 9603   6.009   3.739   8.397 -0.3390  0.0604  2.4800
   96SAPS  H17Y 9604   5.924   3.878   8.450  0.6829 -0.8239  1.0402
   96SAPS  C318 9605   6.137   3.898   8.452  0.1397 -0.8216 -0.4617
   96SAPS  H18X 9606   6.155   4.003   8.420 -2.2918 -0.1923  0.0246
   96SAPS  H18Y 9607   6.219   3.839   8.405  1.2292 -0.8664  1.4373
   96SAPS  H18Z 9608   6.137   3.888   8.562  1.0226 -2.1385 -0.5570
   97SAPS     N 9609   3.947   2.165   6.556 -0.4501 -0.8573  0.3452
   97SAPS   HN1 9610   4.019   2.100   6.520  0.9854 -0.4581  2.3118
   97SAPS   HN2 9611   3.962   2.260   6.516 -1.4265 -1.1410 -0.7450
   97SAPS   HN3 9612   3.960   2.164   6.659  1.4084 -3.0011  0.1692
   97SAPS   C12 9613   3.809   2.128   6.514  0.8709  0.1615 -0.0883
   97SAPS  H12A 9614   3.739   2.188   6.571  2.1016  2.6439 -1.0038
   97SAPS   C13 9615   3.784   2.146   6.364  0.0308  0.1105 -0.0499
   97SAPS  O13A 9616   3.876   2.184   6.287  0.0653  0.7159  0.6621
   97SAPS  O13B 9617   3.665   2.145   6.327 -0.8428 -0.1316 -0.5084
   97SAPS   C11 9618   3.796   1.980   6.555  0.6453  0.5582  0.4660
   97SAPS  H11A 9619   3.693   1.944   6.533  0.8995 -0.3940  0.7921
   97SAPS  H11B 9620   3.800   1.968   6.665 -0.1045 -0.9787  0.3514
   97SAPS     P 9621   3.853   1.728   6.522  0.0283 -0.0921  0.3573
   97SAPS   O13 9622   3.711   1.691   6.497 -0.2667 -0.2923  0.0959
   97SAPS   O14 9623   3.959   1.635   6.469  0.0670 -0.0337 -0.0114
   97SAPS   O12 9624   3.887   1.882   6.489 -0.3328 -0.6210  0.3824
   97SAPS   O11 9625   3.861   1.725   6.678 -0.1770 -0.4144 -0.1452
   97SAPS    C1 9626   3.975   1.765   6.751  0.1512  0.2231 -0.3321
   97SAPS    HA 9627   4.063   1.709   6.714 -0.6745 -0.6783 -0.9646
   97SAPS    HB 9628   3.993   1.874   6.736 -1.1398  0.4483 -0.2897
   97SAPS    C2 9629   3.960   1.738   6.897  0.4009 -0.2707  0.0681
   97SAPS    HS 9630   4.049   1.759   6.960  0.3821 -0.6064  0.2107
   97SAPS   O21 9631   3.920   1.604   6.922  0.3546 -1.0025 -0.4052
   97SAPS   C21 9632   4.021   1.517   6.914 -0.0372  0.4861  0.7576
   97SAPS   O22 9633   4.137   1.549   6.911  0.3057 -0.0544 -0.0285
   97SAPS   C22 9634   3.963   1.373   6.913 -0.0632 -0.4642 -0.5208
   97SAPS   H2R 9635   3.875   1.385   6.846 -1.0400  0.0555  0.8202
   97SAPS   H2S 9636   4.029   1.322   6.839 -2.1881 -0.8345 -2.2776
   97SAPS    C3 9637   3.860   1.839   6.970  0.4777 -0.2359 -0.6080
   97SAPS    HX 9638   3.768   1.829   6.908  0.2742  0.7261 -0.4755
   97SAPS    HY 9639   3.902   1.941   6.966  0.0961 -0.0777 -0.6421
   97SAPS   O31 9640   3.838   1.800   7.104 -0.3314 -1.0778  0.1864
   97SAPS   C31 9641   3.744   1.719   7.137  0.3284 -0.3060 -0.1749
   97SAPS   O32 9642   3.667   1.667   7.062 -0.2557 -0.6485  0.1695
   97SAPS   C32 9643   3.764   1.691   7.280 -0.2876  0.4304  0.3890
   97SAPS   H2X 9644   3.775   1.784   7.339  2.2945 -0.5490  1.5939
   97SAPS   H2Y 9645   3.862   1.641   7.295 -0.2362  0.3868 -0.0526
   97SAPS   C23 9646   3.954   1.295   7.044  0.0703  0.2981  0.2852
   97SAPS   H3R 9647   3.928   1.187   7.044  2.2722 -0.3254  2.5537
   97SAPS   H3S 9648   3.882   1.357   7.102 -0.1152 -1.2346  1.7435
   97SAPS   C24 9649   4.088   1.309   7.127 -0.0240  0.5211  0.6534
   97SAPS   H4R 9650   4.068   1.261   7.226 -1.5265 -2.2047 -0.8719
   97SAPS   H4S 9651   4.107   1.418   7.137 -1.0659  0.9512 -1.4962
   97SAPS   C25 9652   4.215   1.247   7.069  0.5730  0.0024 -0.0231
   97SAPS   H5R 9653   4.224   1.246   6.959 -0.2555  0.1048 -0.0945
   97SAPS   C26 9654   4.316   1.195   7.141  0.3723  0.0246  0.1259
   97SAPS   H6R 9655   4.388   1.139   7.080  0.0044  1.8995 -2.2036
   97SAPS   C27 9656   4.323   1.166   7.281  0.1918  0.6599 -0.0551
   97SAPS   H7R 9657   4.270   1.246   7.337  2.7505  1.4097  1.4322
   97SAPS   H7S 9658   4.431   1.179   7.304  0.4444  0.9272 -1.2990
   97SAPS   C28 9659   4.301   1.023   7.331 -0.1191  0.2917 -0.5591
   97SAPS   H8R 9660   4.298   0.946   7.252 -2.4468 -0.9554  0.6475
   97SAPS   C29 9661   4.296   0.991   7.461  0.4583  0.0994 -0.4541
   97SAPS   H9R 9662   4.286   0.885   7.489  3.0113 -0.6656 -2.0905
   97SAPS  C210 9663   4.308   1.093   7.575 -0.2025  0.3638  0.2032
   97SAPS  H10R 9664   4.236   1.177   7.571  1.5811  1.9652  0.3200
   97SAPS  H10S 9665   4.406   1.143   7.563 -0.7047  1.5884  1.0674
   97SAPS  C211 9666   4.299   1.014   7.700 -0.5469 -0.2226 -0.3513
   97SAPS  H11R 9667   4.377   0.940   7.721 -0.3953 -0.4107 -1.4994
   97SAPS  C212 9668   4.218   1.032   7.803  0.0529 -0.4138  0.0251
   97SAPS  H12R 9669   4.227   0.963   7.888  0.5924 -1.8049 -1.1149
   97SAPS  C213 9670   4.108   1.129   7.809 -0.2891  0.4025 -0.0002
   97SAPS  H13R 9671   4.038   1.087   7.884 -1.2739 -0.0289 -1.1372
   97SAPS  H13S 9672   4.051   1.120   7.714  0.1268 -1.7656 -0.1056
   97SAPS  C214 9673   4.157   1.272   7.836  0.5310 -0.5240  0.2575
   97SAPS  H14R 9674   4.214   1.282   7.929  0.9333 -0.5648  0.0173
   97SAPS  C215 9675   4.120   1.384   7.770 -0.1505  0.0741 -0.6117
   97SAPS  H15R 9676   4.180   1.474   7.788 -0.5958  0.3412 -0.4412
   97SAPS  C216 9677   4.034   1.391   7.641 -0.1176  0.2029  0.7624
   97SAPS  H16R 9678   3.972   1.300   7.623  2.1527 -1.2520 -0.1095
   97SAPS  H16S 9679   4.100   1.414   7.556 -1.3988  0.7495 -0.1214
   97SAPS  C217 9680   3.941   1.507   7.661 -0.6350 -1.1726 -0.1192
   97SAPS  H17R 9681   3.880   1.504   7.754  1.5243  0.5516  1.4677
   97SAPS  H17S 9682   3.874   1.501   7.574 -0.1757  2.2942 -0.8467
   97SAPS  C218 9683   4.014   1.642   7.642  0.8120 -0.2510  0.6177
   97SAPS  H18R 9684   4.067   1.660   7.738 -0.8001  0.0832  1.4673
   97SAPS  H18S 9685   3.928   1.708   7.616  0.1390 -0.9341  1.0800
   97SAPS  C219 9686   4.112   1.650   7.519  0.0589 -0.7963 -0.8029
   97SAPS  H19R 9687   4.056   1.622   7.427 -0.9995  0.7456 -0.6762
   97SAPS  H19S 9688   4.207   1.594   7.534  0.8489  1.1372  2.2299
   97SAPS  C220 9689   4.170   1.788   7.496 -0.4409 -0.1536  0.6519
   97SAPS  H20R 9690   4.245   1.815   7.573  1.2686 -0.5020 -0.8393
   97SAPS  H20S 9691   4.097   1.872   7.504 -1.2741 -0.8703  0.7820
   97SAPS  H20T 9692   4.225   1.791   7.400 -2.1697  0.0824 -0.3842
   97SAPS   C33 9693   3.653   1.600   7.351  0.0717 -0.1820 -0.0220
   97SAPS   H3X 9694   3.551   1.632   7.320 -0.2632 -2.2247 -1.2171
   97SAPS   H3Y 9695   3.655   1.614   7.461 -0.3804  0.8716 -0.1369
   97SAPS   C34 9696   3.661   1.447   7.323 -0.3635  0.1761  0.2059
   97SAPS   H4X 9697   3.749   1.396   7.368 -0.9344 -1.9615 -0.9241
   97SAPS   H4Y 9698   3.682   1.436   7.215 -1.0760 -1.3157  0.1803
   97SAPS   C35 9699   3.520   1.381   7.349 -0.0339 -0.8397 -0.3049
   97SAPS   H5X 9700   3.519   1.307   7.266 -0.1324 -0.4948 -0.6119
   97SAPS   H5Y 9701   3.442   1.453   7.318  0.9408 -0.5010 -2.1217
   97SAPS   C36 9702   3.512   1.311   7.485  0.3349  0.7605 -0.8794
   97SAPS   H6X 9703   3.609   1.257   7.486 -0.1829 -0.2388 -2.2172
   97SAPS   H6Y 9704   3.424   1.243   7.478  0.9246 -0.1169 -0.1307
   97SAPS   C37 9705   3.492   1.397   7.610 -0.2030 -0.3819 -0.3182
   97SAPS   H7X 9706   3.417   1.474   7.580 -1.1144 -0.7146  0.9980
   97SAPS   H7Y 9707   3.585   1.454   7.631 -0.8311  0.6916 -0.3597
   97SAPS   C38 9708   3.444   1.306   7.728 -0.4448 -0.5520 -0.0652
   97SAPS   H8X 9709   3.353   1.252   7.694 -1.7684  0.5405  1.5751
   97SAPS   H8Y 9710   3.406   1.365   7.814  0.9210 -1.1524  0.9825
   97SAPS   C39 9711   3.556   1.212   7.773  0.6011 -0.4755  0.2654
   97SAPS   H9X 9712   3.577   1.128   7.703 -0.1344 -1.5056  1.2341
   97SAPS   H9Y 9713   3.510   1.161   7.861 -1.1758 -0.5693 -0.6767
   97SAPS  C310 9714   3.677   1.280   7.819  0.4552 -0.1968  0.8521
   97SAPS  H10X 9715   3.739   1.320   7.737  0.4550 -1.4663  0.2175
   97SAPS  H10Y 9716   3.741   1.199   7.859  1.4678  1.5500  3.0483
   97SAPS  C311 9717   3.643   1.373   7.927 -0.5030 -0.4515 -0.6820
   97SAPS  H11X 9718   3.559   1.334   7.988 -0.2827 -2.7312 -1.7439
   97SAPS  H11Y 9719   3.616   1.476   7.895 -1.1062 -0.3569  0.1057
   97SAPS  C312 9720   3.766   1.382   8.023  0.3724 -0.3192 -0.9637
   97SAPS  H12X 9721   3.859   1.401   7.964  0.5440  1.6282 -0.1565
   97SAPS  H12Y 9722   3.780   1.290   8.083 -1.3938  0.4876  0.7589
   97SAPS  C313 9723   3.737   1.493   8.128 -1.1418 -1.0674  0.2693
   97SAPS  H13X 9724   3.649   1.456   8.185  0.4960 -1.8449  2.4159
   97SAPS  H13Y 9725   3.710   1.579   8.063 -0.8199  0.9160  2.6190
   97SAPS  C314 9726   3.851   1.540   8.229  0.4392 -0.3124 -0.1548
   97SAPS  H14X 9727   3.870   1.454   8.297 -0.5783 -1.7041 -1.5365
   97SAPS  H14Y 9728   3.814   1.626   8.289  0.5561 -0.7151  0.5119
   97SAPS  C315 9729   3.982   1.574   8.164  0.1582 -0.8442 -0.0833
   97SAPS  H15X 9730   3.955   1.660   8.100  0.2025 -1.1096 -0.4630
   97SAPS  H15Y 9731   4.005   1.491   8.093 -0.6838  0.5439 -2.0507
   97SAPS  C316 9732   4.099   1.594   8.262 -0.6922  0.6247 -0.4446
   97SAPS  H16X 9733   4.111   1.495   8.310 -2.1416  0.8777  0.4958
   97SAPS  H16Y 9734   4.074   1.665   8.344 -2.5879  0.6653 -1.0204
   97SAPS  C317 9735   4.236   1.634   8.208  0.3008 -0.1943  0.7811
   97SAPS  H17X 9736   4.300   1.633   8.299  1.5478 -1.3201 -0.0514
   97SAPS  H17Y 9737   4.251   1.733   8.160  2.1317 -0.9893 -0.4235
   97SAPS  C318 9738   4.310   1.527   8.124 -0.1539 -0.0322  0.1965
   97SAPS  H18X 9739   4.294   1.547   8.016  2.0449 -0.3100 -0.2377
   97SAPS  H18Y 9740   4.279   1.426   8.158  2.4437 -0.1788  2.4568
   97SAPS  H18Z 9741   4.419   1.536   8.142  0.7276  1.7747 -4.5891
   98SAPS     N 9742   1.244   2.486   6.211 -0.1203  0.2646  0.4156
   98SAPS   HN1 9743   1.166   2.426   6.245  0.9949 -2.2427 -1.1599
   98SAPS   HN2 9744   1.333   2.433   6.206  0.3138  0.7080  2.6248
   98SAPS   HN3 9745   1.257   2.577   6.259 -1.8060  0.7202  0.0993
   98SAPS   C12 9746   1.200   2.537   6.077  0.0543 -0.3628  0.1208
   98SAPS  H12A 9747   1.269   2.611   6.040 -1.1109  0.5813 -0.2336
   98SAPS   C13 9748   1.189   2.428   5.964  0.4995 -0.0155  0.5272
   98SAPS  O13A 9749   1.214   2.304   5.988  0.6170 -0.5398 -0.4182
   98SAPS  O13B 9750   1.167   2.451   5.838 -0.9142 -1.0587  0.3820
   98SAPS   C11 9751   1.054   2.593   6.091 -0.3185 -0.3795 -0.3141
   98SAPS  H11A 9752   0.978   2.512   6.100 -1.8821  0.9287 -1.2415
   98SAPS  H11B 9753   1.034   2.653   6.000 -2.0541  2.4239  1.7613
   98SAPS     P 9754   0.895   2.720   6.259 -0.0221  0.0616 -0.1415
   98SAPS   O13 9755   0.911   2.855   6.320  0.3446  0.3391 -0.2591
   98SAPS   O14 9756   0.796   2.695   6.156  0.1192 -0.6478  0.7307
   98SAPS   O12 9757   1.039   2.690   6.198  0.8085 -0.1415  0.1427
   98SAPS   O11 9758   0.876   2.610   6.370 -0.3355 -0.0867  0.0059
   98SAPS    C1 9759   0.973   2.601   6.480  0.3639  0.0991 -0.0998
   98SAPS    HA 9760   1.042   2.516   6.462  1.5459  0.9823  0.1606
   98SAPS    HB 9761   1.034   2.693   6.490  2.7254 -1.4588  0.7310
   98SAPS    C2 9762   0.908   2.554   6.613  0.1016  0.7497 -0.4713
   98SAPS    HS 9763   0.836   2.630   6.650 -1.0886  0.2119 -1.6427
   98SAPS   O21 9764   1.000   2.507   6.715  0.3190  0.1435 -0.2260
   98SAPS   C21 9765   1.044   2.610   6.789  0.2499 -0.2504 -0.0275
   98SAPS   O22 9766   1.025   2.730   6.765  0.2564 -0.5308  0.5550
   98SAPS   C22 9767   1.094   2.552   6.915 -0.1613  0.7807 -0.3903
   98SAPS   H2R 9768   1.005   2.492   6.944 -0.0765 -0.4402 -2.4855
   98SAPS   H2S 9769   1.179   2.485   6.890 -1.8020 -1.4759 -0.2204
   98SAPS    C3 9770   0.818   2.434   6.579 -0.3807 -1.2786 -0.1985
   98SAPS    HX 9771   0.880   2.353   6.534  2.1948  0.1973  0.4607
   98SAPS    HY 9772   0.746   2.458   6.497 -1.4485 -1.3055  0.7080
   98SAPS   O31 9773   0.757   2.379   6.693 -0.2325  1.0975  0.1235
   98SAPS   C31 9774   0.637   2.417   6.724  0.6443  0.0679  0.3287
   98SAPS   O32 9775   0.555   2.478   6.655 -0.1241  0.1317 -0.3594
   98SAPS   C32 9776   0.623   2.368   6.867 -1.0241 -0.5736 -0.2724
   98SAPS   H2X 9777   0.697   2.420   6.933 -0.6630 -3.2861  1.6403
   98SAPS   H2Y 9778   0.659   2.263   6.870 -0.2220 -0.3349 -1.0459
   98SAPS   C23 9779   1.151   2.651   7.019 -0.2220 -0.1953  0.0927
   98SAPS   H3R 9780   1.082   2.737   7.029  0.8418  0.7478 -0.4998
   98SAPS   H3S 9781   1.243   2.693   6.973 -0.5730  0.1872 -0.2651
   98SAPS   C24 9782   1.186   2.590   7.156 -0.0581  0.0420  0.6277
   98SAPS   H4R 9783   1.110   2.516   7.188  2.2834 -2.2692  1.2654
   98SAPS   H4S 9784   1.186   2.675   7.228 -2.5156  3.7399 -3.2787
   98SAPS   C25 9785   1.319   2.521   7.146  0.2164  0.4255 -0.4322
   98SAPS   H5R 9786   1.386   2.539   7.061 -0.4432 -1.5956 -1.4171
   98SAPS   C26 9787   1.368   2.436   7.242 -0.1531 -0.2487  0.3490
   98SAPS   H6R 9788   1.457   2.371   7.231 -0.6769 -0.9464  0.1922
   98SAPS   C27 9789   1.289   2.397   7.359  0.1648  0.2134 -0.4791
   98SAPS   H7R 9790   1.183   2.382   7.329 -0.6585 -0.5082  2.5207
   98SAPS   H7S 9791   1.284   2.477   7.436 -0.1998  0.5607 -0.8558
   98SAPS   C28 9792   1.315   2.260   7.431  0.7233  0.9053  0.2550
   98SAPS   H8R 9793   1.295   2.166   7.378  0.8118  0.9042  0.2224
   98SAPS   C29 9794   1.328   2.251   7.564 -0.4745 -0.4280  1.0097
   98SAPS   H9R 9795   1.334   2.153   7.615  0.1146 -1.3748 -0.7874
   98SAPS  C210 9796   1.331   2.362   7.660 -0.1692  0.5261 -0.5023
   98SAPS  H10R 9797   1.236   2.413   7.686 -0.1847 -0.7588  2.4495
   98SAPS  H10S 9798   1.392   2.441   7.612  1.8768  0.5102  1.8527
   98SAPS  C211 9799   1.398   2.325   7.788 -0.2981  0.2272 -0.0410
   98SAPS  H11R 9800   1.493   2.378   7.806 -0.5700 -0.0879  2.6205
   98SAPS  C212 9801   1.348   2.247   7.883 -0.8040  0.6434  0.1118
   98SAPS  H12R 9802   1.408   2.217   7.970  0.5245 -0.6576 -1.1894
   98SAPS  C213 9803   1.218   2.164   7.874  0.2885  0.0814 -0.0573
   98SAPS  H13R 9804   1.247   2.062   7.907  0.4880 -0.5641 -2.1288
   98SAPS  H13S 9805   1.187   2.153   7.768 -0.4295  1.1299  0.0311
   98SAPS  C214 9806   1.103   2.235   7.944  0.3476 -0.1015  0.0079
   98SAPS  H14R 9807   1.063   2.322   7.889 -1.7493 -0.9380  0.0989
   98SAPS  C215 9808   1.049   2.214   8.067 -0.2154  0.1321 -0.1624
   98SAPS  H15R 9809   0.961   2.271   8.098 -1.4335 -0.9788 -1.4386
   98SAPS  C216 9810   1.092   2.108   8.164 -0.0634 -0.0886 -0.4274
   98SAPS  H16R 9811   1.099   2.139   8.271  2.9614 -0.7192 -0.3394
   98SAPS  H16S 9812   1.194   2.070   8.142  0.6596  0.7924  1.2520
   98SAPS  C217 9813   1.008   1.980   8.175 -0.6125 -0.5333 -0.4186
   98SAPS  H17R 9814   1.075   1.907   8.226  0.5413  0.1383 -0.9353
   98SAPS  H17S 9815   0.976   1.939   8.077  0.6961 -0.4587 -0.8952
   98SAPS  C218 9816   0.879   2.008   8.256  0.3244 -1.1172 -0.5559
   98SAPS  H18R 9817   0.809   2.075   8.202  0.1045  0.6344  1.7254
   98SAPS  H18S 9818   0.899   2.062   8.352  0.4255 -1.7917 -0.1920
   98SAPS  C219 9819   0.809   1.884   8.306  0.5128  0.8795  0.0686
   98SAPS  H19R 9820   0.889   1.831   8.362  1.0013  1.8767  0.3445
   98SAPS  H19S 9821   0.770   1.830   8.218  1.0855  2.1453 -0.9910
   98SAPS  C220 9822   0.693   1.910   8.406  0.2556 -0.0125 -0.3693
   98SAPS  H20R 9823   0.721   1.964   8.499  1.4647 -1.9333  0.4324
   98SAPS  H20S 9824   0.655   1.811   8.440 -2.3331  1.1105  0.2694
   98SAPS  H20T 9825   0.613   1.963   8.350  1.1587  0.5432 -1.1603
   98SAPS   C33 9826   0.478   2.383   6.925  0.2092  0.5760 -0.0462
   98SAPS   H3X 9827   0.400   2.354   6.851  1.0430  3.5154 -2.2719
   98SAPS   H3Y 9828   0.454   2.485   6.964 -0.1312  1.1606 -1.7029
   98SAPS   C34 9829   0.460   2.284   7.043 -0.1190  0.4138 -0.2504
   98SAPS   H4X 9830   0.552   2.299   7.103  0.5709  0.3776 -1.2805
   98SAPS   H4Y 9831   0.469   2.182   6.999  0.5057  0.8046 -1.0506
   98SAPS   C35 9832   0.336   2.298   7.134 -0.8201 -0.1746  0.3906
   98SAPS   H5X 9833   0.244   2.278   7.075 -0.3844 -0.7677 -0.1041
   98SAPS   H5Y 9834   0.322   2.407   7.152 -2.0844 -0.2976  0.2693
   98SAPS   C36 9835   0.345   2.211   7.257  0.5803  0.0708 -0.6012
   98SAPS   H6X 9836   0.430   2.252   7.316 -0.4791 -0.9286  1.7931
   98SAPS   H6Y 9837   0.351   2.103   7.229 -0.2292 -0.1605  0.0874
   98SAPS   C37 9838   0.232   2.219   7.354  0.1799 -0.0109 -0.5477
   98SAPS   H7X 9839   0.150   2.161   7.306  0.2209 -0.5003 -0.0325
   98SAPS   H7Y 9840   0.199   2.325   7.362 -0.5006 -0.3662  4.8138
   98SAPS   C38 9841   0.250   2.164   7.495 -0.4850 -0.2697 -0.9562
   98SAPS   H8X 9842   0.333   2.221   7.541 -0.6667  0.7098 -1.8082
   98SAPS   H8Y 9843   0.288   2.059   7.487  1.1223  0.1193  0.8152
   98SAPS   C39 9844   0.117   2.173   7.574  0.6256  0.3175 -0.5504
   98SAPS   H9X 9845   0.050   2.088   7.552  1.0565 -1.4648  3.8776
   98SAPS   H9Y 9846   0.069   2.269   7.546 -0.3103 -0.3165 -1.1406
   98SAPS  C310 9847   0.136   2.173   7.731 -0.1151  0.1182  0.5274
   98SAPS  H10X 9848   0.049   2.208   7.790  0.2757  0.1715  1.0814
   98SAPS  H10Y 9849   0.214   2.248   7.758 -0.0605 -0.2978  1.5491
   98SAPS  C311 9850   0.186   2.032   7.786  0.1500 -0.5076 -0.0604
   98SAPS  H11X 9851   0.288   2.007   7.750 -0.7251 -1.1976 -2.2453
   98SAPS  H11Y 9852   0.114   1.953   7.754  0.3354 -0.4703 -0.5731
   98SAPS  C312 9853   0.183   2.024   7.939 -0.1247  0.5645 -0.0891
   98SAPS  H12X 9854   0.081   2.039   7.980  1.0459  3.1960  2.1821
   98SAPS  H12Y 9855   0.244   2.106   7.982 -0.6637  0.3541  1.1164
   98SAPS  C313 9856   0.253   1.892   7.993  0.5870 -0.6856 -0.6396
   98SAPS  H13X 9857   0.352   1.891   7.944 -0.4654  2.0860 -3.1533
   98SAPS  H13Y 9858   0.189   1.810   7.952 -1.9835 -0.5925  2.7399
   98SAPS  C314 9859   0.256   1.898   8.149 -0.4377  0.0960 -0.1099
   98SAPS  H14X 9860   0.151   1.899   8.184 -0.5072  0.9111 -0.3347
   98SAPS  H14Y 9861   0.301   1.986   8.198 -2.5997  0.8893  0.5555
   98SAPS  C315 9862   0.327   1.778   8.204  0.3310  0.6350 -0.5676
   98SAPS  H15X 9863   0.435   1.801   8.193  0.6924 -0.7157 -0.0801
   98SAPS  H15Y 9864   0.309   1.688   8.141 -0.1553  1.2108 -1.2554
   98SAPS  C316 9865   0.303   1.748   8.360 -0.7665 -0.6926  0.8256
   98SAPS  H16X 9866   0.382   1.674   8.385  0.5204  1.0334  2.0886
   98SAPS  H16Y 9867   0.203   1.699   8.364 -1.1106 -0.5751 -2.9816
   98SAPS  C317 9868   0.323   1.871   8.449 -0.1790  0.2826 -0.0779
   98SAPS  H17X 9869   0.237   1.940   8.459  0.6584  1.0615  2.4487
   98SAPS  H17Y 9870   0.395   1.936   8.394 -0.9489  1.7677  0.6300
   98SAPS  C318 9871   0.380   1.844   8.593  0.7408  0.6830 -0.7753
   98SAPS  H18X 9872   0.293   1.826   8.660  1.4084  1.6513  0.4125
   98SAPS  H18Y 9873   0.431   1.939   8.622  0.1961  0.5304  0.7756
   98SAPS  H18Z 9874   0.471   1.781   8.605 -0.4859 -0.8735  0.7813
   99SAPS     N 9875   0.317   6.409   6.124 -0.6230 -0.3937 -0.2120
   99SAPS   HN1 9876   0.314   6.467   6.210  1.6868  0.8600 -0.8981
   99SAPS   HN2 9877   0.233   6.349   6.110 -1.9733  1.2779  0.4596
   99SAPS   HN3 9878   0.399   6.346   6.135  0.7068  0.7379 -2.7902
   99SAPS   C12 9879   0.333   6.500   6.014 -0.1566 -1.3536  0.0213
   99SAPS  H12A 9880   0.383   6.588   6.052 -2.8606 -0.1789  1.1161
   99SAPS   C13 9881   0.408   6.435   5.900  0.6207  0.6860  0.2654
   99SAPS  O13A 9882   0.431   6.308   5.893  0.3699  0.5369  0.1089
   99SAPS  O13B 9883   0.417   6.509   5.799 -0.2920 -0.3048  0.1020
   99SAPS   C11 9884   0.197   6.559   5.958  0.5546 -0.0863 -0.1273
   99SAPS  H11A 9885   0.139   6.478   5.908  1.1721 -0.0616 -0.9097
   99SAPS  H11B 9886   0.229   6.629   5.878  0.3202  0.0432 -0.1068
   99SAPS     P 9887   0.109   6.789   6.065 -0.2918 -0.0701 -0.2990
   99SAPS   O13 9888   0.245   6.849   6.064  0.5493 -0.3529 -0.0992
   99SAPS   O14 9889   0.021   6.817   5.954 -0.5079 -0.0832 -0.2407
   99SAPS   O12 9890   0.129   6.627   6.063  0.0994 -0.3084  0.1374
   99SAPS   O11 9891   0.032   6.804   6.203  0.5084  0.1527  0.2243
   99SAPS    C1 9892  -0.075   6.718   6.239 -0.2598  0.1116 -0.0406
   99SAPS    HA 9893  -0.173   6.767   6.220  0.0491  0.2859 -1.2727
   99SAPS    HB 9894  -0.085   6.637   6.164 -0.2747  1.2854 -1.3431
   99SAPS    C2 9895  -0.062   6.649   6.377 -0.4848  0.4103 -0.2196
   99SAPS    HS 9896  -0.134   6.566   6.391 -0.9261  0.3416 -2.5045
   99SAPS   O21 9897  -0.079   6.742   6.491 -0.0827  0.1196 -0.3856
   99SAPS   C21 9898  -0.206   6.767   6.501  0.4841 -0.5461  0.4080
   99SAPS   O22 9899  -0.301   6.706   6.454 -0.4486 -0.1399 -0.0163
   99SAPS   C22 9900  -0.227   6.895   6.587 -0.7163 -0.5772  0.7163
   99SAPS   H2R 9901  -0.128   6.940   6.607 -1.3522  1.0042  0.4619
   99SAPS   H2S 9902  -0.280   6.970   6.524  1.9534  1.3252  0.5743
   99SAPS    C3 9903   0.087   6.602   6.388 -0.4252 -0.2344  0.5749
   99SAPS    HX 9904   0.162   6.682   6.405 -0.3715 -0.2330  0.3417
   99SAPS    HY 9905   0.105   6.562   6.286 -0.8407  1.4284 -0.1946
   99SAPS   O31 9906   0.112   6.501   6.483 -0.0663  0.5017  0.2046
   99SAPS   C31 9907   0.235   6.448   6.471  0.9676  0.2254 -0.4032
   99SAPS   O32 9908   0.311   6.475   6.386  0.0036 -0.1945  0.5041
   99SAPS   C32 9909   0.261   6.354   6.585 -0.3067 -0.1077 -0.1327
   99SAPS   H2X 9910   0.275   6.254   6.540  1.0933 -0.3572  0.8073
   99SAPS   H2Y 9911   0.165   6.346   6.640  0.3861 -2.9002  0.8130
   99SAPS   C23 9912  -0.310   6.866   6.712  0.2268 -0.3807  0.0877
   99SAPS   H3R 9913  -0.399   6.800   6.701 -1.4008  1.8664 -1.0675
   99SAPS   H3S 9914  -0.339   6.965   6.755  1.1674 -0.3626  0.7054
   99SAPS   C24 9915  -0.219   6.804   6.814  0.2581 -0.2774  0.0953
   99SAPS   H4R 9916  -0.130   6.868   6.829  1.6772 -2.5544  2.3028
   99SAPS   H4S 9917  -0.168   6.713   6.775  0.2866 -0.1371 -0.1930
   99SAPS   C25 9918  -0.274   6.762   6.941  0.5923  0.0446 -0.2954
   99SAPS   H5R 9919  -0.305   6.657   6.941  0.3378  0.1190 -0.2454
   99SAPS   C26 9920  -0.296   6.836   7.052 -0.2007 -0.6669 -0.4003
   99SAPS   H6R 9921  -0.345   6.787   7.138  0.3222 -0.1888  0.1837
   99SAPS   C27 9922  -0.258   6.982   7.062  0.1523 -0.3332 -0.1825
   99SAPS   H7R 9923  -0.263   7.038   6.967  0.7135 -1.2145 -0.7491
   99SAPS   H7S 9924  -0.156   6.990   7.108  0.6204 -1.5963 -0.9437
   99SAPS   C28 9925  -0.358   7.062   7.146  0.7081  0.4172  0.0048
   99SAPS   H8R 9926  -0.434   7.104   7.078  0.6003  1.8492  0.9774
   99SAPS   C29 9927  -0.367   7.079   7.282  0.5420 -0.1822  0.4976
   99SAPS   H9R 9928  -0.445   7.143   7.326  0.6229 -0.7268  1.4480
   99SAPS  C210 9929  -0.270   7.021   7.382 -0.7649 -0.2424  1.1595
   99SAPS  H10R 9930  -0.240   7.097   7.458  0.4617  1.7374 -1.1844
   99SAPS  H10S 9931  -0.172   7.002   7.335 -0.9512  1.7239 -0.1265
   99SAPS  C211 9932  -0.326   6.898   7.448 -1.0482  0.3706  0.2897
   99SAPS  H11R 9933  -0.332   6.819   7.372 -0.6690  1.3346 -0.7681
   99SAPS  C212 9934  -0.355   6.887   7.580  0.3548 -0.1427 -0.2780
   99SAPS  H12R 9935  -0.392   6.788   7.611  0.0004  0.1979  0.3956
   99SAPS  C213 9936  -0.347   6.984   7.696 -0.9381  1.2475  1.1323
   99SAPS  H13R 9937  -0.424   7.064   7.690 -0.9106  1.1754 -2.4177
   99SAPS  H13S 9938  -0.250   7.035   7.680  0.7686 -2.3612 -1.5298
   99SAPS  C214 9939  -0.355   6.921   7.836 -0.1752  0.0498  0.6924
   99SAPS  H14R 9940  -0.294   6.829   7.840 -0.0890 -0.1317 -2.3813
   99SAPS  C215 9941  -0.407   6.964   7.949  0.2573  0.2659  0.0111
   99SAPS  H15R 9942  -0.404   6.905   8.042 -4.5283 -0.3942  0.0248
   99SAPS  C216 9943  -0.461   7.102   7.965  0.5389  0.0445  0.3264
   99SAPS  H16R 9944  -0.570   7.113   7.949  0.7731 -0.6544 -2.2803
   99SAPS  H16S 9945  -0.426   7.171   7.886 -1.7284  1.4894  0.5064
   99SAPS  C217 9946  -0.422   7.159   8.100 -0.4958 -0.6047 -0.1695
   99SAPS  H17R 9947  -0.466   7.261   8.102 -0.4232 -0.5767  1.5540
   99SAPS  H17S 9948  -0.313   7.177   8.114 -0.1445 -1.3082 -1.7638
   99SAPS  C218 9949  -0.473   7.082   8.220 -0.1812 -0.1376 -0.0851
   99SAPS  H18R 9950  -0.416   6.986   8.216  0.3683  0.2161 -2.1508
   99SAPS  H18S 9951  -0.582   7.061   8.204 -0.2670  1.0675 -1.1954
   99SAPS  C219 9952  -0.439   7.142   8.360 -0.1423 -0.2610 -0.1189
   99SAPS  H19R 9953  -0.485   7.239   8.389  0.4658  0.4554 -1.4803
   99SAPS  H19S 9954  -0.331   7.167   8.367 -0.4462  1.3792 -0.8550
   99SAPS  C220 9955  -0.473   7.045   8.470 -0.9590  0.2216  0.2723
   99SAPS  H20R 9956  -0.440   7.091   8.565  0.6578  1.2422 -0.7397
   99SAPS  H20S 9957  -0.424   6.946   8.454 -2.1339 -1.0665  3.7434
   99SAPS  H20T 9958  -0.584   7.038   8.472 -0.9858 -0.8769 -1.7905
   99SAPS   C33 9959   0.384   6.391   6.686  0.0526  0.0579  0.3397
   99SAPS   H3X 9960   0.393   6.500   6.708  0.3566 -0.4712  3.1095
   99SAPS   H3Y 9961   0.468   6.357   6.622 -2.4103 -1.4201 -2.3858
   99SAPS   C34 9962   0.372   6.305   6.810 -0.2836  0.0810 -0.0662
   99SAPS   H4X 9963   0.468   6.286   6.862 -1.0681 -2.2136  0.6704
   99SAPS   H4Y 9964   0.345   6.204   6.772 -0.5949  0.5620 -1.1680
   99SAPS   C35 9965   0.275   6.358   6.912  0.1913  0.0132 -0.5166
   99SAPS   H5X 9966   0.174   6.349   6.866 -0.3483 -1.3260  0.8397
   99SAPS   H5Y 9967   0.300   6.460   6.947  1.6087  0.0494 -1.5564
   99SAPS   C36 9968   0.272   6.268   7.037 -0.1675  0.1908  1.0579
   99SAPS   H6X 9969   0.377   6.257   7.072  0.2000  2.6914  0.8925
   99SAPS   H6Y 9970   0.239   6.164   7.014 -1.1051  1.2682 -3.4993
   99SAPS   C37 9971   0.211   6.321   7.155  0.0494  0.4546  0.3907
   99SAPS   H7X 9972   0.104   6.293   7.143  0.3406 -0.8060  0.6162
   99SAPS   H7Y 9973   0.236   6.428   7.167  2.4926 -0.0889  0.6692
   99SAPS   C38 9974   0.255   6.243   7.283 -0.8349  0.3365  0.3245
   99SAPS   H8X 9975   0.366   6.247   7.291 -0.9211  2.4110  1.0677
   99SAPS   H8Y 9976   0.212   6.141   7.268  0.0171  0.1039 -0.6709
   99SAPS   C39 9977   0.216   6.327   7.408 -0.1300 -0.6839 -0.9678
   99SAPS   H9X 9978   0.107   6.323   7.425  0.1757  0.2796  1.6334
   99SAPS   H9Y 9979   0.247   6.434   7.410  0.5238 -0.8599 -1.3694
   99SAPS  C310 9980   0.268   6.275   7.544  0.1239 -0.0863 -0.0603
   99SAPS  H10X 9981   0.369   6.322   7.550 -0.0019  0.4352 -1.5259
   99SAPS  H10Y 9982   0.264   6.166   7.563  0.4431 -0.0844  0.0347
   99SAPS  C311 9983   0.201   6.343   7.670 -0.3935  0.2364  0.1457
   99SAPS  H11X 9984   0.092   6.317   7.671  0.3306 -3.6947 -1.4744
   99SAPS  H11Y 9985   0.206   6.454   7.666 -0.2016  0.5278  4.3187
   99SAPS  C312 9986   0.273   6.298   7.798 -0.0978 -0.9974 -0.5238
   99SAPS  H12X 9987   0.383   6.289   7.782  0.0674  0.5871 -0.4327
   99SAPS  H12Y 9988   0.235   6.198   7.826 -2.5863  0.0389  0.0083
   99SAPS  C313 9989   0.235   6.393   7.917 -0.4636 -0.0304  0.4117
   99SAPS  H13X 9990   0.126   6.417   7.915 -0.6952 -1.0455  0.0969
   99SAPS  H13Y 9991   0.283   6.491   7.899 -1.0932  0.1022 -0.6298
   99SAPS  C314 9992   0.281   6.324   8.047 -0.2749  0.4475 -0.2395
   99SAPS  H14X 9993   0.391   6.333   8.035 -0.2039  0.6819  0.5243
   99SAPS  H14Y 9994   0.242   6.220   8.044  1.1710 -0.1289  0.1500
   99SAPS  C315 9995   0.234   6.408   8.171  0.0594  0.4137 -0.6338
   99SAPS  H15X 9996   0.126   6.395   8.190  0.1004  1.6637  0.6731
   99SAPS  H15Y 9997   0.249   6.518   8.166 -1.9987  0.7613 -0.0155
   99SAPS  C316 9998   0.316   6.368   8.297 -0.4125  0.6565 -1.2831
   99SAPS  H16X 9999   0.322   6.464   8.353 -0.9254  0.3667 -0.7236
   99SAPS  H16Y10000   0.422   6.346   8.270 -0.4341  0.8331 -1.5168
   99SAPS  C31710001   0.252   6.264   8.382  0.6861  0.0826  0.0956
   99SAPS  H17X10002   0.261   6.166   8.330 -0.3535 -0.9103  1.7047
   99SAPS  H17Y10003   0.144   6.287   8.389  0.9913  1.9184 -0.6996
   99SAPS  C31810004   0.329   6.244   8.519  0.2781 -0.7603 -0.1477
   99SAPS  H18X10005   0.303   6.331   8.584  0.0977 -2.4595  2.1648
   99SAPS  H18Y10006   0.437   6.251   8.492  0.4440  0.7772  0.7413
   99SAPS  H18Z10007   0.318   6.145   8.569 -0.5569  0.2585  1.8155
  100SAPS     N10008   2.733   1.331   6.258 -0.1948 -0.4221 -0.7405
  100SAPS   HN110009   2.718   1.387   6.344  1.4557  2.4719 -2.1924
  100SAPS   HN210010   2.701   1.235   6.284 -2.1394  0.6397  1.0992
  100SAPS   HN310011   2.835   1.339   6.239 -0.1193 -0.9897 -0.6146
  100SAPS   C1210012   2.650   1.389   6.151 -0.3800  0.7891 -0.1618
  100SAPS  H12A10013   2.647   1.496   6.162 -0.4962  0.8986 -1.1526
  100SAPS   C1310014   2.702   1.354   6.001 -0.2606 -0.3671 -0.4392
  100SAPS  O13A10015   2.813   1.306   5.983  0.0687  0.2808  0.1052
  100SAPS  O13B10016   2.638   1.413   5.905  0.2409 -0.3583 -0.2770
  100SAPS   C1110017   2.511   1.328   6.165  0.9677  0.5894 -0.8472
  100SAPS  H11A10018   2.522   1.221   6.191 -2.3712  0.3518  0.1289
  100SAPS  H11B10019   2.454   1.340   6.070  0.0881  3.1440 -0.0954
  100SAPS     P10020   2.377   1.511   6.283 -0.6277  0.1568  0.0315
  100SAPS   O1310021   2.485   1.602   6.316 -0.2602  0.2995  0.2950
  100SAPS   O1410022   2.301   1.537   6.153 -0.4960  0.6199 -1.0609
  100SAPS   O1210023   2.433   1.369   6.280  0.6524 -0.6667  0.2699
  100SAPS   O1110024   2.274   1.504   6.404 -0.2078  0.3335 -0.2523
  100SAPS    C110025   2.180   1.399   6.415  0.2465 -0.7711 -0.0851
  100SAPS    HA10026   2.117   1.395   6.324 -0.0440  2.0001 -0.0761
  100SAPS    HB10027   2.227   1.300   6.438 -1.2403 -1.3341  0.6467
  100SAPS    C210028   2.087   1.441   6.536 -0.7892 -0.3511 -0.2139
  100SAPS    HS10029   2.058   1.549   6.530  0.6529 -0.0255 -2.3973
  100SAPS   O2110030   2.156   1.417   6.660  0.9028  0.2199 -0.2955
  100SAPS   C2110031   2.112   1.473   6.773 -0.3421  0.4292 -0.1508
  100SAPS   O2210032   2.016   1.543   6.790  0.5079 -0.3123 -0.1046
  100SAPS   C2210033   2.219   1.434   6.875  0.3135 -0.3915  0.1648
  100SAPS   H2R10034   2.195   1.329   6.903  0.6348 -0.7063 -0.6961
  100SAPS   H2S10035   2.323   1.444   6.838 -0.4553 -0.8674 -2.3368
  100SAPS    C310036   1.958   1.351   6.531  0.6711  0.0626 -0.4495
  100SAPS    HX10037   1.998   1.248   6.541  0.7206  0.0112 -1.1349
  100SAPS    HY10038   1.909   1.346   6.432 -1.6684 -0.3219  0.6570
  100SAPS   O3110039   1.864   1.382   6.634  0.8586 -0.2250 -0.2477
  100SAPS   C3110040   1.757   1.455   6.598  0.7416 -0.5074  0.0850
  100SAPS   O3210041   1.737   1.511   6.490  0.2686  0.0949  0.1450
  100SAPS   C3210042   1.654   1.465   6.709  0.2780  0.0460 -0.4217
  100SAPS   H2X10043   1.550   1.466   6.667  0.6891  0.2086 -1.4736
  100SAPS   H2Y10044   1.672   1.557   6.767  2.8324 -0.8267  0.2595
  100SAPS   C2310045   2.205   1.530   6.997 -0.6285  0.1935 -0.5452
  100SAPS   H3R10046   2.104   1.535   7.043  0.3068 -1.3519  1.8383
  100SAPS   H3S10047   2.230   1.633   6.964  0.1890  0.5736  1.1573
  100SAPS   C2410048   2.295   1.489   7.114  0.5677  0.1753 -0.3878
  100SAPS   H4R10049   2.318   1.581   7.170  1.4972  1.0756 -2.1577
  100SAPS   H4S10050   2.391   1.459   7.066  0.6536  2.6958 -1.9959
  100SAPS   C2510051   2.227   1.380   7.195  1.1445  0.3994  0.7746
  100SAPS   H5R10052   2.169   1.308   7.137  0.9124  0.7215  0.6051
  100SAPS   C2610053   2.194   1.374   7.326 -0.7365 -0.3162  0.4099
  100SAPS   H6R10054   2.148   1.283   7.366  0.0411 -0.8535  0.1136
  100SAPS   C2710055   2.228   1.485   7.431  0.0807  0.1434  0.1978
  100SAPS   H7R10056   2.296   1.559   7.385  0.6086 -1.3267 -1.5021
  100SAPS   H7S10057   2.267   1.431   7.520  0.8346 -1.4738 -1.0577
  100SAPS   C2810058   2.089   1.555   7.448 -0.2807  0.5741 -0.4207
  100SAPS   H8R10059   2.064   1.612   7.357 -0.3793  2.4674  0.7325
  100SAPS   C2910060   2.021   1.561   7.562  0.3668  0.2181  0.1962
  100SAPS   H9R10061   1.921   1.607   7.563 -0.5537 -1.5414 -2.0613
  100SAPS  C21010062   2.072   1.491   7.691  0.7035 -0.1690 -0.2937
  100SAPS  H10R10063   2.109   1.389   7.667 -0.8379 -0.9421  0.4574
  100SAPS  H10S10064   1.982   1.482   7.756 -1.3127  2.3591 -2.4738
  100SAPS  C21110065   2.180   1.577   7.758  0.5973 -0.2713  0.4098
  100SAPS  H11R10066   2.252   1.616   7.685  0.9653 -0.7191  0.5258
  100SAPS  C21210067   2.205   1.575   7.891 -0.1045  0.5438  0.3222
  100SAPS  H12R10068   2.289   1.634   7.931 -1.1608  1.5916  1.0724
  100SAPS  C21310069   2.122   1.505   7.993 -0.1826 -0.1356  0.9027
  100SAPS  H13R10070   2.109   1.401   7.957  1.8194 -0.6908  1.6187
  100SAPS  H13S10071   2.022   1.553   7.997 -0.3790 -0.5970  1.7256
  100SAPS  C21410072   2.187   1.499   8.131  0.7004  0.5297  0.9056
  100SAPS  H14R10073   2.276   1.436   8.143  0.5289  0.4857  2.0899
  100SAPS  C21510074   2.143   1.558   8.245 -0.4190  0.0646 -0.6244
  100SAPS  H15R10075   2.205   1.558   8.336  0.2032 -0.7054 -1.0391
  100SAPS  C21610076   2.014   1.629   8.273  0.4076 -0.2432  0.1677
  100SAPS  H16R10077   1.948   1.557   8.325  0.8555 -0.7250  0.0827
  100SAPS  H16S10078   1.960   1.666   8.183 -1.1824  0.8258  1.4915
  100SAPS  C21710079   2.041   1.748   8.367 -0.1625  0.0164  0.5490
  100SAPS  H17R10080   1.960   1.822   8.351 -0.5593 -0.1630  1.6134
  100SAPS  H17S10081   2.137   1.784   8.327  0.5715 -1.7630  0.6021
  100SAPS  C21810082   2.074   1.716   8.514 -0.3478  0.1288  0.7727
  100SAPS  H18R10083   2.155   1.644   8.537 -1.1481 -0.6370  1.2518
  100SAPS  H18S10084   1.982   1.661   8.544 -0.1506 -1.1645 -0.8347
  100SAPS  C21910085   2.086   1.842   8.601  0.7937 -0.2412  0.6638
  100SAPS  H19R10086   2.083   1.804   8.705  1.4561  0.3533  0.9077
  100SAPS  H19S10087   1.989   1.891   8.579  0.8964 -1.3897 -3.1275
  100SAPS  C22010088   2.201   1.947   8.579 -0.0249  0.3208  0.9560
  100SAPS  H20R10089   2.180   2.048   8.622  0.8896  1.7176 -1.6335
  100SAPS  H20S10090   2.221   1.947   8.470  1.2375 -2.2079  1.1295
  100SAPS  H20T10091   2.294   1.904   8.620  0.5477 -1.7788 -2.1999
  100SAPS   C3310092   1.654   1.343   6.809  0.4005 -0.7257 -0.1007
  100SAPS   H3X10093   1.699   1.250   6.768  0.4686 -0.4556 -0.6380
  100SAPS   H3Y10094   1.549   1.325   6.839  1.0265 -0.4264  2.5324
  100SAPS   C3410095   1.730   1.392   6.934  0.4118  0.9155 -0.1820
  100SAPS   H4X10096   1.674   1.481   6.970 -0.1189 -0.8633  3.9647
  100SAPS   H4Y10097   1.829   1.417   6.890  0.1942 -0.8723 -1.7924
  100SAPS   C3510098   1.715   1.299   7.049  0.0828  0.3352 -0.0738
  100SAPS   H5X10099   1.739   1.196   7.014  0.6257  0.4601 -0.0900
  100SAPS   H5Y10100   1.606   1.301   7.070  0.2257 -1.0641  0.9054
  100SAPS   C3610101   1.793   1.329   7.179  0.2710 -0.1368  0.0725
  100SAPS   H6X10102   1.770   1.430   7.218 -1.3251 -0.6032  0.4286
  100SAPS   H6Y10103   1.901   1.318   7.155  0.3727 -0.7742  0.7560
  100SAPS   C3710104   1.767   1.226   7.292 -0.5196  0.2086 -0.1174
  100SAPS   H7X10105   1.801   1.125   7.262  1.5104 -0.1168  2.8136
  100SAPS   H7Y10106   1.659   1.208   7.306 -0.5720 -2.0272 -2.7063
  100SAPS   C3810107   1.836   1.262   7.421  1.0984 -0.2436 -0.0225
  100SAPS   H8X10108   1.825   1.370   7.443  0.1850  0.0096 -1.5918
  100SAPS   H8Y10109   1.947   1.252   7.416  1.4544  3.0374 -1.2731
  100SAPS   C3910110   1.772   1.171   7.531 -0.3718  0.4491 -0.2955
  100SAPS   H9X10111   1.776   1.064   7.502  2.1179 -0.2010  2.0717
  100SAPS   H9Y10112   1.665   1.200   7.530 -0.7477 -0.8799  0.0688
  100SAPS  C31010113   1.833   1.196   7.672  0.4118  0.0741 -0.5438
  100SAPS  H10X10114   1.857   1.304   7.686 -2.2058  0.6072  0.4089
  100SAPS  H10Y10115   1.924   1.134   7.683 -0.5492 -1.3126 -0.2248
  100SAPS  C31110116   1.747   1.149   7.793  0.0175 -0.4026  0.0444
  100SAPS  H11X10117   1.754   1.039   7.797 -1.4915 -0.5201  0.0605
  100SAPS  H11Y10118   1.642   1.180   7.773 -0.2009 -0.5229  0.9529
  100SAPS  C31210119   1.793   1.193   7.932  0.2693 -0.6154  0.1720
  100SAPS  H12X10120   1.903   1.202   7.939  0.4778 -2.6581  0.3669
  100SAPS  H12Y10121   1.768   1.116   8.009 -1.2228  1.9844  2.4509
  100SAPS  C31310122   1.721   1.320   7.971 -0.5312  0.5213  0.4185
  100SAPS  H13X10123   1.617   1.280   7.967  0.9488 -3.9266  0.4784
  100SAPS  H13Y10124   1.736   1.393   7.889  2.6941 -0.0261  0.3772
  100SAPS  C31410125   1.757   1.368   8.112 -0.0793 -0.1395  0.2339
  100SAPS  H14X10126   1.702   1.462   8.135  0.3029  0.6390 -1.8258
  100SAPS  H14Y10127   1.865   1.390   8.117 -0.2093  0.3070  1.4812
  100SAPS  C31510128   1.721   1.274   8.235  0.2114  0.5199 -0.3626
  100SAPS  H15X10129   1.750   1.315   8.334 -3.7054  2.3923  0.2253
  100SAPS  H15Y10130   1.769   1.174   8.226 -1.3548 -0.3583  0.4531
  100SAPS  C31610131   1.575   1.236   8.236  0.7554 -0.9276 -0.2679
  100SAPS  H16X10132   1.555   1.184   8.140 -0.6486  1.6224 -1.4448
  100SAPS  H16Y10133   1.517   1.330   8.223 -1.0912 -1.6348  2.1891
  100SAPS  C31710134   1.527   1.150   8.350 -0.2253  0.2691 -0.5201
  100SAPS  H17X10135   1.564   1.047   8.332 -1.8848 -0.2699 -1.0216
  100SAPS  H17Y10136   1.416   1.148   8.354 -0.3264 -0.5987  4.9790
  100SAPS  C31810137   1.556   1.205   8.497 -0.0158 -0.9169  0.9706
  100SAPS  H18X10138   1.531   1.313   8.506  0.9788 -0.6814  0.9595
  100SAPS  H18Y10139   1.664   1.188   8.513  0.2364 -0.6005 -0.3391
  100SAPS  H18Z10140   1.507   1.152   8.582 -1.2504  1.9220  2.1760
  101OSM      N10141   5.128   2.674  10.781  0.3520 -0.1623 -0.0793
  101OSM    C1510142   5.014   2.772  10.803 -0.3369 -1.0226 -0.6033
  101OSM   H15A10143   4.927   2.730  10.851 -1.9160 -0.3937 -2.7258
  101OSM   H15B10144   4.979   2.810  10.708  1.7631 -0.0577 -1.0617
  101OSM   H15C10145   5.048   2.861  10.854 -0.1422 -1.8868  0.8069
  101OSM    C1410146   5.237   2.740  10.706  0.2394  0.3092 -0.7435
  101OSM   H14A10147   5.278   2.826  10.756 -0.1536  0.7435 -1.1521
  101OSM   H14B10148   5.219   2.776  10.606  0.7612 -0.4142 -1.1075
  101OSM   H14C10149   5.315   2.667  10.690  0.4440  0.4705 -0.4788
  101OSM    C1310150   5.176   2.650  10.920  0.3476 -0.0886 -0.2177
  101OSM   H13A10151   5.098   2.636  10.994  1.2316  2.3435  1.3033
  101OSM   H13B10152   5.240   2.733  10.946 -0.8022  1.3381 -1.7736
  101OSM   H13C10153   5.234   2.559  10.916 -0.4622 -0.6530  0.3900
  101OSM    C1210154   5.073   2.546  10.718  0.1319  0.2132 -0.2299
  101OSM   H12A10155   4.993   2.567  10.649  0.1841 -2.0972 -1.0880
  101OSM   H12B10156   5.021   2.485  10.791 -0.9490  0.6490 -0.6121
  101OSM    C1110157   5.162   2.454  10.640 -0.4161  0.2836  0.1515
  101OSM   H11A10158   5.200   2.514  10.555 -0.9412 -1.7721 -1.6062
  101OSM   H11B10159   5.095   2.376  10.598  1.8507 -0.9646 -1.3204
  101OSM      P10160   5.412   2.393  10.683 -0.6142  0.7025 -0.1234
  101OSM    O1310161   5.483   2.456  10.800  0.6033 -0.1698  0.8014
  101OSM    O1410162   5.454   2.248  10.664  0.2017 -0.7516  0.3436
  101OSM    O1110163   5.428   2.474  10.551  0.3566  0.0114  0.1301
  101OSM    O1210164   5.258   2.392  10.718 -0.9544  0.0635  0.5096
  101OSM    C1S10165   5.553   2.486  10.482 -0.1536  0.4047 -0.1715
  101OSM    H1S10166   5.606   2.389  10.482 -1.5323 -0.3857  0.4277
  101OSM    H1T10167   5.610   2.569  10.529  0.9176 -0.8379  0.8040
  101OSM     NF10168   5.671   2.532  10.271  0.3513 -0.2355 -0.2220
  101OSM    HNF10169   5.709   2.624  10.270  0.9352 -0.4587  0.3307
  101OSM    C2S10170   5.539   2.531  10.332  0.1661 -0.3933  0.9300
  101OSM    H2S10171   5.474   2.452  10.289 -0.4928  1.7469 -2.4214
  101OSM    C3S10172   5.456   2.664  10.314 -0.1303  0.0840 -0.1763
  101OSM    H3S10173   5.525   2.749  10.332 -0.0775 -0.3218  1.7052
  101OSM     O310174   5.346   2.671  10.406  0.3350  0.2530 -0.3854
  101OSM    HO310175   5.357   2.598  10.468  0.0914  0.8985  0.4253
  101OSM    C4S10176   5.410   2.674  10.167  0.0710  0.3455 -0.4847
  101OSM    H4S10177   5.306   2.641  10.156  0.0359  0.0619  0.6327
  101OSM    C5S10178   5.476   2.724  10.061  0.9219 -0.5155  0.6953
  101OSM    H5S10179   5.577   2.763  10.081  1.2203 -2.4812  3.7825
  101OSM    C6S10180   5.405   2.736   9.926 -0.0563 -0.3023 -0.7466
  101OSM    H6S10181   5.309   2.680   9.927 -1.7774  2.4036  1.1963
  101OSM    H6T10182   5.470   2.695   9.846 -1.6258 -3.0829 -0.7425
  101OSM    C7S10183   5.373   2.881   9.898  0.0081 -0.2090 -0.1730
  101OSM    H7S10184   5.467   2.939   9.891 -0.6838  0.8771 -0.7589
  101OSM    H7T10185   5.317   2.937   9.976  2.3241  2.4498 -0.2875
  101OSM    C8S10186   5.304   2.907   9.758 -0.0160  0.2524 -0.2867
  101OSM    H8S10187   5.287   3.016   9.749  4.0966  1.0330 -0.3169
  101OSM    H8T10188   5.209   2.850   9.748 -0.0898 -0.4173  3.0665
  101OSM    C9S10189   5.388   2.867   9.636  0.3352 -0.2395  0.7385
  101OSM    H9S10190   5.416   2.760   9.635 -0.2578 -0.3992  0.4494
  101OSM    H9T10191   5.481   2.925   9.655  1.4523 -1.4525 -0.7536
  101OSM   C10S10192   5.327   2.908   9.508 -0.5182 -1.5557  0.4783
  101OSM   H10S10193   5.318   3.018   9.514 -0.6239 -1.4680 -0.9234
  101OSM   H10T10194   5.221   2.875   9.518 -0.3207 -1.5742  3.3129
  101OSM   C11S10195   5.393   2.870   9.382  0.1343 -0.0908  1.1946
  101OSM   H11S10196   5.401   2.763   9.408  1.5254 -0.3602 -0.1600
  101OSM   H11T10197   5.497   2.906   9.368 -0.7370  1.3126 -4.9838
  101OSM   C12S10198   5.324   2.899   9.247 -1.0871  0.0426 -0.5140
  101OSM   H12S10199   5.376   2.818   9.191 -0.7992 -0.8305  0.9603
  101OSM   H12T10200   5.354   2.994   9.198 -1.8690 -0.4613 -2.0168
  101OSM   C13S10201   5.165   2.892   9.252  0.1882  0.3310  0.2793
  101OSM   H13S10202   5.132   2.997   9.262  0.2050  0.2340  1.5943
  101OSM   H13T10203   5.126   2.831   9.337 -2.7466 -0.8650 -1.7642
  101OSM   C14S10204   5.101   2.843   9.122  0.2192  0.0442 -0.5880
  101OSM   H14S10205   4.994   2.823   9.139  0.1436  1.3854  0.7213
  101OSM   H14T10206   5.150   2.746   9.097  4.6543  1.7154  0.5250
  101OSM   C15S10207   5.127   2.940   8.999  0.7432 -0.4405 -0.4792
  101OSM   H15S10208   5.229   2.984   9.000  0.4519  0.5535 -3.4610
  101OSM   H15T10209   5.059   3.028   9.010  0.2709 -0.9356  0.6280
  101OSM   C16S10210   5.102   2.865   8.867  0.7920 -0.5790 -0.1293
  101OSM   H16S10211   5.001   2.818   8.869  0.8695 -0.7882 -0.9125
  101OSM   H16T10212   5.185   2.791   8.865  1.4620  0.1828 -0.8071
  101OSM   C17S10213   5.105   2.951   8.738 -0.8263 -0.2049 -0.1797
  101OSM   H17S10214   5.210   2.986   8.726 -0.7657 -0.1864  0.4055
  101OSM   H17T10215   5.036   3.038   8.748  0.4391  1.0216 -1.4825
  101OSM   C18S10216   5.066   2.870   8.611 -0.0529  0.3105  0.2776
  101OSM   H18S10217   4.982   2.915   8.553 -0.2650  0.7468  0.9161
  101OSM   H18T10218   5.043   2.763   8.627 -0.6919  0.4813  0.5585
  101OSM   H18U10219   5.153   2.868   8.542 -0.0976  1.5171  0.1590
  101OSM    C1F10220   5.750   2.434  10.232 -0.7071  0.5241 -0.5559
  101OSM     OF10221   5.718   2.318  10.260  0.3008 -0.7320 -0.4503
  101OSM    C2F10222   5.878   2.477  10.165  0.0112 -0.4562 -0.1774
  101OSM    H2F10223   5.962   2.424  10.214  2.2566  0.7072 -2.4648
  101OSM    H2G10224   5.899   2.584  10.189 -0.4187 -0.6596  1.1694
  101OSM    C3F10225   5.884   2.438  10.017 -0.6172 -0.1993 -0.4209
  101OSM    H3F10226   5.850   2.333  10.003  1.1133 -1.0470  1.2358
  101OSM    H3G10227   5.992   2.443   9.989 -0.5102  0.3232  0.0599
  101OSM    C4F10228   5.820   2.534   9.920 -0.5701  0.2015 -0.2844
  101OSM    H4F10229   5.886   2.624   9.922 -0.4079  0.0973  2.3292
  101OSM    H4G10230   5.717   2.552   9.958 -1.4993 -0.1781 -2.4668
  101OSM    C5F10231   5.792   2.476   9.780  0.5757 -0.2642  0.3720
  101OSM    H5F10232   5.722   2.391   9.787  2.1626 -1.6903 -0.2760
  101OSM    H5G10233   5.887   2.439   9.735  1.7366  1.3598  1.3640
  101OSM    C6F10234   5.752   2.585   9.684  0.0683 -0.0410  0.6743
  101OSM    H6F10235   5.833   2.659   9.704  0.7964 -1.2523  2.4660
  101OSM    H6G10236   5.655   2.625   9.721 -0.1391  0.2519 -0.1826
  101OSM    C7F10237   5.760   2.537   9.538 -0.4052  0.0774  0.3248
  101OSM    H7F10238   5.719   2.433   9.535 -2.8783  0.7937  3.8250
  101OSM    H7G10239   5.868   2.546   9.517 -0.9119  1.6349 -1.9696
  101OSM    C8F10240   5.693   2.630   9.435  0.1910  0.1235  0.7153
  101OSM    H8F10241   5.606   2.684   9.479 -0.0651  0.2070  0.1289
  101OSM    H8G10242   5.659   2.558   9.357 -2.3248  2.3106 -0.3899
  101OSM    C9F10243   5.767   2.741   9.371 -0.4053 -0.0344  0.2197
  101OSM    H9F10244   5.808   2.813   9.444  1.0645 -0.0072 -0.5846
  101OSM   C10F10245   5.803   2.759   9.241  0.1178 -0.0768  0.5793
  101OSM   H10F10246   5.855   2.853   9.217 -0.6944  0.2715  0.1616
  101OSM   C11F10247   5.752   2.667   9.129  0.7842  0.5435 -0.4527
  101OSM   H11F10248   5.761   2.559   9.154  1.2120  0.5823 -0.4229
  101OSM   H11G10249   5.812   2.693   9.039  0.6902  1.4578 -0.2657
  101OSM   C12F10250   5.606   2.707   9.092 -0.4641  0.0880 -0.0276
  101OSM   H12F10251   5.599   2.818   9.086 -0.2555  0.1480  0.8059
  101OSM   H12G10252   5.537   2.678   9.174 -0.7275 -1.9502 -0.9027
  101OSM   C13F10253   5.561   2.647   8.961  0.3743 -0.0119 -0.3279
  101OSM   H13F10254   5.558   2.536   8.966 -1.0813 -0.0725 -1.5601
  101OSM   H13G10255   5.637   2.676   8.885 -0.7111  2.2204 -0.6613
  101OSM   C14F10256   5.423   2.693   8.915  0.2418  0.0903  0.2809
  101OSM   H14F10257   5.419   2.804   8.920  0.5614  0.0707  1.1320
  101OSM   H14G10258   5.335   2.657   8.972 -0.1807  0.9752  0.2149
  101OSM   C15F10259   5.400   2.682   8.759 -0.2959 -0.1573  0.1450
  101OSM   H15F10260   5.479   2.743   8.709 -1.4290  0.6088 -0.7797
  101OSM   H15G10261   5.304   2.725   8.722 -0.5603 -2.7096 -2.5930
  101OSM   C16F10262   5.420   2.537   8.698 -0.0641  0.6765 -0.5179
  101OSM   H16F10263   5.389   2.459   8.771  2.0763 -0.8926 -1.1449
  101OSM   H16G10264   5.528   2.516   8.684 -0.3106 -0.4553 -0.8717
  101OSM   C17F10265   5.327   2.532   8.570  0.4461 -1.0215  0.3622
  101OSM   H17F10266   5.327   2.636   8.531 -0.5111 -0.8736  0.7393
  101OSM   H17G10267   5.221   2.512   8.594  0.1391 -0.6944 -0.6563
  101OSM   C18F10268   5.382   2.424   8.475 -0.0697  0.5207 -0.1373
  101OSM   H18F10269   5.333   2.428   8.376 -0.6503  0.3968  0.1455
  101OSM   H18G10270   5.358   2.327   8.523 -0.0234  0.8329  0.5317
  101OSM   H18H10271   5.492   2.425   8.454 -0.6427 -0.5288 -3.8673
  102OSM      N10272   2.579   6.265  11.092 -0.5755 -0.6853  0.1088
  102OSM    C1510273   2.506   6.391  11.129 -0.0196 -0.0660  0.3387
  102OSM   H15A10274   2.572   6.476  11.128  1.0069 -0.8384  0.1563
  102OSM   H15B10275   2.461   6.385  11.227  0.3880  0.1160  0.5388
  102OSM   H15C10276   2.431   6.396  11.052  2.6739 -1.0794 -2.5546
  102OSM    C1410277   2.716   6.283  11.157 -0.2962  1.0704  0.7268
  102OSM   H14A10278   2.783   6.199  11.148  2.3342  3.1277 -0.1658
  102OSM   H14B10279   2.709   6.292  11.265  0.7897 -1.9099  1.1351
  102OSM   H14C10280   2.764   6.375  11.129 -1.4034  1.7819  1.0645
  102OSM    C1310281   2.511   6.140  11.140 -0.3753 -0.1551  0.3190
  102OSM   H13A10282   2.405   6.146  11.120 -0.6807  1.2443  2.0239
  102OSM   H13B10283   2.523   6.138  11.248 -0.2238  1.1448  0.3477
  102OSM   H13C10284   2.552   6.047  11.105 -1.8831 -1.1348  1.0605
  102OSM    C1210285   2.595   6.267  10.939  0.6551 -0.3250 -0.3887
  102OSM   H12A10286   2.651   6.176  10.925 -0.5329 -1.0412 -0.6683
  102OSM   H12B10287   2.657   6.348  10.904  1.9006 -1.1485 -0.1423
  102OSM    C1110288   2.463   6.256  10.857 -0.0135  0.3936  0.0491
  102OSM   H11A10289   2.394   6.184  10.905  0.3516 -0.5083 -0.7630
  102OSM   H11B10290   2.491   6.206  10.762  0.4035  0.9421 -0.1235
  102OSM      P10291   2.323   6.437  10.721  0.0087  0.2447  0.5631
  102OSM    O1310292   2.191   6.381  10.741  0.3301 -0.4114  0.4645
  102OSM    O1410293   2.328   6.581  10.710  0.1352  0.1167  0.5435
  102OSM    O1110294   2.403   6.378  10.596  0.3563  0.5426  0.3864
  102OSM    O1210295   2.401   6.388  10.846 -0.1164  0.0600  0.5927
  102OSM    C1S10296   2.334   6.268  10.524 -0.9923 -0.4254  0.1292
  102OSM    H1S10297   2.236   6.300  10.484 -0.6421 -0.6535 -0.9365
  102OSM    H1T10298   2.324   6.176  10.585 -1.2622  0.0972  0.8874
  102OSM     NF10299   2.303   6.182  10.305 -0.6178  0.7412 -0.0838
  102OSM    HNF10300   2.320   6.084  10.296 -2.5078  0.2195  1.3517
  102OSM    C2S10301   2.403   6.246  10.386 -0.3712 -0.0328  0.8236
  102OSM    H2S10302   2.424   6.343  10.336  1.6573  0.2793  2.1743
  102OSM    C3S10303   2.534   6.170  10.414 -0.6444  0.1786 -0.3098
  102OSM    H3S10304   2.512   6.066  10.447 -0.2655  0.2580  0.2111
  102OSM     O310305   2.616   6.234  10.509 -0.4066  0.2561  0.1108
  102OSM    HO310306   2.548   6.287  10.552 -1.8128 -2.4052  1.4079
  102OSM    C4S10307   2.601   6.168  10.273  0.1005 -0.8192 -0.0313
  102OSM    H4S10308   2.647   6.262  10.239  0.7662 -1.2679 -0.3986
  102OSM    C5S10309   2.618   6.056  10.198  0.0919 -0.1262 -0.0933
  102OSM    H5S10310   2.580   5.960  10.237  3.2962 -1.5020 -0.0069
  102OSM    C6S10311   2.691   6.031  10.072 -0.1844  0.1972  0.8715
  102OSM    H6S10312   2.704   5.921  10.066 -1.0255 -0.0963  3.3240
  102OSM    H6T10313   2.788   6.083  10.060  1.3432 -2.8925 -1.9275
  102OSM    C7S10314   2.619   6.087   9.942  0.5405 -0.0476 -0.5986
  102OSM    H7S10315   2.697   6.080   9.863  0.3561  0.0114 -0.7866
  102OSM    H7T10316   2.596   6.194   9.961  0.6342 -0.0714 -0.3494
  102OSM    C8S10317   2.498   6.006   9.897  0.1792 -0.1394 -0.6539
  102OSM    H8S10318   2.433   5.991   9.985 -0.9267 -1.4230 -1.6289
  102OSM    H8T10319   2.516   5.903   9.860  0.8274 -0.6701  1.0851
  102OSM    C9S10320   2.418   6.076   9.781 -0.2359  0.2596 -0.1916
  102OSM    H9S10321   2.379   6.170   9.825  1.5868 -0.0534  2.2865
  102OSM    H9T10322   2.335   6.007   9.754  1.0051 -1.3809  0.0217
  102OSM   C10S10323   2.497   6.128   9.658  0.6980  0.3062 -0.6453
  102OSM   H10S10324   2.569   6.046   9.639 -0.1725 -0.4213 -0.8713
  102OSM   H10T10325   2.552   6.222   9.679 -0.2465  0.4346  1.5470
  102OSM   C11S10326   2.419   6.131   9.524 -1.0284  0.6293  0.2253
  102OSM   H11S10327   2.332   6.198   9.539 -0.8665  0.5409  1.6539
  102OSM   H11T10328   2.380   6.029   9.504  0.8865 -0.2519  0.7929
  102OSM   C12S10329   2.507   6.175   9.402 -0.3584 -0.0963 -0.3746
  102OSM   H12S10330   2.608   6.129   9.392  1.8707  4.7027 -3.8067
  102OSM   H12T10331   2.530   6.283   9.396  2.7471 -0.7290 -1.8768
  102OSM   C13S10332   2.425   6.139   9.272 -0.4175 -0.1237  0.1613
  102OSM   H13S10333   2.339   6.209   9.278  1.6044  2.6298 -0.6408
  102OSM   H13T10334   2.410   6.029   9.261 -0.1306 -0.2068  0.5717
  102OSM   C14S10335   2.499   6.204   9.153  0.4121  0.1132  0.2303
  102OSM   H14S10336   2.598   6.161   9.127 -1.4790 -1.8671 -4.9911
  102OSM   H14T10337   2.508   6.312   9.178 -1.7201  0.0158  1.7059
  102OSM   C15S10338   2.415   6.193   9.022 -0.0797 -0.0631  0.0710
  102OSM   H15S10339   2.334   6.269   9.026 -0.4910 -0.5386  1.8214
  102OSM   H15T10340   2.364   6.096   9.008  0.2747 -0.1691 -0.5548
  102OSM   C16S10341   2.490   6.217   8.894  0.2569 -0.0809 -0.6106
  102OSM   H16S10342   2.572   6.142   8.891  2.2394  1.8516  1.6182
  102OSM   H16T10343   2.543   6.314   8.891  0.0314  0.0585 -0.1928
  102OSM   C17S10344   2.394   6.214   8.774 -0.1667  0.7766  0.2167
  102OSM   H17S10345   2.290   6.249   8.791 -1.2340 -0.4874 -3.0067
  102OSM   H17T10346   2.383   6.110   8.736 -2.8034  0.9013  0.4433
  102OSM   C18S10347   2.447   6.304   8.662  0.3411 -0.6779  0.3496
  102OSM   H18S10348   2.470   6.400   8.714 -2.3624 -1.1928  2.8015
  102OSM   H18T10349   2.378   6.310   8.575  0.2514 -0.4345  0.4364
  102OSM   H18U10350   2.543   6.269   8.618  2.0358  1.9687  1.6739
  102OSM    C1F10351   2.192   6.223  10.247 -0.0343 -0.6742  0.6369
  102OSM     OF10352   2.162   6.344  10.245  0.3880 -0.2544 -0.4073
  102OSM    C2F10353   2.103   6.121  10.200  0.3310 -0.0193 -0.3395
  102OSM    H2F10354   2.009   6.112  10.258  0.6651  0.5221  0.2936
  102OSM    H2G10355   2.147   6.018  10.199  0.0202 -0.1512 -0.4815
  102OSM    C3F10356   2.079   6.142  10.045  0.3282 -0.8518 -0.9487
  102OSM    H3F10357   2.174   6.160   9.991 -0.4591  5.1973 -1.0426
  102OSM    H3G10358   2.013   6.228  10.019 -2.4823 -3.2231 -2.1520
  102OSM    C4F10359   2.000   6.030   9.983 -0.1319  0.0929  0.9428
  102OSM    H4F10360   1.905   6.021  10.041 -0.1707 -3.0957  0.5329
  102OSM    H4G10361   2.045   5.934  10.015  0.2211 -0.4952 -1.2104
  102OSM    C5F10362   1.968   6.029   9.832 -0.4820  0.7901  0.1930
  102OSM    H5F10363   2.062   6.010   9.777 -0.5487 -0.1848  0.3963
  102OSM    H5G10364   1.938   6.127   9.789  1.6010  1.3064 -0.2006
  102OSM    C6F10365   1.855   5.925   9.796 -0.1093  0.0136  0.2394
  102OSM    H6F10366   1.881   5.820   9.821  0.4928 -0.4495 -2.1247
  102OSM    H6G10367   1.853   5.926   9.685 -1.3964  0.3226  0.2500
  102OSM    C7F10368   1.713   5.966   9.856 -0.1245 -0.9387  0.0120
  102OSM    H7F10369   1.699   6.070   9.819 -1.4415 -1.0529  0.1396
  102OSM    H7G10370   1.727   5.977   9.966  3.6017  0.5302 -0.4680
  102OSM    C8F10371   1.591   5.882   9.807 -0.7141  0.5815  0.9087
  102OSM    H8F10372   1.604   5.877   9.697 -0.3586  1.5419  0.8957
  102OSM    H8G10373   1.507   5.954   9.816  0.9352  2.4418  2.0628
  102OSM    C9F10374   1.574   5.750   9.887 -0.7788 -0.4428  0.6583
  102OSM    H9F10375   1.559   5.765   9.995  2.5662  0.9928  1.0668
  102OSM   C10F10376   1.573   5.626   9.841  0.1604  0.6355 -0.0782
  102OSM   H10F10377   1.543   5.544   9.907  1.0480 -1.0932 -1.7251
  102OSM   C11F10378   1.593   5.574   9.706 -0.4833  0.2043 -0.0985
  102OSM   H11F10379   1.693   5.526   9.695 -0.8777 -0.3139 -1.6477
  102OSM   H11G10380   1.594   5.660   9.635  0.8194  0.8473  0.6757
  102OSM   C12F10381   1.485   5.478   9.650  0.4461  0.0721  0.3541
  102OSM   H12F10382   1.384   5.523   9.660  1.0199  1.6333 -0.5326
  102OSM   H12G10383   1.484   5.387   9.714 -3.8248  0.3209  0.9645
  102OSM   C13F10384   1.495   5.432   9.510  0.3823  0.2464 -0.2856
  102OSM   H13F10385   1.589   5.383   9.476 -0.5290 -1.0557 -1.0246
  102OSM   H13G10386   1.490   5.525   9.451  1.5188  0.8046  0.4592
  102OSM   C14F10387   1.380   5.346   9.452 -0.4541  0.0728 -0.1737
  102OSM   H14F10388   1.277   5.371   9.485 -0.0270  3.8066 -1.1701
  102OSM   H14G10389   1.395   5.246   9.497 -0.1109  0.0104 -0.4195
  102OSM   C15F10390   1.404   5.330   9.298  0.5412 -0.6568  0.0007
  102OSM   H15F10391   1.469   5.242   9.278 -0.4915 -1.0354 -1.9130
  102OSM   H15G10392   1.467   5.418   9.275 -0.4228 -0.0993 -0.5365
  102OSM   C16F10393   1.281   5.310   9.209  0.1917 -0.6428  0.8535
  102OSM   H16F10394   1.257   5.416   9.186 -0.0250 -0.8891 -0.1030
  102OSM   H16G10395   1.187   5.273   9.256 -2.3050  0.5889 -2.7183
  102OSM   C17F10396   1.307   5.244   9.077  0.0159  0.0233  0.1010
  102OSM   H17F10397   1.312   5.135   9.101 -0.5989 -0.3395 -1.3197
  102OSM   H17G10398   1.404   5.278   9.037 -0.9825  0.9086 -1.7150
  102OSM   C18F10399   1.190   5.265   8.980  0.1912  0.6684  0.3947
  102OSM   H18F10400   1.180   5.369   8.942 -1.1015 -0.0515 -1.4125
  102OSM   H18G10401   1.090   5.249   9.027 -0.5049  2.7635 -0.2389
  102OSM   H18H10402   1.200   5.197   8.893 -0.1563  0.3559  0.5940
  103OSM      N10403   5.899   4.510  11.003  0.0426  0.3716 -0.6753
  103OSM    C1510404   5.978   4.436  11.101  0.0418 -0.2082 -0.0154
  103OSM   H15A10405   5.930   4.344  11.133  0.9263 -1.2642 -1.5736
  103OSM   H15B10406   6.013   4.495  11.185  0.2944  2.5865 -1.9721
  103OSM   H15C10407   6.077   4.416  11.062 -0.2329  0.6762 -1.1941
  103OSM    C1410408   5.859   4.419  10.894  0.8886  0.7377 -0.2547
  103OSM   H14A10409   5.831   4.319  10.925 -0.6075  0.7778 -1.3165
  103OSM   H14B10410   5.946   4.414  10.830  0.4937  2.6491 -1.0146
  103OSM   H14C10411   5.778   4.457  10.833  1.2777  0.9632 -0.6419
  103OSM    C1310412   5.771   4.548  11.083  0.1797 -0.7212 -0.2438
  103OSM   H13A10413   5.704   4.466  11.104 -0.8745 -0.2356 -1.5968
  103OSM   H13B10414   5.710   4.626  11.038 -0.0193  0.6245  2.1585
  103OSM   H13C10415   5.783   4.574  11.188  0.9282 -2.8004  0.2210
  103OSM    C1210416   5.985   4.625  10.951  0.6198  0.3060  0.4333
  103OSM   H12A10417   5.928   4.677  10.876  2.0618 -0.5777 -1.3638
  103OSM   H12B10418   6.064   4.585  10.890 -0.3571  1.4081 -1.6580
  103OSM    C1110419   6.046   4.724  11.050  0.3360 -0.5061  0.2731
  103OSM   H11A10420   5.973   4.773  11.117  0.2492 -0.7932  0.3936
  103OSM   H11B10421   6.097   4.811  11.004 -0.5973  1.5565  2.8454
  103OSM      P10422   6.291   4.630  11.073  0.0302 -0.2124 -0.3149
  103OSM    O1310423   6.376   4.736  11.140  0.2396  0.5090  0.5646
  103OSM    O1410424   6.325   4.485  11.099  0.0970 -0.0678  0.1352
  103OSM    O1110425   6.284   4.654  10.918 -0.3214  0.5297  0.2428
  103OSM    O1210426   6.143   4.657  11.129 -0.6699  0.5862 -0.6373
  103OSM    C1S10427   6.316   4.548  10.824  0.1948  0.6872 -0.5049
  103OSM    H1S10428   6.253   4.461  10.850  0.8572  0.5751  0.7710
  103OSM    H1T10429   6.420   4.512  10.840 -0.0485  0.3269  0.3350
  103OSM     NF10430   6.279   4.489  10.589  0.4239 -0.1564  0.3964
  103OSM    HNF10431   6.362   4.474  10.535  0.3328  0.0591  0.1924
  103OSM    C2S10432   6.290   4.601  10.680 -0.8072 -0.4066  0.2684
  103OSM    H2S10433   6.198   4.662  10.688 -0.9458 -0.5284 -0.3110
  103OSM    C3S10434   6.405   4.703  10.645  0.4183 -0.1150 -0.4386
  103OSM    H3S10435   6.503   4.651  10.650  0.8665  0.8086  1.1842
  103OSM     O310436   6.419   4.806  10.744 -0.0052  0.0991 -0.1869
  103OSM    HO310437   6.357   4.780  10.813 -1.8905  3.5549 -0.3548
  103OSM    C4S10438   6.389   4.766  10.505  0.1418  0.8166 -0.0078
  103OSM    H4S10439   6.443   4.710  10.427 -1.0749 -0.7783  0.2557
  103OSM    C5S10440   6.317   4.871  10.478  0.1287  0.2276 -0.1120
  103OSM    H5S10441   6.265   4.920  10.562 -0.0728 -1.0945  0.5587
  103OSM    C6S10442   6.279   4.913  10.336 -0.0418 -1.0913  0.0222
  103OSM    H6S10443   6.345   4.998  10.306  1.0725 -2.2603 -1.0095
  103OSM    H6T10444   6.179   4.961  10.333  0.2398 -0.4871  0.0910
  103OSM    C7S10445   6.297   4.812  10.226  0.4634  0.1882 -0.0309
  103OSM    H7S10446   6.238   4.723  10.253 -1.4368  1.0190 -1.2402
  103OSM    H7T10447   6.406   4.804  10.206  0.3369 -0.9891 -0.2941
  103OSM    C8S10448   6.240   4.865  10.094 -0.0518  0.1016  0.0686
  103OSM    H8S10449   6.290   4.961  10.069 -1.6379  0.6557 -1.1345
  103OSM    H8T10450   6.130   4.880  10.103  0.0892  1.5912 -0.4773
  103OSM    C9S10451   6.250   4.762   9.974 -0.4838 -0.2165 -0.6593
  103OSM    H9S10452   6.190   4.670   9.995  1.3115 -2.0650 -3.0237
  103OSM    H9T10453   6.351   4.721   9.956 -0.9404 -0.6659 -2.4069
  103OSM   C10S10454   6.206   4.822   9.836 -0.2923 -0.1713  0.2608
  103OSM   H10S10455   6.292   4.888   9.812 -1.2393  0.8561 -0.4393
  103OSM   H10T10456   6.121   4.887   9.865  0.0886 -0.0702  1.1597
  103OSM   C11S10457   6.169   4.714   9.731 -0.3029  0.2674  0.4620
  103OSM   H11S10458   6.092   4.640   9.763  0.0458  0.5327  1.9901
  103OSM   H11T10459   6.265   4.659   9.730 -0.7497 -0.5275 -0.0453
  103OSM   C12S10460   6.127   4.778   9.598 -0.2289 -0.6782  0.2953
  103OSM   H12S10461   6.198   4.856   9.562 -0.6102 -1.2031 -1.7520
  103OSM   H12T10462   6.027   4.823   9.617  0.3563  1.5369 -1.3609
  103OSM   C13S10463   6.109   4.671   9.488  0.2451 -0.6800  0.5344
  103OSM   H13S10464   6.041   4.597   9.535  1.2700 -0.8801  1.7671
  103OSM   H13T10465   6.211   4.641   9.454 -0.1661 -0.2444 -1.1744
  103OSM   C14S10466   6.034   4.719   9.361 -1.0706  0.1674  0.0099
  103OSM   H14S10467   5.930   4.749   9.386 -1.1817  1.4333 -1.7637
  103OSM   H14T10468   6.017   4.630   9.296 -0.0638 -0.0203 -0.0115
  103OSM   C15S10469   6.106   4.826   9.277  0.3677 -0.0830 -0.9504
  103OSM   H15S10470   6.211   4.789   9.266  0.0512 -1.5018  0.4513
  103OSM   H15T10471   6.119   4.918   9.338 -0.4078  0.3660 -1.4543
  103OSM   C16S10472   6.050   4.851   9.136 -0.2414  1.5047  0.4072
  103OSM   H16S10473   6.124   4.912   9.079 -0.6312  0.6138 -1.1219
  103OSM   H16T10474   5.953   4.905   9.134 -0.6706  0.7765  1.2141
  103OSM   C17S10475   6.031   4.728   9.058  1.2713 -0.1882 -0.0403
  103OSM   H17S10476   5.940   4.677   9.098  1.5628 -2.4584 -2.0412
  103OSM   H17T10477   6.114   4.656   9.073 -0.1736 -1.9175 -0.0022
  103OSM   C18S10478   6.009   4.758   8.910 -0.0948  0.7253 -0.0988
  103OSM   H18S10479   5.953   4.676   8.861 -0.8200  1.0482  0.1742
  103OSM   H18T10480   6.105   4.778   8.857  0.7723 -1.3321  0.5844
  103OSM   H18U10481   5.946   4.848   8.895  0.4555  1.6907  2.6582
  103OSM    C1F10482   6.164   4.422  10.580  0.6158 -0.2813 -0.1645
  103OSM     OF10483   6.069   4.460  10.646 -0.4070  0.5371 -0.7610
  103OSM    C2F10484   6.160   4.290  10.500 -0.5327 -0.6752  0.1292
  103OSM    H2F10485   6.054   4.266  10.477  0.0104 -1.2250 -2.0899
  103OSM    H2G10486   6.211   4.209  10.556  1.2571 -1.0237 -1.8481
  103OSM    C3F10487   6.225   4.302  10.355 -0.3609  0.2840  0.1133
  103OSM    H3F10488   6.329   4.264  10.344 -0.7799 -0.9503  0.2356
  103OSM    H3G10489   6.239   4.410  10.335 -4.1531  0.8493 -0.1231
  103OSM    C4F10490   6.145   4.232  10.245 -0.0502  0.4628 -0.4332
  103OSM    H4F10491   6.036   4.250  10.257  0.2522  2.3672 -0.3539
  103OSM    H4G10492   6.153   4.121  10.251  2.9246  0.2551 -4.4067
  103OSM    C5F10493   6.198   4.263  10.112 -0.4822 -0.2861 -0.5481
  103OSM    H5F10494   6.308   4.247  10.119 -0.5147 -0.8454 -1.2747
  103OSM    H5G10495   6.187   4.372  10.095  0.2425 -0.1151  0.0124
  103OSM    C6F10496   6.123   4.176  10.008  0.5899  0.2953  0.4772
  103OSM    H6F10497   6.135   4.228   9.911  0.1508  0.7447  0.6595
  103OSM    H6G10498   6.014   4.180  10.028  0.3173 -0.2764 -0.7791
  103OSM    C7F10499   6.178   4.037   9.974  0.3652  0.3974 -0.9572
  103OSM    H7F10500   6.213   3.982  10.064  0.1646  0.1123 -1.0505
  103OSM    H7G10501   6.272   4.045   9.915  2.2271 -0.2643  1.7571
  103OSM    C8F10502   6.077   3.956   9.891 -0.5460 -0.0503  0.4081
  103OSM    H8F10503   6.015   4.032   9.840  0.0532  2.2428  2.8855
  103OSM    H8G10504   6.020   3.904   9.971  1.2224 -1.5755  0.7701
  103OSM    C9F10505   6.122   3.850   9.789  0.5211 -0.1166  0.0099
  103OSM    H9F10506   6.181   3.769   9.836 -0.3110  0.3500  1.9577
  103OSM   C10F10507   6.104   3.850   9.660 -0.7947  0.0955  0.2680
  103OSM   H10F10508   6.134   3.768   9.593  1.2832  1.4620 -0.5661
  103OSM   C11F10509   6.035   3.963   9.590  0.1258  0.0104 -0.2201
  103OSM   H11F10510   6.071   3.981   9.487 -1.0415 -0.3429 -0.7025
  103OSM   H11G10511   6.060   4.060   9.639  2.9169  0.2399 -1.8904
  103OSM   C12F10512   5.880   3.954   9.592 -0.3293 -0.0829 -0.0904
  103OSM   H12F10513   5.839   4.056   9.578  0.1557  0.0505 -0.5617
  103OSM   H12G10514   5.854   3.910   9.691  0.8063  1.0480  0.7338
  103OSM   C13F10515   5.840   3.864   9.473 -0.1279  0.3103 -0.5050
  103OSM   H13F10516   5.888   3.766   9.493 -1.4899 -0.1209  0.8365
  103OSM   H13G10517   5.729   3.853   9.478 -0.0860  0.4762  1.7176
  103OSM   C14F10518   5.870   3.931   9.332  0.1673  0.4927  0.6297
  103OSM   H14F10519   5.980   3.946   9.319  0.0441  0.1214 -0.9877
  103OSM   H14G10520   5.812   4.025   9.324 -2.7921 -1.3764 -2.5050
  103OSM   C15F10521   5.799   3.850   9.215 -0.0311  0.0603  0.4276
  103OSM   H15F10522   5.696   3.837   9.255 -0.4525  0.3302 -0.5398
  103OSM   H15G10523   5.850   3.751   9.212  0.7143  0.4632 -1.4275
  103OSM   C16F10524   5.823   3.925   9.082 -0.1072  0.1969 -0.3771
  103OSM   H16F10525   5.929   3.902   9.062 -0.1262 -1.8808  1.4582
  103OSM   H16G10526   5.814   4.035   9.093 -0.9079  0.0101  1.3914
  103OSM   C17F10527   5.753   3.874   8.961  0.7290 -0.6669 -0.1434
  103OSM   H17F10528   5.781   3.766   8.964  1.7324 -0.4126  2.7956
  103OSM   H17G10529   5.794   3.906   8.863  3.8106  3.8618  2.2743
  103OSM   C18F10530   5.599   3.902   8.965 -0.6210  0.0874  0.5692
  103OSM   H18F10531   5.576   4.002   9.008 -1.7383  0.4704 -0.8583
  103OSM   H18G10532   5.549   3.828   9.031  0.5500 -2.7945 -1.5978
  103OSM   H18H10533   5.562   3.903   8.860 -0.3711 -2.2295  0.4229
  104OSM      N10534   4.249   2.712  11.032  0.0465  0.4829 -0.2181
  104OSM    C1510535   4.370   2.806  11.016  0.1876 -0.0206  0.5840
  104OSM   H15A10536   4.456   2.762  10.968 -0.9950 -0.8451 -0.8542
  104OSM   H15B10537   4.410   2.819  11.115  1.8109 -1.8999  0.2462
  104OSM   H15C10538   4.335   2.898  10.973 -1.9145 -0.3002  1.5486
  104OSM    C1410539   4.287   2.592  11.107 -0.1194 -0.1879  0.2541
  104OSM   H14A10540   4.209   2.519  11.119 -0.8166  0.5707  0.3971
  104OSM   H14B10541   4.322   2.618  11.206 -0.9738 -0.2187  0.5733
  104OSM   H14C10542   4.370   2.544  11.057  0.2229 -0.2022  0.8213
  104OSM    C1310543   4.146   2.792  11.107 -0.0948 -0.1534  0.2827
  104OSM   H13A10544   4.113   2.874  11.044  0.6740  1.9495  2.4567
  104OSM   H13B10545   4.172   2.840  11.200  0.1775  1.6751 -0.6992
  104OSM   H13C10546   4.056   2.739  11.136 -0.5697  1.2828  1.5972
  104OSM    C1210547   4.194   2.670  10.894  0.4572 -0.0829  0.1860
  104OSM   H12A10548   4.159   2.759  10.843 -1.0890 -0.7788 -0.0150
  104OSM   H12B10549   4.106   2.608  10.903  0.4096  0.0890  0.9446
  104OSM    C1110550   4.298   2.601  10.803 -0.4111  0.7824  0.1973
  104OSM   H11A10551   4.387   2.666  10.787 -3.0848  4.5638 -0.4883
  104OSM   H11B10552   4.255   2.600  10.701 -0.7234 -1.2955  0.2998
  104OSM      P10553   4.246   2.343  10.831  0.4810 -0.0256  0.5144
  104OSM    O1310554   4.316   2.222  10.873 -0.3618 -0.7373 -0.7633
  104OSM    O1410555   4.115   2.364  10.893  0.4550  0.6187 -0.1519
  104OSM    O1110556   4.229   2.333  10.673  0.3047 -0.1758  0.2755
  104OSM    O1210557   4.335   2.474  10.852  0.6040  0.0945 -0.4134
  104OSM    C1S10558   4.341   2.317  10.578 -0.1282  0.2520  0.0168
  104OSM    H1S10559   4.405   2.226  10.586  2.6488  1.8812 -2.0085
  104OSM    H1T10560   4.410   2.402  10.600 -0.6025  0.5413  0.4183
  104OSM     NF10561   4.418   2.295  10.341 -0.9168 -0.2061 -0.3437
  104OSM    HNF10562   4.461   2.375  10.299  0.4104 -0.5104  0.3957
  104OSM    C2S10563   4.301   2.312  10.426 -0.8588 -0.4623  0.7204
  104OSM    H2S10564   4.256   2.213  10.407  3.8406 -2.8291  0.4219
  104OSM    C3S10565   4.216   2.439  10.391  0.5798 -0.2526 -0.2077
  104OSM    H3S10566   4.269   2.532  10.422 -1.4307  1.2380 -1.0193
  104OSM     O310567   4.095   2.453  10.460 -0.4682  0.6955  0.2928
  104OSM    HO310568   4.106   2.392  10.533  0.7968 -0.2242 -0.6116
  104OSM    C4S10569   4.184   2.442  10.248 -0.4852 -0.2978 -0.8334
  104OSM    H4S10570   4.273   2.471  10.189 -0.3191 -0.8030 -0.8340
  104OSM    C5S10571   4.068   2.418  10.176  0.1558 -0.0574  0.2032
  104OSM    H5S10572   3.980   2.384  10.232 -0.8807 -0.9899 -1.8743
  104OSM    C6S10573   4.047   2.432  10.028  0.0182  0.2843  0.6981
  104OSM    H6S10574   3.945   2.476  10.026 -0.1076  0.1872  3.0595
  104OSM    H6T10575   4.046   2.328   9.987 -0.2142  0.9486 -1.0893
  104OSM    C7S10576   4.149   2.506   9.936 -0.1805  0.4721  0.2139
  104OSM    H7S10577   4.251   2.472   9.963  0.1769  2.2285  1.1974
  104OSM    H7T10578   4.143   2.617   9.936 -0.0487  0.4805  0.0646
  104OSM    C8S10579   4.140   2.449   9.792 -0.3682 -0.7198  0.6593
  104OSM    H8S10580   4.035   2.417   9.773 -0.1275 -0.8891 -0.4647
  104OSM    H8T10581   4.203   2.360   9.775 -2.5847 -2.1978 -0.3904
  104OSM    C9S10582   4.165   2.553   9.684  0.2208  0.3256 -0.0405
  104OSM    H9S10583   4.274   2.577   9.680  0.4115 -0.6072 -2.8862
  104OSM    H9T10584   4.105   2.645   9.705 -1.5280 -0.3504 -1.7399
  104OSM   C10S10585   4.137   2.503   9.543 -0.2336 -0.2589  0.3519
  104OSM   H10S10586   4.032   2.466   9.538  0.0457 -1.1144  0.7698
  104OSM   H10T10587   4.202   2.417   9.520 -0.9927 -0.9818  0.8527
  104OSM   C11S10588   4.159   2.624   9.454  0.1796  0.6275 -0.2868
  104OSM   H11S10589   4.261   2.660   9.481  0.0536  0.3626  0.5676
  104OSM   H11T10590   4.086   2.704   9.476 -0.6082  0.8090 -3.1227
  104OSM   C12S10591   4.152   2.588   9.306  0.1603  0.0567  0.1305
  104OSM   H12S10592   4.062   2.524   9.299 -1.3585  2.0633  0.4598
  104OSM   H12T10593   4.243   2.525   9.291  0.0269  0.3352 -2.1956
  104OSM   C13S10594   4.152   2.712   9.210 -0.3489 -0.2690 -0.5078
  104OSM   H13S10595   4.244   2.774   9.216 -1.6988  2.0549 -1.8561
  104OSM   H13T10596   4.069   2.778   9.244 -0.1484  0.2029 -0.9293
  104OSM   C14S10597   4.130   2.658   9.066  0.2394  0.7509 -0.4755
  104OSM   H14S10598   4.035   2.601   9.054  1.0031 -0.7345  0.1808
  104OSM   H14T10599   4.213   2.590   9.037  0.3563  0.4915  0.4397
  104OSM   C15S10600   4.125   2.774   8.965  0.0014 -0.1020 -0.1329
  104OSM   H15S10601   4.221   2.829   8.960 -1.4824  2.5699 -1.6444
  104OSM   H15T10602   4.052   2.851   9.001 -0.8090  0.4015 -2.6252
  104OSM   C16S10603   4.086   2.722   8.830 -0.1711  0.6749  0.3640
  104OSM   H16S10604   3.986   2.675   8.836  1.0578 -1.9246  2.1460
  104OSM   H16T10605   4.155   2.636   8.824  0.3830  1.1306  0.0812
  104OSM   C17S10606   4.096   2.816   8.710 -0.9407 -0.1684  0.0116
  104OSM   H17S10607   4.202   2.846   8.701 -1.2908  3.6091  4.6094
  104OSM   H17T10608   4.040   2.911   8.729 -0.4099  0.4965 -1.6167
  104OSM   C18S10609   4.057   2.748   8.581  0.2631  0.1048 -0.1895
  104OSM   H18S10610   4.133   2.673   8.551  0.6146  0.1690  0.5020
  104OSM   H18T10611   4.062   2.821   8.499 -2.6648  0.0036 -0.5710
  104OSM   H18U10612   3.953   2.709   8.582  0.3189 -0.0422  0.1393
  104OSM    C1F10613   4.490   2.177  10.341 -0.5464 -0.4099  1.4711
  104OSM     OF10614   4.449   2.080  10.391  0.5160 -0.0373 -0.2922
  104OSM    C2F10615   4.615   2.171  10.247 -0.2347  0.2018 -0.0331
  104OSM    H2F10616   4.646   2.064  10.243 -1.4225 -0.1320 -0.4760
  104OSM    H2G10617   4.689   2.244  10.288 -1.1520  0.9174  0.3865
  104OSM    C3F10618   4.583   2.226  10.106 -0.0783  0.4319 -0.2668
  104OSM    H3F10619   4.678   2.245  10.053 -0.2015  2.3961  0.1588
  104OSM    H3G10620   4.535   2.326  10.116  1.1588  1.1621 -1.3802
  104OSM    C4F10621   4.481   2.131  10.036 -1.2709  0.7216  0.3592
  104OSM    H4F10622   4.391   2.122  10.100  0.2236  0.0825  2.4873
  104OSM    H4G10623   4.518   2.027  10.023 -3.6689 -0.4159  1.9834
  104OSM    C5F10624   4.424   2.190   9.908 -0.1879  0.7468  0.7296
  104OSM    H5F10625   4.394   2.296   9.929  3.3119  1.6121  1.9697
  104OSM    H5G10626   4.324   2.142   9.895 -0.5950  1.7783 -0.1258
  104OSM    C6F10627   4.505   2.168   9.781 -0.0832 -0.0821  0.4606
  104OSM    H6F10628   4.533   2.060   9.774  0.5926  0.1600 -0.9112
  104OSM    H6G10629   4.597   2.229   9.776 -1.0559  1.3406 -0.7360
  104OSM    C7F10630   4.412   2.191   9.657 -0.9071 -0.5193  0.3179
  104OSM    H7F10631   4.394   2.299   9.642 -2.0964 -0.8323 -0.6540
  104OSM    H7G10632   4.312   2.151   9.681 -0.3451 -1.3517  1.3641
  104OSM    C8F10633   4.472   2.132   9.527  0.4900 -0.0407 -0.3113
  104OSM    H8F10634   4.494   2.024   9.539 -0.6048 -0.1200  1.2623
  104OSM    H8G10635   4.571   2.179   9.509  0.3094  0.0082 -1.2031
  104OSM    C9F10636   4.372   2.157   9.415 -0.3600 -0.4622  0.7535
  104OSM    H9F10637   4.294   2.080   9.414 -1.3355  0.5177 -0.4795
  104OSM   C10F10638   4.368   2.248   9.312 -1.2491 -0.4583 -0.4033
  104OSM   H10F10639   4.289   2.239   9.236 -0.0503 -0.1230 -1.7237
  104OSM   C11F10640   4.473   2.351   9.277 -0.2204  0.3304  0.0426
  104OSM   H11F10641   4.525   2.375   9.372  0.1640  1.7787 -0.5120
  104OSM   H11G10642   4.439   2.449   9.240  1.9575  1.0163 -0.3197
  104OSM   C12F10643   4.586   2.303   9.194 -0.1132 -0.5184 -0.1145
  104OSM   H12F10644   4.634   2.210   9.229 -0.4659 -0.6152  0.1143
  104OSM   H12G10645   4.662   2.384   9.194 -2.0024  1.4464 -2.9512
  104OSM   C13F10646   4.544   2.287   9.046  0.4245  1.2230  0.6185
  104OSM   H13F10647   4.515   2.384   8.999 -1.3883  1.7406  2.5932
  104OSM   H13G10648   4.461   2.213   9.047  1.9125 -0.5073  0.0360
  104OSM   C14F10649   4.655   2.225   8.966 -0.0386 -0.6586  0.6242
  104OSM   H14F10650   4.605   2.150   8.902 -3.7258  0.8926  1.4541
  104OSM   H14G10651   4.707   2.152   9.033 -0.1901 -1.0159  0.3540
  104OSM   C15F10652   4.733   2.319   8.879  0.0221 -0.3866  0.1791
  104OSM   H15F10653   4.670   2.383   8.814  0.8949 -0.1185 -0.4141
  104OSM   H15G10654   4.791   2.252   8.812 -0.0584 -1.4979  1.1877
  104OSM   C16F10655   4.826   2.409   8.961 -1.5916  0.3595  0.4619
  104OSM   H16F10656   4.906   2.341   8.997 -1.2358 -0.0419 -1.0180
  104OSM   H16G10657   4.773   2.442   9.053 -0.2366 -0.6475  1.6483
  104OSM   C17F10658   4.884   2.528   8.885  0.5369  0.2231 -0.0333
  104OSM   H17F10659   4.954   2.580   8.954 -0.0783 -1.6990  2.1733
  104OSM   H17G10660   4.800   2.599   8.869  0.0485 -0.5269 -0.8868
  104OSM   C18F10661   4.950   2.502   8.750 -0.5111  0.1429  0.0710
  104OSM   H18F10662   4.885   2.443   8.681 -0.4559  0.4574 -0.2582
  104OSM   H18G10663   5.051   2.459   8.764 -1.0002 -1.2776 -0.5948
  104OSM   H18H10664   4.966   2.600   8.700 -0.0455 -0.3154 -0.6930
  105OSM      N10665   4.530   1.584  11.119 -0.7159  0.1255 -0.1716
  105OSM    C1510666   4.669   1.623  11.150 -0.1090  0.1007  0.0897
  105OSM   H15A10667   4.722   1.605  11.057  1.8605  1.9753  0.7746
  105OSM   H15B10668   4.717   1.565  11.227  0.9890  0.8113 -0.0405
  105OSM   H15C10669   4.675   1.730  11.161  0.4573  0.0369  0.3967
  105OSM    C1410670   4.526   1.434  11.092  0.0939 -0.4842  0.1303
  105OSM   H14A10671   4.427   1.402  11.065  0.1658  0.7353 -1.7624
  105OSM   H14B10672   4.566   1.381  11.178  3.5242 -0.6521 -1.3752
  105OSM   H14C10673   4.593   1.421  11.008 -0.1181  0.2825 -0.1583
  105OSM    C1310674   4.445   1.601  11.241 -0.1320 -0.8140 -0.6576
  105OSM   H13A10675   4.443   1.706  11.266 -4.7420 -0.8686  0.0690
  105OSM   H13B10676   4.494   1.543  11.318  1.3443  0.4009 -0.6304
  105OSM   H13C10677   4.343   1.572  11.223 -0.4527 -1.2804  1.6990
  105OSM    C1210678   4.464   1.663  11.008  0.0825  0.3823  0.9084
  105OSM   H12A10679   4.466   1.766  11.041 -1.0493  0.6041  0.3129
  105OSM   H12B10680   4.361   1.634  11.004  0.3808 -0.5407 -1.2533
  105OSM    C1110681   4.532   1.669  10.869 -0.5549  0.4230 -0.5370
  105OSM   H11A10682   4.638   1.700  10.874 -0.5034  0.1608  0.0007
  105OSM   H11B10683   4.483   1.744  10.803  0.6749 -0.6094 -2.7639
  105OSM      P10684   4.429   1.451  10.741 -0.4087  0.1655  0.0092
  105OSM    O1310685   4.494   1.369  10.640 -0.1874  0.2476 -0.3397
  105OSM    O1410686   4.357   1.367  10.838 -0.4357  0.3864  0.2570
  105OSM    O1110687   4.338   1.555  10.673  0.3426 -0.5192 -0.8393
  105OSM    O1210688   4.537   1.542  10.813  0.3338 -0.1395 -0.8326
  105OSM    C1S10689   4.380   1.624  10.553 -0.9318  0.1196  0.4704
  105OSM    H1S10690   4.388   1.547  10.474 -1.2367 -0.7724  1.2854
  105OSM    H1T10691   4.476   1.671  10.581 -0.3822 -0.0697 -1.0248
  105OSM     NF10692   4.310   1.802  10.398  0.9037 -0.6434  0.5984
  105OSM    HNF10693   4.365   1.886  10.399 -0.9674  0.6874 -0.9850
  105OSM    C2S10694   4.283   1.736  10.520  0.5287 -0.1285 -0.4682
  105OSM    H2S10695   4.181   1.693  10.513 -0.1104  1.2941 -0.2944
  105OSM    C3S10696   4.281   1.838  10.647 -0.7191  0.1993  0.3014
  105OSM    H3S10697   4.387   1.860  10.673 -0.1954 -0.8383 -0.8201
  105OSM     O310698   4.230   1.774  10.764 -0.2978 -0.0761  0.6854
  105OSM    HO310699   4.235   1.682  10.737  3.5962  0.1702 -0.0217
  105OSM    C4S10700   4.209   1.967  10.615 -0.4230 -0.2403  0.1624
  105OSM    H4S10701   4.269   2.043  10.562 -0.2004 -0.6334 -0.1586
  105OSM    C5S10702   4.082   2.000  10.640 -0.3599 -0.1830 -0.0179
  105OSM    H5S10703   4.015   1.934  10.697 -1.1573  0.6875  0.0699
  105OSM    C6S10704   4.002   2.128  10.616 -0.4247 -0.3277 -0.5584
  105OSM    H6S10705   4.070   2.190  10.554  0.4012 -0.6962 -0.0309
  105OSM    H6T10706   3.983   2.180  10.712  2.8043 -0.9665  0.5333
  105OSM    C7S10707   3.866   2.084  10.553  0.3076 -0.0064  0.2130
  105OSM    H7S10708   3.792   2.165  10.537  0.8821  1.6330  4.5721
  105OSM    H7T10709   3.817   2.014  10.624 -0.8199  2.2211  1.7380
  105OSM    C8S10710   3.880   2.001  10.428 -0.2590 -0.4831 -0.1761
  105OSM    H8S10711   3.783   1.976  10.381  0.3274  0.1027 -1.7587
  105OSM    H8T10712   3.926   1.901  10.448 -0.5028 -0.2080  2.0323
  105OSM    C9S10713   3.943   2.063  10.303 -0.1037 -0.2332 -0.3228
  105OSM    H9S10714   4.041   2.105  10.334 -0.1989 -0.6402  0.5330
  105OSM    H9T10715   3.880   2.145  10.262 -1.8877 -0.2626  2.1639
  105OSM   C10S10716   3.953   1.969  10.180 -0.2013  0.0330 -0.4979
  105OSM   H10S10717   3.850   1.932  10.162  0.0384 -0.8958 -0.0050
  105OSM   H10T10718   4.031   1.895  10.209  0.3314  0.6878 -0.2364
  105OSM   C11S10719   3.995   2.050  10.058  0.0704 -0.0038 -0.4626
  105OSM   H11S10720   4.104   2.066  10.047 -0.1208  1.1254 -0.9207
  105OSM   H11T10721   3.938   2.145  10.046 -0.8154 -0.0780  2.3819
  105OSM   C12S10722   3.957   1.970   9.930 -0.2380 -0.1373  0.3772
  105OSM   H12S10723   3.851   1.935   9.933  0.1913 -1.4912  0.6915
  105OSM   H12T10724   4.022   1.880   9.931  0.8587  0.6401  1.2280
  105OSM   C13S10725   3.974   2.061   9.800  0.8347 -0.7937 -0.2494
  105OSM   H13S10726   4.073   2.107   9.822  1.0030 -1.4030  0.3032
  105OSM   H13T10727   3.895   2.139   9.800  1.7153  0.1365 -0.9719
  105OSM   C14S10728   3.971   1.979   9.668 -0.1992 -0.1534  0.2538
  105OSM   H14S10729   3.886   1.908   9.658 -0.6789  0.5653 -0.9731
  105OSM   H14T10730   4.061   1.914   9.663  0.3001  0.6163 -2.3213
  105OSM   C15S10731   3.967   2.061   9.537  0.3822 -0.9958 -0.4928
  105OSM   H15S10732   4.042   2.142   9.546 -1.9641  1.2556  0.1573
  105OSM   H15T10733   3.868   2.113   9.535  0.6072 -0.5432 -2.6895
  105OSM   C16S10734   3.986   1.986   9.409  0.4992  0.1231  0.3251
  105OSM   H16S10735   3.903   1.913   9.408 -0.6634  1.3925  0.9572
  105OSM   H16T10736   4.083   1.932   9.413  1.3599  1.5086 -0.7338
  105OSM   C17S10737   3.985   2.069   9.281 -0.7160 -0.3241 -0.3008
  105OSM   H17S10738   4.065   2.146   9.294  0.2401 -1.3745  0.2587
  105OSM   H17T10739   3.888   2.119   9.260  0.3353  0.9652 -2.3778
  105OSM   C18S10740   4.036   1.999   9.154 -0.4381  0.1034 -0.3316
  105OSM   H18S10741   4.139   1.962   9.173  0.3351  2.4078  0.2931
  105OSM   H18T10742   4.052   2.075   9.075  0.1267 -0.7757 -1.0792
  105OSM   H18U10743   3.975   1.920   9.106  1.2947 -0.2977 -1.9774
  105OSM    C1F10744   4.281   1.744  10.274 -0.8456  0.0561  0.1604
  105OSM     OF10745   4.234   1.633  10.269 -0.4648  0.1851  0.6325
  105OSM    C2F10746   4.306   1.820  10.154 -0.3106  0.2961  0.4287
  105OSM    H2F10747   4.395   1.885  10.168 -0.4654  0.6617 -0.2217
  105OSM    H2G10748   4.224   1.893  10.138 -0.0419  0.8106  1.3509
  105OSM    C3F10749   4.339   1.719  10.037 -0.2896 -0.0521 -0.2762
  105OSM    H3F10750   4.255   1.647  10.034 -2.6343  2.4533  0.5990
  105OSM    H3G10751   4.439   1.674  10.056  1.1127  1.8409 -2.5395
  105OSM    C4F10752   4.349   1.803   9.910 -0.0089  0.3063  0.1707
  105OSM    H4F10753   4.443   1.863   9.903  2.5337 -3.3708 -0.1488
  105OSM    H4G10754   4.267   1.877   9.906 -0.1915  0.0987 -3.0754
  105OSM    C5F10755   4.331   1.711   9.783 -0.6569  0.3806  0.5405
  105OSM    H5F10756   4.235   1.654   9.782  0.0185 -0.7837 -0.0049
  105OSM    H5G10757   4.412   1.636   9.788 -1.6955 -0.9519 -1.1811
  105OSM    C6F10758   4.345   1.801   9.665 -0.0975  0.1395  0.9020
  105OSM    H6F10759   4.454   1.822   9.650 -0.2333 -0.7279 -1.9418
  105OSM    H6G10760   4.293   1.896   9.691 -1.1563  0.2791 -1.4603
  105OSM    C7F10761   4.285   1.753   9.523  0.5247 -0.5780 -0.1031
  105OSM    H7F10762   4.279   1.844   9.460 -2.7018  0.9112  2.0697
  105OSM    H7G10763   4.180   1.725   9.547  0.3792  0.4660  0.5478
  105OSM    C8F10764   4.359   1.634   9.467  0.3177 -0.1337  0.0482
  105OSM    H8F10765   4.297   1.590   9.385  1.8295 -2.2998 -0.0408
  105OSM    H8G10766   4.375   1.548   9.535  2.4857 -0.3753 -0.6605
  105OSM    C9F10767   4.491   1.691   9.418 -0.6152  0.1944 -0.0522
  105OSM    H9F10768   4.559   1.700   9.504  0.0207 -0.8541 -0.4392
  105OSM   C10F10769   4.533   1.730   9.298 -0.5216  0.3031  0.8514
  105OSM   H10F10770   4.634   1.773   9.291 -0.3425 -0.0039  1.5134
  105OSM   C11F10771   4.454   1.724   9.168  0.1543  0.0635 -0.2282
  105OSM   H11F10772   4.345   1.711   9.188  0.2322  0.8450  0.7493
  105OSM   H11G10773   4.482   1.635   9.108  2.3038 -0.9165  2.0159
  105OSM   C12F10774   4.460   1.844   9.075 -0.0763  0.7367 -0.3165
  105OSM   H12F10775   4.562   1.842   9.031  0.1093 -0.1161  0.1415
  105OSM   H12G10776   4.451   1.948   9.113  0.4094  0.2330  1.2494
  105OSM   C13F10777   4.357   1.838   8.954 -0.0711 -0.6837  0.3150
  105OSM   H13F10778   4.263   1.810   9.006  0.1256  0.0477  1.0921
  105OSM   H13G10779   4.384   1.750   8.893  3.1054  0.4266 -0.0985
  105OSM   C14F10780   4.341   1.974   8.885 -0.0578 -0.3743  0.4996
  105OSM   H14F10781   4.433   2.021   8.846 -0.1730 -0.4782  0.1007
  105OSM   H14G10782   4.308   2.039   8.969  0.6599 -1.4643  1.6647
  105OSM   C15F10783   4.255   1.963   8.755  0.8591 -0.2581 -0.2560
  105OSM   H15F10784   4.173   1.890   8.773  1.0255 -0.8231 -1.6690
  105OSM   H15G10785   4.321   1.922   8.675  0.9776  0.6446 -0.6325
  105OSM   C16F10786   4.234   2.106   8.705  1.4310  0.3266  0.1011
  105OSM   H16F10787   4.217   2.111   8.596  0.4715  0.4639  0.2443
  105OSM   H16G10788   4.328   2.164   8.715  1.1699  0.9411 -0.8717
  105OSM   C17F10789   4.119   2.182   8.774  0.0607 -0.1563  0.2737
  105OSM   H17F10790   4.146   2.232   8.870  0.5010 -0.8809  0.5317
  105OSM   H17G10791   4.030   2.116   8.782 -0.8952  1.0994  0.3521
  105OSM   C18F10792   4.075   2.287   8.675 -0.4505  0.6362  0.0549
  105OSM   H18F10793   4.054   2.242   8.575 -0.5035  1.5560 -0.3577
  105OSM   H18G10794   4.146   2.372   8.661 -0.3962  0.4545 -0.8825
  105OSM   H18H10795   3.986   2.342   8.712 -2.6897 -0.9126 -2.6462
  106OSM      N10796   4.156   6.595  10.570  0.8417  0.0782 -0.2407
  106OSM    C1510797   4.060   6.631  10.684 -0.2161 -0.5079  0.1825
  106OSM   H15A10798   4.052   6.738  10.699  0.5065 -0.3050 -0.7918
  106OSM   H15B10799   4.100   6.591  10.776  2.2679  0.1216 -0.5415
  106OSM   H15C10800   3.960   6.597  10.660 -0.0531 -1.1382  0.3639
  106OSM    C1410801   4.093   6.660  10.448 -0.0353  0.1169 -0.0938
  106OSM   H14A10802   4.125   6.763  10.450 -0.1959  0.3209 -3.2824
  106OSM   H14B10803   3.986   6.656  10.444 -0.1044  1.8771 -0.9481
  106OSM   H14C10804   4.126   6.624  10.351  2.2207 -0.9875  0.9949
  106OSM    C1310805   4.289   6.643  10.592 -0.2857  0.5075 -0.5842
  106OSM   H13A10806   4.340   6.602  10.677  1.7370  1.8901 -1.0613
  106OSM   H13B10807   4.291   6.748  10.616  1.1761  0.2126  0.7010
  106OSM   H13C10808   4.353   6.623  10.508 -1.1801  1.5715 -1.5615
  106OSM    C1210809   4.144   6.444  10.542 -0.1361 -0.1710  0.0137
  106OSM   H12A10810   4.224   6.422  10.472 -1.2529 -0.9626 -1.0656
  106OSM   H12B10811   4.052   6.420  10.491  0.5805 -1.1690 -0.8534
  106OSM    C1110812   4.162   6.335  10.658  0.4923  1.1885 -0.2446
  106OSM   H11A10813   4.260   6.347  10.710  1.0455  0.1244 -0.9906
  106OSM   H11B10814   4.177   6.237  10.606 -0.8970 -0.2492  1.8939
  106OSM      P10815   3.915   6.261  10.729 -0.0407  0.1559 -0.1891
  106OSM    O1310816   3.923   6.123  10.788 -0.2710  0.5788 -0.1716
  106OSM    O1410817   3.812   6.353  10.780 -0.2936 -0.0587 -0.2903
  106OSM    O1110818   3.917   6.258  10.569 -0.5663  0.2379  0.0989
  106OSM    O1210819   4.052   6.332  10.750  0.1268 -0.2221 -0.2361
  106OSM    C1S10820   3.936   6.130  10.506  0.2160 -0.1011 -0.0165
  106OSM    H1S10821   3.871   6.051  10.548 -0.2539 -1.7850 -3.5686
  106OSM    H1T10822   4.039   6.093  10.490 -0.8319 -4.0132  1.2509
  106OSM     NF10823   3.903   5.997  10.299 -0.1933 -1.5195 -0.6419
  106OSM    HNF10824   3.997   5.978  10.270  1.1283  3.3858 -0.4710
  106OSM    C2S10825   3.879   6.132  10.359 -0.2431 -0.2503  0.1600
  106OSM    H2S10826   3.769   6.148  10.370 -0.0016  1.3327  0.5735
  106OSM    C3S10827   3.933   6.253  10.273 -0.0048  0.3349  0.1032
  106OSM    H3S10828   4.041   6.236  10.259  0.2794  0.3945  1.9809
  106OSM     O310829   3.924   6.381  10.334  0.3278  0.2535  0.0885
  106OSM    HO310830   3.906   6.355  10.424  0.7901  1.2043  0.4750
  106OSM    C4S10831   3.861   6.248  10.144 -0.4936 -0.2158  0.5749
  106OSM    H4S10832   3.932   6.214  10.067  1.1842 -0.0081  1.9832
  106OSM    C5S10833   3.735   6.277  10.105 -0.2067  0.2930  0.1797
  106OSM    H5S10834   3.667   6.311  10.184 -1.0006 -2.3970  0.7643
  106OSM    C6S10835   3.686   6.272   9.962  0.8423  0.0606  0.0186
  106OSM    H6S10836   3.660   6.376   9.933 -0.8414 -0.2448  0.3343
  106OSM    H6T10837   3.592   6.212   9.960  1.0968 -0.3483 -1.8753
  106OSM    C7S10838   3.782   6.229   9.848  0.3321  0.2573 -0.0591
  106OSM    H7S10839   3.808   6.122   9.864 -2.3709 -0.5668 -0.7828
  106OSM    H7T10840   3.875   6.289   9.843  1.3698 -1.3208 -0.7261
  106OSM    C8S10841   3.705   6.225   9.714  0.1733  0.4753  0.2992
  106OSM    H8S10842   3.648   6.316   9.684 -3.4349 -0.2428  3.9421
  106OSM    H8T10843   3.638   6.136   9.717 -2.1892  2.0437 -1.5357
  106OSM    C9S10844   3.811   6.188   9.602 -0.4479  0.4593 -0.1942
  106OSM    H9S10845   3.872   6.096   9.619 -4.0017 -2.2312 -0.8030
  106OSM    H9T10846   3.874   6.277   9.579 -1.5118  0.4116 -4.1582
  106OSM   C10S10847   3.733   6.154   9.470 -0.9138  0.0080  0.3074
  106OSM   H10S10848   3.709   6.258   9.438 -0.6391 -0.0023  0.0676
  106OSM   H10T10849   3.645   6.088   9.489 -2.0286  1.3176 -0.0853
  106OSM   C11S10850   3.828   6.107   9.363  0.4559 -0.4188 -0.4819
  106OSM   H11S10851   3.867   6.007   9.393  1.7572  0.3728  0.6052
  106OSM   H11T10852   3.919   6.171   9.364  0.3600 -0.1192 -3.1701
  106OSM   C12S10853   3.764   6.113   9.223 -1.0808 -0.1693  0.2437
  106OSM   H12S10854   3.709   6.207   9.205 -0.7697 -0.0244  0.0437
  106OSM   H12T10855   3.694   6.027   9.234 -0.1740 -1.1730 -1.3769
  106OSM   C13S10856   3.860   6.070   9.111  0.8125 -0.0733  0.5205
  106OSM   H13S10857   3.797   6.021   9.033  0.8925  1.2328 -0.4122
  106OSM   H13T10858   3.926   5.989   9.147  0.2310 -0.6158  0.3889
  106OSM   C14S10859   3.965   6.172   9.054 -0.5644  0.6145  0.5959
  106OSM   H14S10860   4.018   6.214   9.142  1.3338 -0.6724  0.1207
  106OSM   H14T10861   3.907   6.261   9.022  1.0236  2.0029  1.4238
  106OSM   C15S10862   4.052   6.110   8.946  0.4776  0.0362 -0.3683
  106OSM   H15S10863   3.984   6.058   8.875  1.2748 -2.7500  0.7780
  106OSM   H15T10864   4.108   6.030   8.999 -1.5487 -0.5152  1.0338
  106OSM   C16S10865   4.138   6.207   8.873  0.0319  0.2217  0.0169
  106OSM   H16S10866   4.204   6.266   8.940  1.0963  0.4708 -1.2166
  106OSM   H16T10867   4.073   6.272   8.811  1.0521  1.3027  0.0729
  106OSM   C17S10868   4.232   6.124   8.781  0.0554 -0.1578 -0.2885
  106OSM   H17S10869   4.160   6.057   8.729 -1.4366  0.2911  1.1120
  106OSM   H17T10870   4.304   6.071   8.847  1.4606  1.7998 -0.1572
  106OSM   C18S10871   4.298   6.196   8.658 -0.2675 -0.4890  0.4945
  106OSM   H18S10872   4.219   6.236   8.592 -0.7858 -1.4881  0.4953
  106OSM   H18T10873   4.358   6.128   8.594  1.0103 -0.1360  1.2693
  106OSM   H18U10874   4.360   6.282   8.692 -2.4061  0.8634  1.1345
  106OSM    C1F10875   3.817   5.899  10.324  0.2714 -0.1316 -0.7808
  106OSM     OF10876   3.710   5.923  10.381  0.0397 -0.0562 -0.1530
  106OSM    C2F10877   3.856   5.756  10.277 -0.1228  0.6005  0.0019
  106OSM    H2F10878   3.879   5.695  10.367 -0.1529 -0.7130 -0.8617
  106OSM    H2G10879   3.948   5.774  10.216 -1.6350  0.0376 -2.5805
  106OSM    C3F10880   3.755   5.692  10.177 -0.2504 -0.0193  0.3502
  106OSM    H3F10881   3.656   5.667  10.221 -0.2246 -1.4957 -0.3627
  106OSM    H3G10882   3.810   5.602  10.143 -2.1879 -1.2776  0.3705
  106OSM    C4F10883   3.737   5.789  10.061 -0.2335 -0.1547 -0.5815
  106OSM    H4F10884   3.836   5.830  10.032 -1.0018  1.9213 -0.4333
  106OSM    H4G10885   3.677   5.876  10.096  0.9930  0.1848  0.7584
  106OSM    C5F10886   3.689   5.722   9.934  0.7943 -0.1157  0.0017
  106OSM    H5F10887   3.589   5.681   9.957  1.0945 -0.3534  0.9029
  106OSM    H5G10888   3.766   5.654   9.891  1.2928  0.9666 -0.8624
  106OSM    C6F10889   3.668   5.828   9.828 -0.7322 -0.4937  0.9984
  106OSM    H6F10890   3.764   5.877   9.802  0.2746 -1.7687  2.2007
  106OSM    H6G10891   3.595   5.907   9.859 -1.2075 -0.5736  0.1181
  106OSM    C7F10892   3.598   5.767   9.702  0.2547 -0.1482  0.1969
  106OSM    H7F10893   3.581   5.851   9.631 -0.3843 -1.9001 -1.8219
  106OSM    H7G10894   3.499   5.730   9.734  0.2478  0.0072  0.3584
  106OSM    C8F10895   3.673   5.655   9.626 -0.2021  0.6154  0.0398
  106OSM    H8F10896   3.600   5.601   9.562  1.3492 -0.8255 -0.6091
  106OSM    H8G10897   3.704   5.583   9.705  2.2939 -0.4861 -1.8251
  106OSM    C9F10898   3.795   5.710   9.554 -1.0050 -1.2644 -0.2423
  106OSM    H9F10899   3.887   5.731   9.611  0.2122 -1.0821 -2.1751
  106OSM   C10F10900   3.809   5.717   9.420  0.1680  0.1063 -0.8875
  106OSM   H10F10901   3.905   5.758   9.384  0.3047  0.1844 -0.4419
  106OSM   C11F10902   3.708   5.690   9.310 -0.4858 -0.7108 -0.3136
  106OSM   H11F10903   3.623   5.762   9.315 -0.2769 -0.4505 -0.4968
  106OSM   H11G10904   3.670   5.590   9.341 -1.4271  0.0242  1.0434
  106OSM   C12F10905   3.755   5.685   9.169 -0.3805  0.1583 -0.9034
  106OSM   H12F10906   3.843   5.618   9.161 -0.2607  0.3690 -1.3938
  106OSM   H12G10907   3.786   5.789   9.142  2.3058  0.4023  2.4355
  106OSM   C13F10908   3.657   5.637   9.072  0.8665 -0.1447  0.7379
  106OSM   H13F10909   3.567   5.701   9.062  1.1731  0.3229  0.9168
  106OSM   H13G10910   3.621   5.534   9.092  0.4775  0.0556  1.0688
  106OSM   C14F10911   3.722   5.620   8.930 -0.6399 -0.2222  0.4037
  106OSM   H14F10912   3.693   5.519   8.895 -0.6029 -0.5261  1.2280
  106OSM   H14G10913   3.831   5.637   8.924 -0.8000  1.3058  1.2555
  106OSM   C15F10914   3.676   5.737   8.834  0.7247  0.3319  0.0335
  106OSM   H15F10915   3.721   5.834   8.867  1.2004 -0.3133  1.3562
  106OSM   H15G10916   3.566   5.748   8.846  0.5301 -0.8386 -0.5679
  106OSM   C16F10917   3.698   5.714   8.688 -0.5906 -0.1621  0.3612
  106OSM   H16F10918   3.806   5.696   8.676 -1.0116 -3.2800  0.4794
  106OSM   H16G10919   3.666   5.800   8.625 -3.2765 -1.8541 -0.7874
  106OSM   C17F10920   3.628   5.599   8.609 -0.1098  0.2302 -0.5632
  106OSM   H17F10921   3.517   5.608   8.601 -0.1086  0.2803 -0.5280
  106OSM   H17G10922   3.631   5.508   8.672 -3.9121  1.2435  1.3904
  106OSM   C18F10923   3.689   5.585   8.470 -0.0529 -0.2482 -0.3184
  106OSM   H18F10924   3.656   5.496   8.413  1.2915  0.7111 -2.7325
  106OSM   H18G10925   3.798   5.570   8.482 -0.4917 -2.2795  2.0494
  106OSM   H18H10926   3.669   5.675   8.408 -1.8495  0.6575  1.4779
  107OSM      N10927   4.687   4.837  11.242 -0.6499 -0.6510  0.8464
  107OSM    C1510928   4.561   4.912  11.223  0.2402 -0.5550  0.4564
  107OSM   H15A10929   4.505   4.941  11.311 -0.7439 -0.0496 -0.3035
  107OSM   H15B10930   4.494   4.865  11.152  0.4906 -0.6539  0.2827
  107OSM   H15C10931   4.586   5.002  11.169 -2.6006 -1.1044 -2.0497
  107OSM    C1410932   4.793   4.928  11.296  0.1557  0.3432 -0.1039
  107OSM   H14A10933   4.819   5.009  11.230  0.0568 -1.3692 -2.3327
  107OSM   H14B10934   4.881   4.869  11.316 -0.0008  0.1901  0.1310
  107OSM   H14C10935   4.772   4.969  11.394  0.6850 -1.1668  0.6800
  107OSM    C1310936   4.676   4.710  11.316  0.3803 -0.0071 -0.4238
  107OSM   H13A10937   4.620   4.638  11.258 -1.9285  1.1418  0.2214
  107OSM   H13B10938   4.613   4.708  11.404 -0.7005  0.1254 -1.1720
  107OSM   H13C10939   4.777   4.677  11.331  0.3867  0.2469  0.1146
  107OSM    C1210940   4.726   4.800  11.101 -0.7594  0.0395  0.2782
  107OSM   H12A10941   4.637   4.754  11.060 -1.4633  0.6239  1.1096
  107OSM   H12B10942   4.805   4.727  11.112  1.1855  1.7147 -1.5929
  107OSM    C1110943   4.774   4.910  10.997 -0.5733  0.0851 -1.1367
  107OSM   H11A10944   4.691   4.982  10.985  0.5905  1.8415  0.6369
  107OSM   H11B10945   4.781   4.858  10.899  0.0751 -1.6698 -0.2035
  107OSM      P10946   5.031   4.894  11.015  0.3406 -0.1107 -0.0210
  107OSM    O1310947   5.137   5.000  10.997  0.0824  0.0376  0.2517
  107OSM    O1410948   5.058   4.781  11.105 -0.0455  0.0109 -0.4057
  107OSM    O1110949   5.012   4.827  10.876  0.4232 -0.1261 -0.3363
  107OSM    O1210950   4.895   4.974  11.041 -0.0510  0.3042  0.3518
  107OSM    C1S10951   5.012   4.907  10.761 -0.6605 -0.2614  0.0876
  107OSM    H1S10952   5.100   4.974  10.753 -1.5666  0.9022 -0.4738
  107OSM    H1T10953   4.917   4.965  10.756 -0.1356  0.5720 -0.3957
  107OSM     NF10954   5.002   4.920  10.515  0.0953 -0.3085 -0.7966
  107OSM    HNF10955   4.913   4.927  10.472 -0.2822 -0.5963 -0.0746
  107OSM    C2S10956   5.015   4.832  10.627 -0.5860 -1.0624 -0.9555
  107OSM    H2S10957   5.111   4.776  10.622 -0.9351 -1.8876  0.9243
  107OSM    C3S10958   4.903   4.714  10.634 -0.3185 -0.1134 -0.1552
  107OSM    H3S10959   4.813   4.769  10.671  0.1884  0.4694  0.2387
  107OSM     O310960   4.918   4.610  10.731  0.2203  0.2728 -0.3388
  107OSM    HO310961   4.992   4.638  10.785 -0.8215  1.5643  0.4950
  107OSM    C4S10962   4.893   4.645  10.503  0.2947 -0.1143 -0.2601
  107OSM    H4S10963   4.854   4.709  10.422  0.7654  1.4100  0.6754
  107OSM    C5S10964   4.937   4.525  10.457 -0.2272 -0.1083  0.4764
  107OSM    H5S10965   4.995   4.459  10.524  2.4052  2.1936  0.6241
  107OSM    C6S10966   4.917   4.473  10.317 -0.0860 -0.7496 -0.1246
  107OSM    H6S10967   4.900   4.364  10.320 -1.3020 -0.5552  1.0192
  107OSM    H6T10968   5.010   4.488  10.260 -0.3136  1.3660 -0.0486
  107OSM    C7S10969   4.819   4.549  10.228 -0.1970  0.2149  0.3892
  107OSM    H7S10970   4.866   4.646  10.204  1.9150 -0.5795  1.0529
  107OSM    H7T10971   4.717   4.563  10.271 -1.4602  0.4757 -2.4728
  107OSM    C8S10972   4.797   4.473  10.095  0.6667  0.0809 -0.0856
  107OSM    H8S10973   4.751   4.379  10.131 -1.0767  1.9358  2.9894
  107OSM    H8T10974   4.899   4.452  10.055  1.4544  0.5541  1.5473
  107OSM    C9S10975   4.710   4.549   9.994 -0.0125  0.6559  0.4375
  107OSM    H9S10976   4.770   4.636   9.959  0.3177 -0.2699 -1.4696
  107OSM    H9T10977   4.621   4.597  10.039 -0.2563  0.3000  0.3363
  107OSM   C10S10978   4.665   4.468   9.868 -0.1421 -0.6802  1.0449
  107OSM   H10S10979   4.621   4.371   9.900  1.2729 -1.4879  0.5947
  107OSM   H10T10980   4.755   4.443   9.809  0.8074  0.9076  1.7601
  107OSM   C11S10981   4.556   4.541   9.789 -0.0470 -0.2931  0.1076
  107OSM   H11S10982   4.604   4.632   9.748  0.9842 -0.0828  1.6996
  107OSM   H11T10983   4.474   4.567   9.859  0.6401  0.6391  0.5871
  107OSM   C12S10984   4.514   4.447   9.678 -0.1876 -0.3032  0.1372
  107OSM   H12S10985   4.476   4.354   9.725 -1.6534  0.1320 -0.1327
  107OSM   H12T10986   4.585   4.423   9.597  1.5274 -2.2133  2.0850
  107OSM   C13S10987   4.386   4.506   9.612  0.0295 -0.1189 -0.3017
  107OSM   H13S10988   4.394   4.616   9.596 -0.7573  0.0659  0.5287
  107OSM   H13T10989   4.301   4.499   9.683 -1.0401 -1.1105 -1.6301
  107OSM   C14S10990   4.332   4.448   9.482  0.0178 -0.4869  0.8535
  107OSM   H14S10991   4.224   4.473   9.482 -0.3970 -1.6762 -3.0886
  107OSM   H14T10992   4.337   4.337   9.479  0.6812 -0.4792  1.3529
  107OSM   C15S10993   4.402   4.504   9.357  0.7546 -0.2322  0.2161
  107OSM   H15S10994   4.511   4.506   9.378  0.8188  1.2333 -0.2042
  107OSM   H15T10995   4.372   4.609   9.335 -0.6109 -0.4687  0.8552
  107OSM   C16S10996   4.370   4.423   9.230 -0.1780 -0.6014 -0.3969
  107OSM   H16S10997   4.285   4.353   9.245 -2.0193  1.3235 -1.3565
  107OSM   H16T10998   4.463   4.366   9.208  0.0696 -0.7146  0.8834
  107OSM   C17S10999   4.342   4.511   9.104  0.5464 -0.4477 -0.0625
  107OSM   H17S11000   4.390   4.611   9.117 -1.3178  0.4822  0.0199
  107OSM   H17T11001   4.233   4.529   9.107  0.8847  2.0426 -0.2492
  107OSM   C18S11002   4.392   4.449   8.982 -0.5870  0.7116 -0.6341
  107OSM   H18S11003   4.360   4.508   8.893 -1.7268  0.9322 -0.0978
  107OSM   H18T11004   4.357   4.344   8.978 -1.4166  0.9217  0.6632
  107OSM   H18U11005   4.503   4.444   8.988 -0.6326 -1.6264 -0.6249
  107OSM    C1F11006   5.103   5.000  10.479  0.2851 -0.4480  0.2181
  107OSM     OF11007   5.203   5.020  10.545 -0.0524 -0.5581 -0.4852
  107OSM    C2F11008   5.078   5.063  10.346 -0.2796  0.2021 -0.4408
  107OSM    H2F11009   5.036   5.165  10.360  1.1735  0.5442  2.0314
  107OSM    H2G11010   5.008   5.003  10.283  0.5650  0.1733 -1.3858
  107OSM    C3F11011   5.209   5.090  10.267  0.1975  0.0358  0.5189
  107OSM    H3F11012   5.269   4.997  10.263 -1.2379 -1.0327  2.1677
  107OSM    H3G11013   5.271   5.166  10.318  2.0730 -1.2568  0.2698
  107OSM    C4F11014   5.175   5.144  10.122 -1.3120 -0.7155 -0.2540
  107OSM    H4F11015   5.127   5.244  10.123 -2.4710 -1.2158 -1.9374
  107OSM    H4G11016   5.098   5.088  10.065 -2.0289  0.1243 -0.1280
  107OSM    C5F11017   5.294   5.145  10.026  0.0490 -0.1901  0.0350
  107OSM    H5F11018   5.338   5.043  10.029 -1.7650 -1.1024 -1.9355
  107OSM    H5G11019   5.372   5.215  10.061 -1.6487  3.1187 -2.2696
  107OSM    C6F11020   5.257   5.190   9.888 -0.5114 -0.0679 -0.1381
  107OSM    H6F11021   5.225   5.297   9.884 -0.1529  0.0490  0.0907
  107OSM    H6G11022   5.169   5.128   9.863  0.8711 -2.8477  1.4389
  107OSM    C7F11023   5.351   5.153   9.768  0.2632  0.0458  0.0216
  107OSM    H7F11024   5.372   5.045   9.755 -0.3470  0.1077 -1.6809
  107OSM    H7G11025   5.444   5.208   9.793 -2.1391  4.1806  0.9457
  107OSM    C8F11026   5.307   5.214   9.641  0.2630  0.0557 -0.8104
  107OSM    H8F11027   5.399   5.234   9.581 -0.0108  1.1291 -0.9024
  107OSM    H8G11028   5.272   5.318   9.662  3.3442  0.7354  1.6106
  107OSM    C9F11029   5.201   5.126   9.578  0.1700 -0.0313 -0.5052
  107OSM    H9F11030   5.233   5.027   9.542 -0.2358 -0.9417  1.4870
  107OSM   C10F11031   5.078   5.160   9.558  0.7330  0.3902 -1.1513
  107OSM   H10F11032   5.014   5.092   9.499  0.3958 -1.0220  0.7583
  107OSM   C11F11033   5.013   5.295   9.589  0.2416 -0.1443 -0.4339
  107OSM   H11F11034   5.051   5.335   9.685  0.8210 -1.0167 -0.2848
  107OSM   H11G11035   4.907   5.268   9.607  0.8283 -2.3164  0.1109
  107OSM   C12F11036   5.011   5.405   9.478 -0.5571  0.0020 -0.3461
  107OSM   H12F11037   5.107   5.458   9.495 -1.6090  1.1233  3.0945
  107OSM   H12G11038   4.928   5.475   9.502 -0.7270 -0.2970 -0.0374
  107OSM   C13F11039   5.005   5.351   9.340 -0.7062  0.3417 -0.2717
  107OSM   H13F11040   4.923   5.276   9.338  0.4104 -0.9298 -1.4407
  107OSM   H13G11041   5.090   5.284   9.315  0.1036  0.4113  2.0505
  107OSM   C14F11042   4.984   5.466   9.238  0.1820  0.3929  0.0290
  107OSM   H14F11043   4.879   5.496   9.257  0.2426  1.7252 -1.4777
  107OSM   H14G11044   4.983   5.432   9.132 -1.5387 -1.9489  0.7284
  107OSM   C15F11045   5.090   5.577   9.249 -0.1030 -0.0715 -0.0103
  107OSM   H15F11046   5.194   5.540   9.264 -0.6864 -0.4653  4.2904
  107OSM   H15G11047   5.062   5.627   9.344  1.8613  2.1215 -0.4963
  107OSM   C16F11048   5.074   5.686   9.138 -0.3768 -0.0521  0.4878
  107OSM   H16F11049   5.123   5.775   9.183 -0.3438 -1.3407  3.2339
  107OSM   H16G11050   4.968   5.707   9.114 -0.5195  0.3644  1.4458
  107OSM   C17F11051   5.143   5.664   9.004  0.1653 -0.3339  0.3945
  107OSM   H17F11052   5.113   5.567   8.960  0.4508 -0.0315 -0.5012
  107OSM   H17G11053   5.253   5.660   9.019  0.0510 -0.2886  1.2551
  107OSM   C18F11054   5.095   5.766   8.904 -0.4843 -0.0394  0.1330
  107OSM   H18F11055   4.995   5.745   8.862  0.3235  1.5607 -2.8446
  107OSM   H18G11056   5.165   5.770   8.818  1.5255 -0.0005  1.6832
  107OSM   H18H11057   5.090   5.868   8.948 -1.2856 -0.8239  1.9493
  108OSM      N11058   3.731   2.819  11.429  0.0984 -0.2284 -0.1469
  108OSM    C1511059   3.801   2.797  11.561  0.2744 -0.5487  0.5200
  108OSM   H15A11060   3.860   2.707  11.570  1.5529  0.2411  0.2691
  108OSM   H15B11061   3.729   2.806  11.641  1.0192 -0.9953  1.2615
  108OSM   H15C11062   3.868   2.879  11.582  0.6561 -0.4972 -0.8134
  108OSM    C1411063   3.641   2.941  11.429  0.3080 -0.2226 -0.3332
  108OSM   H14A11064   3.694   3.034  11.444 -0.9626  0.3516  0.8455
  108OSM   H14B11065   3.575   2.934  11.514  0.3170 -0.6600 -0.3625
  108OSM   H14C11066   3.584   2.952  11.339  1.0170  0.0624 -0.7564
  108OSM    C1311067   3.832   2.817  11.322  0.5877 -0.3744  0.0017
  108OSM   H13A11068   3.891   2.727  11.317 -0.3843 -1.1025  0.9898
  108OSM   H13B11069   3.904   2.898  11.325  1.2372 -0.9108 -0.7679
  108OSM   H13C11070   3.784   2.828  11.226  3.6823 -1.3270 -1.7896
  108OSM    C1211071   3.636   2.706  11.400  0.2444 -0.1673  0.0916
  108OSM   H12A11072   3.547   2.725  11.458  0.5132  0.3483  0.3358
  108OSM   H12B11073   3.671   2.615  11.447 -1.4820 -1.7610 -1.5394
  108OSM    C1111074   3.592   2.671  11.255  0.3340 -0.0664  0.4332
  108OSM   H11A11075   3.539   2.574  11.267 -1.9084  0.7835 -1.6678
  108OSM   H11B11076   3.675   2.656  11.183 -1.5940 -0.6418 -1.8041
  108OSM      P11077   3.529   2.865  11.077 -0.0899  0.1394 -0.0610
  108OSM    O1311078   3.395   2.934  11.043 -0.2400  0.1286 -0.2303
  108OSM    O1411079   3.647   2.952  11.097  0.5283 -0.0605  0.0723
  108OSM    O1111080   3.559   2.764  10.967 -0.1442 -0.1406  0.0042
  108OSM    O1211081   3.507   2.784  11.213  0.0695 -0.4267  0.6814
  108OSM    C1S11082   3.483   2.769  10.848 -0.3018  0.1695  1.0144
  108OSM    H1S11083   3.457   2.874  10.823 -1.4916  0.2601  2.5101
  108OSM    H1T11084   3.394   2.702  10.851 -0.3672  0.1402 -0.5297
  108OSM     NF11085   3.504   2.760  10.600 -0.0742 -0.8336 -0.5529
  108OSM    HNF11086   3.427   2.702  10.574  0.6161 -2.5840  1.0901
  108OSM    C2S11087   3.564   2.711  10.721  0.0950  0.6560 -0.6597
  108OSM    H2S11088   3.668   2.749  10.733  0.9326 -1.1473 -1.8476
  108OSM    C3S11089   3.572   2.556  10.730  0.4947 -0.2146  0.0869
  108OSM    H3S11090   3.467   2.522  10.741  0.3764 -0.5110 -1.6891
  108OSM     O311091   3.639   2.520  10.852  0.3280  0.4562 -0.1841
  108OSM    HO311092   3.643   2.604  10.897  2.6606  0.1601  0.2531
  108OSM    C4S11093   3.647   2.507  10.608  0.7355  0.5496  0.0307
  108OSM    H4S11094   3.751   2.542  10.596  1.6458 -0.9912  2.6262
  108OSM    C5S11095   3.606   2.406  10.535  0.5461  0.0339  0.5492
  108OSM    H5S11096   3.513   2.355  10.565  0.8912 -0.1940  1.2574
  108OSM    C6S11097   3.676   2.364  10.408 -0.3560  0.0657  0.4442
  108OSM    H6S11098   3.641   2.262  10.385  0.9644  0.0495 -1.8362
  108OSM    H6T11099   3.786   2.358  10.421 -0.4732  0.0605  1.4813
  108OSM    C7S11100   3.650   2.451  10.284 -0.2303  0.0651 -0.6058
  108OSM    H7S11101   3.707   2.547  10.290 -2.7685  1.9479 -3.3267
  108OSM    H7T11102   3.545   2.486  10.277  0.0286  1.4317  1.4259
  108OSM    C8S11103   3.686   2.376  10.154  0.1753 -0.1150 -0.1085
  108OSM    H8S11104   3.636   2.277  10.163  0.2458 -0.0673  0.9522
  108OSM    H8T11105   3.795   2.370  10.131 -0.1006 -0.3042 -1.4368
  108OSM    C9S11106   3.620   2.448  10.038  0.5663 -0.6259  0.8614
  108OSM    H9S11107   3.637   2.558  10.038 -0.7297 -0.3855 -1.0665
  108OSM    H9T11108   3.511   2.429  10.045  0.1199  0.8021 -1.3218
  108OSM   C10S11109   3.662   2.399   9.898  0.5639  0.3301  0.5571
  108OSM   H10S11110   3.645   2.290   9.895  1.7160  0.1607 -1.5413
  108OSM   H10T11111   3.771   2.419   9.890  0.4280  1.1359  0.6039
  108OSM   C11S11112   3.574   2.464   9.797  0.2607  0.7401  0.3603
  108OSM   H11S11113   3.600   2.569   9.770  1.7205  0.1014 -0.9291
  108OSM   H11T11114   3.469   2.459   9.830 -0.2374 -2.9058 -1.2001
  108OSM   C12S11115   3.587   2.391   9.664 -0.0587  0.1600 -0.2413
  108OSM   H12S11116   3.513   2.413   9.584  0.8193 -0.1788 -1.1764
  108OSM   H12T11117   3.580   2.283   9.690  1.4178  0.0086 -0.3520
  108OSM   C13S11118   3.726   2.416   9.594 -0.0998  0.1478  0.4702
  108OSM   H13S11119   3.818   2.387   9.648  1.0515 -0.2030 -1.5590
  108OSM   H13T11120   3.733   2.525   9.572 -0.9275 -0.0486 -0.8940
  108OSM   C14S11121   3.732   2.341   9.463 -0.0100  0.4397  0.2229
  108OSM   H14S11122   3.689   2.240   9.485 -1.9027  1.1964  0.1943
  108OSM   H14T11123   3.840   2.336   9.438  0.1918  1.0841  0.9402
  108OSM   C15S11124   3.672   2.405   9.339 -0.2648  0.3825  0.4672
  108OSM   H15S11125   3.680   2.514   9.358 -0.2789  0.2808  1.0624
  108OSM   H15T11126   3.562   2.389   9.342 -0.3803  1.0217 -0.1302
  108OSM   C16S11127   3.744   2.356   9.208 -0.2774 -0.2426 -0.4337
  108OSM   H16S11128   3.739   2.245   9.212  2.7613 -0.4074  2.2754
  108OSM   H16T11129   3.848   2.395   9.208 -0.3424 -0.0447 -1.2899
  108OSM   C17S11130   3.675   2.414   9.079 -0.0037  0.2169 -0.5014
  108OSM   H17S11131   3.571   2.377   9.070  0.1104 -0.0557 -0.7482
  108OSM   H17T11132   3.716   2.350   8.998  1.3711 -0.5270  0.7353
  108OSM   C18S11133   3.681   2.563   9.081  0.1682  0.1640  0.3932
  108OSM   H18S11134   3.639   2.599   8.985  1.0389 -0.9110 -0.4236
  108OSM   H18T11135   3.785   2.598   9.096  0.2806 -0.5695  1.4351
  108OSM   H18U11136   3.629   2.599   9.173  0.6313 -3.5410  2.3064
  108OSM    C1F11137   3.526   2.883  10.552  0.2452 -0.3185 -0.0494
  108OSM     OF11138   3.583   2.965  10.625  0.4733 -0.5316  0.0885
  108OSM    C2F11139   3.480   2.909  10.416  0.1434 -0.3106 -0.4577
  108OSM    H2F11140   3.369   2.904  10.405 -0.1051  3.4008 -0.9967
  108OSM    H2G11141   3.523   2.834  10.346  2.4077  0.2514  0.2524
  108OSM    C3F11142   3.517   3.052  10.356 -0.2731 -0.3916  0.2572
  108OSM    H3F11143   3.627   3.065  10.363 -0.4175 -0.1170  2.9471
  108OSM    H3G11144   3.463   3.131  10.411  1.9144  1.6992 -0.4296
  108OSM    C4F11145   3.471   3.071  10.210 -0.4947  0.4723  0.2127
  108OSM    H4F11146   3.366   3.033  10.208 -0.5456  0.2970  2.6197
  108OSM    H4G11147   3.530   3.019  10.132 -0.5172 -0.3166  0.7069
  108OSM    C5F11148   3.476   3.214  10.168 -0.2772 -0.7388  0.2784
  108OSM    H5F11149   3.582   3.247  10.176 -0.2054 -0.7119 -0.7125
  108OSM    H5G11150   3.406   3.268  10.235 -1.7896 -2.1377 -0.1039
  108OSM    C6F11151   3.427   3.237  10.019 -0.1932  0.0148  1.0234
  108OSM    H6F11152   3.468   3.150   9.964 -0.0995  0.8655 -0.2826
  108OSM    H6G11153   3.481   3.328   9.985  0.2235 -0.6059 -0.0216
  108OSM    C7F11154   3.282   3.251  10.020 -0.1949 -0.0633 -0.0102
  108OSM    H7F11155   3.253   3.344  10.073  0.1866  1.0967 -1.7504
  108OSM    H7G11156   3.234   3.173  10.082 -2.7281  1.3075 -0.1174
  108OSM    C8F11157   3.208   3.252   9.877 -0.3160  0.3925 -0.3283
  108OSM    H8F11158   3.099   3.257   9.897 -1.2609 -0.7300 -4.3555
  108OSM    H8G11159   3.233   3.151   9.840  1.6760  0.8290 -0.3418
  108OSM    C9F11160   3.251   3.361   9.787  0.4105 -0.1568 -0.0338
  108OSM    H9F11161   3.239   3.463   9.826  0.4672 -0.2346  0.1875
  108OSM   C10F11162   3.315   3.341   9.667  0.5792 -0.1399  0.3387
  108OSM   H10F11163   3.345   3.431   9.611  1.7546  0.0355  1.2253
  108OSM   C11F11164   3.357   3.213   9.601  0.0634  0.1952 -0.0008
  108OSM   H11F11165   3.325   3.122   9.656 -0.7678  0.9862  0.8667
  108OSM   H11G11166   3.467   3.210   9.589  0.1356  0.8953  0.4521
  108OSM   C12F11167   3.297   3.197   9.462 -0.6310  0.1187  0.2142
  108OSM   H12F11168   3.347   3.277   9.403  2.0135 -0.0695  2.0254
  108OSM   H12G11169   3.187   3.216   9.470 -0.5824  2.5333 -2.9718
  108OSM   C13F11170   3.313   3.055   9.407 -0.0934 -0.6022  0.1343
  108OSM   H13F11171   3.222   2.997   9.434 -2.1783  1.5435 -1.7288
  108OSM   H13G11172   3.409   3.010   9.440  1.1685  0.6648 -1.5932
  108OSM   C14F11173   3.317   3.053   9.247  0.1707  0.1946  0.0220
  108OSM   H14F11174   3.334   2.948   9.218  0.5775  0.1069  0.5661
  108OSM   H14G11175   3.406   3.110   9.212 -0.1520  0.3998 -0.4785
  108OSM   C15F11176   3.188   3.105   9.179  0.5095 -0.2110 -0.6231
  108OSM   H15F11177   3.170   3.209   9.214  0.3332  0.0354 -1.4194
  108OSM   H15G11178   3.092   3.059   9.212 -0.7291  1.5299 -1.6148
  108OSM   C16F11179   3.199   3.096   9.028 -0.2580 -0.0026  0.4060
  108OSM   H16F11180   3.230   2.993   9.001  0.7319  0.5260 -0.6160
  108OSM   H16G11181   3.286   3.159   8.999 -1.0121  0.7789 -0.2243
  108OSM   C17F11182   3.070   3.128   8.958  0.4587  0.2625  0.1153
  108OSM   H17F11183   3.021   3.217   9.002  1.6086  0.2746  1.4682
  108OSM   H17G11184   2.994   3.049   8.977 -0.5397  1.2002  0.0829
  108OSM   C18F11185   3.095   3.144   8.805  0.3725  0.6355  0.1001
  108OSM   H18F11186   3.172   3.217   8.773  0.6506 -0.2519 -1.3042
  108OSM   H18G11187   2.998   3.181   8.765  0.0276 -1.2030 -0.8776
  108OSM   H18H11188   3.113   3.047   8.754 -2.6047  0.6677 -1.2023
  109OSM      N11189   2.824   3.166  10.951  0.4943 -0.1930  0.7215
  109OSM    C1511190   2.941   3.098  10.888  0.1338 -0.0970 -0.3671
  109OSM   H15A11191   2.953   3.136  10.787 -3.6152  2.5956  0.0178
  109OSM   H15B11192   2.918   2.993  10.879 -1.6750  0.2620 -0.2442
  109OSM   H15C11193   3.024   3.126  10.951 -0.0340 -0.8574  0.2091
  109OSM    C1411194   2.818   3.122  11.094  0.4560 -0.4120  0.5420
  109OSM   H14A11195   2.747   3.169  11.161 -1.6865 -1.7282 -0.6848
  109OSM   H14B11196   2.909   3.119  11.152  1.2999 -0.3156 -0.7382
  109OSM   H14C11197   2.797   3.016  11.088 -0.8586 -0.2252  1.2384
  109OSM    C1311198   2.853   3.314  10.944 -0.1139 -0.0556  0.3819
  109OSM   H13A11199   2.956   3.338  10.963  0.1418 -1.9263  1.5470
  109OSM   H13B11200   2.797   3.363  11.023  1.1282 -2.3494  2.8538
  109OSM   H13C11201   2.819   3.341  10.845 -0.4547 -0.3883  0.4061
  109OSM    C1211202   2.692   3.132  10.882  0.4248  0.2960 -0.1294
  109OSM   H12A11203   2.609   3.159  10.945  1.2801  1.3088  0.5948
  109OSM   H12B11204   2.690   3.026  10.862 -1.8907  0.7514 -3.0685
  109OSM    C1111205   2.668   3.187  10.740 -0.3836  0.2235 -0.5272
  109OSM   H11A11206   2.584   3.133  10.691  0.1501  0.1197 -1.3370
  109OSM   H11B11207   2.755   3.176  10.673  1.0167  0.9781  1.1081
  109OSM      P11208   2.498   3.386  10.749  0.3914 -0.2161 -0.3125
  109OSM    O1311209   2.394   3.283  10.772  0.5923  0.1527  0.1308
  109OSM    O1411210   2.503   3.506  10.842 -0.1281  0.1824 -0.1432
  109OSM    O1111211   2.486   3.439  10.600 -0.0245  0.3689 -0.2167
  109OSM    O1211212   2.638   3.329  10.747 -0.4795  0.0610  0.3919
  109OSM    C1S11213   2.604   3.479  10.526  0.1270  0.3913 -0.0638
  109OSM    H1S11214   2.673   3.392  10.529  2.5665  2.1836 -0.6280
  109OSM    H1T11215   2.656   3.566  10.572  2.5147 -0.9973  0.0215
  109OSM     NF11216   2.679   3.511  10.284  0.3067  0.4337 -0.1756
  109OSM    HNF11217   2.696   3.608  10.266  0.6951  0.8512  2.1612
  109OSM    C2S11218   2.563   3.495  10.376 -0.4192  0.6257  0.5883
  109OSM    H2S11219   2.516   3.398  10.349  0.5433  0.6354 -1.2382
  109OSM    C3S11220   2.452   3.602  10.361  0.1509  0.0908 -1.3290
  109OSM    H3S11221   2.495   3.700  10.391  0.9468 -1.0884  1.7859
  109OSM     O311222   2.338   3.579  10.438 -0.4035  0.2365  0.1933
  109OSM    HO311223   2.363   3.497  10.482 -0.2568  0.8900  1.3677
  109OSM    C4S11224   2.388   3.618  10.230  1.3092 -0.7574  0.4989
  109OSM    H4S11225   2.353   3.523  10.187  0.7861 -0.4101  0.1421
  109OSM    C5S11226   2.367   3.734  10.158 -0.6033 -0.1337  0.0335
  109OSM    H5S11227   2.413   3.830  10.186  1.2476 -0.5054 -1.5112
  109OSM    C6S11228   2.301   3.727  10.023 -0.3730 -0.1068  0.2904
  109OSM    H6S11229   2.246   3.822  10.007  0.2676  0.0040 -1.4580
  109OSM    H6T11230   2.229   3.643  10.014 -0.0256 -0.4306  0.5120
  109OSM    C7S11231   2.393   3.714   9.895  0.6258 -0.1467  0.3504
  109OSM    H7S11232   2.461   3.626   9.896  0.3382 -0.3716  0.8617
  109OSM    H7T11233   2.458   3.801   9.915  0.3630  0.1254  0.0217
  109OSM    C8S11234   2.298   3.716   9.775 -0.3811  0.1391 -0.1547
  109OSM    H8S11235   2.262   3.821   9.783  0.0929  0.3421 -0.6519
  109OSM    H8T11236   2.213   3.648   9.800  0.4578 -0.4823  1.1002
  109OSM    C9S11237   2.368   3.681   9.648  1.0100  0.4057 -0.3755
  109OSM    H9S11238   2.384   3.571   9.651  1.1718  0.4312 -0.3066
  109OSM    H9T11239   2.468   3.726   9.636  1.8461 -1.6430 -1.7539
  109OSM   C10S11240   2.281   3.712   9.522 -0.3170  0.2825 -0.6485
  109OSM   H10S11241   2.330   3.677   9.429 -2.5029  0.4671 -1.9572
  109OSM   H10T11242   2.259   3.820   9.516  0.5830  0.6980  2.1366
  109OSM   C11S11243   2.153   3.620   9.529  0.0539  0.2421  0.3414
  109OSM   H11S11244   2.084   3.682   9.590  0.3110  0.7356  0.1382
  109OSM   H11T11245   2.187   3.525   9.576  0.0422 -0.9528 -1.9365
  109OSM   C12S11246   2.081   3.587   9.397  0.0450  0.4526 -0.0729
  109OSM   H12S11247   2.014   3.500   9.413  0.6178  0.1078  0.5124
  109OSM   H12T11248   2.162   3.552   9.329  1.1105 -3.2544  2.7739
  109OSM   C13S11249   2.002   3.706   9.343  0.5803  0.1005  0.2298
  109OSM   H13S11250   2.059   3.801   9.349 -0.3207  0.6863 -0.2092
  109OSM   H13T11251   1.921   3.711   9.419  2.1114 -1.7724  2.1021
  109OSM   C14S11252   1.935   3.682   9.207  0.5873 -0.2216  1.2193
  109OSM   H14S11253   1.844   3.620   9.223  0.3152  0.4700  2.5804
  109OSM   H14T11254   2.004   3.631   9.137 -0.4590  0.4439 -0.3734
  109OSM   C15S11255   1.903   3.816   9.138  0.5495  0.4725 -0.4941
  109OSM   H15S11256   1.996   3.875   9.129  1.3357 -0.9551 -2.4884
  109OSM   H15T11257   1.824   3.881   9.184 -1.4244 -0.9194 -1.7593
  109OSM   C16S11258   1.851   3.805   8.998  0.0549  0.1479  0.0396
  109OSM   H16S11259   1.773   3.727   8.987  1.8271 -2.2185  2.7602
  109OSM   H16T11260   1.937   3.772   8.936  0.4410 -0.8747  1.0822
  109OSM   C17S11261   1.800   3.934   8.939 -0.2193 -0.6251  0.7909
  109OSM   H17S11262   1.788   3.924   8.829  1.9395 -1.7141  0.6098
  109OSM   H17T11263   1.885   4.003   8.953  0.2670 -0.9987 -0.2867
  109OSM   C18S11264   1.671   3.988   8.996 -0.2211  0.3093  0.2215
  109OSM   H18S11265   1.595   3.908   9.012 -1.2054  1.3694  0.9855
  109OSM   H18T11266   1.634   4.064   8.925 -1.9709 -1.3323 -0.7077
  109OSM   H18U11267   1.686   4.023   9.100  1.9658 -3.1110  1.2369
  109OSM    C1F11268   2.765   3.414  10.264 -0.5602  0.1918 -0.3274
  109OSM     OF11269   2.727   3.300  10.278  0.1336 -0.3072  0.2258
  109OSM    C2F11270   2.912   3.450  10.246 -0.1251  0.0551 -0.9104
  109OSM    H2F11271   2.972   3.371  10.297  0.6355  1.4712  0.4992
  109OSM    H2G11272   2.921   3.549  10.295 -1.8650 -0.7989  1.3496
  109OSM    C3F11273   2.951   3.466  10.097 -0.9586 -0.3694  0.0707
  109OSM    H3F11274   2.964   3.364  10.054  2.3362  0.2721 -0.7454
  109OSM    H3G11275   3.050   3.516  10.093 -1.0506 -0.2539 -1.2164
  109OSM    C4F11276   2.850   3.547  10.017 -1.0373 -0.3737  0.1912
  109OSM    H4F11277   2.828   3.640  10.073  0.8429  0.7694 -0.8531
  109OSM    H4G11278   2.755   3.493   9.995  0.1463 -1.7492 -1.9612
  109OSM    C5F11279   2.924   3.584   9.882 -0.2000 -0.6979 -0.1142
  109OSM    H5F11280   3.026   3.540   9.893 -0.0015  0.1220  1.5572
  109OSM    H5G11281   2.938   3.693   9.892 -1.0769 -0.7241  1.7409
  109OSM    C6F11282   2.846   3.533   9.766  0.0526  0.2214 -0.3510
  109OSM    H6F11283   2.737   3.514   9.782  0.1700  0.6313  1.1566
  109OSM    H6G11284   2.890   3.434   9.745  1.5043 -0.4710  4.5601
  109OSM    C7F11285   2.855   3.617   9.636 -0.5693 -0.0101 -0.1273
  109OSM    H7F11286   2.821   3.723   9.637  0.9570  0.5010  0.3402
  109OSM    H7G11287   2.780   3.569   9.569 -2.1623  2.8608 -0.5649
  109OSM    C8F11288   2.992   3.602   9.564  0.0571 -0.1062  0.6612
  109OSM    H8F11289   2.975   3.622   9.456 -3.5922  0.0331  1.1201
  109OSM    H8G11290   3.031   3.498   9.563  3.1534  0.9563  0.3745
  109OSM    C9F11291   3.091   3.702   9.615  0.5330  0.2948 -0.4348
  109OSM    H9F11292   3.106   3.674   9.720  0.8179 -0.9424 -0.7843
  109OSM   C10F11293   3.143   3.806   9.545 -0.3652  0.2566  0.4301
  109OSM   H10F11294   3.212   3.875   9.597  1.6127 -1.0940 -0.2861
  109OSM   C11F11295   3.121   3.840   9.402 -0.0758  0.2352 -0.3437
  109OSM   H11F11296   3.052   3.771   9.350  0.2353  0.1708 -0.6820
  109OSM   H11G11297   3.206   3.822   9.333 -1.7177 -0.2790 -2.3382
  109OSM   C12F11298   3.069   3.977   9.358  0.7237 -0.1671  0.6970
  109OSM   H12F11299   3.135   4.063   9.380 -1.2157  1.6921 -0.4109
  109OSM   H12G11300   2.970   3.975   9.407  1.3356 -1.5291  1.9411
  109OSM   C13F11301   3.038   3.981   9.210  0.5662  1.1884  0.1637
  109OSM   H13F11302   2.970   3.898   9.179  0.9682  0.9851 -0.1843
  109OSM   H13G11303   3.134   3.972   9.156  0.3016 -0.3555 -0.1095
  109OSM   C14F11304   2.962   4.110   9.176  0.6289 -0.4299  0.1849
  109OSM   H14F11305   3.030   4.198   9.167  0.2091 -0.2528 -1.5640
  109OSM   H14G11306   2.893   4.140   9.258  0.7783 -0.9261  0.5038
  109OSM   C15F11307   2.877   4.093   9.052  0.4161  0.6005 -0.1106
  109OSM   H15F11308   2.811   4.008   9.081  1.2024  0.2991  0.8501
  109OSM   H15G11309   2.946   4.056   8.974 -1.8734 -1.6806 -1.1928
  109OSM   C16F11310   2.808   4.220   9.009  0.8074 -0.2449 -0.1811
  109OSM   H16F11311   2.748   4.263   9.092  0.7005 -1.0588  0.1690
  109OSM   H16G11312   2.735   4.186   8.932 -0.8690  0.2759  1.1111
  109OSM   C17F11313   2.907   4.322   8.942 -0.5152  0.0299  0.6245
  109OSM   H17F11314   2.975   4.268   8.873  4.1878  0.8437  4.0375
  109OSM   H17G11315   2.976   4.340   9.027 -2.3189  0.0162  2.1525
  109OSM   C18F11316   2.829   4.448   8.888  0.2837  0.2572 -0.4614
  109OSM   H18F11317   2.760   4.415   8.807  0.4305  2.6753 -1.6497
  109OSM   H18G11318   2.897   4.525   8.848 -1.0167  0.7393 -1.8461
  109OSM   H18H11319   2.764   4.491   8.967 -0.4923 -1.5277 -0.0825
  110OSM      N11320   3.904   1.701  11.183 -0.2955 -0.0798 -0.3073
  110OSM    C1511321   3.808   1.750  11.288  0.3755 -0.2175 -0.2227
  110OSM   H15A11322   3.756   1.837  11.251 -0.6884  0.0241  1.7056
  110OSM   H15B11323   3.862   1.776  11.377  1.7354  0.3033 -1.1581
  110OSM   H15C11324   3.729   1.679  11.310 -2.1914  2.1796 -0.9962
  110OSM    C1411325   4.029   1.785  11.173 -0.2652 -0.0291 -0.5063
  110OSM   H14A11326   4.089   1.767  11.085 -0.8128 -0.5040 -0.7902
  110OSM   H14B11327   4.085   1.775  11.265 -0.1900 -0.1302 -0.5627
  110OSM   H14C11328   4.004   1.890  11.174  1.1830  0.4059 -2.5038
  110OSM    C1311329   3.941   1.562  11.219  0.2927 -0.9548 -0.5011
  110OSM   H13A11330   3.962   1.552  11.324  0.2730 -2.2577 -0.6045
  110OSM   H13B11331   4.015   1.522  11.152  2.0615  3.2534 -1.3891
  110OSM   H13C11332   3.858   1.494  11.209 -1.0052  0.0407  2.4288
  110OSM    C1211333   3.830   1.699  11.049  0.6778 -0.5494 -0.7698
  110OSM   H12A11334   3.775   1.792  11.047 -0.8353 -1.1805  3.0485
  110OSM   H12B11335   3.758   1.620  11.062  0.1636  0.1245  0.7215
  110OSM    C1111336   3.926   1.668  10.930  0.0934 -0.7611 -0.0068
  110OSM   H11A11337   4.011   1.740  10.928 -0.8129  0.4104 -3.8892
  110OSM   H11B11338   3.861   1.686  10.841 -0.7029 -2.8227  0.0992
  110OSM      P11339   3.915   1.422  10.851 -0.0576 -0.4380 -0.0891
  110OSM    O1311340   4.002   1.302  10.860 -0.6188  0.1609 -0.0294
  110OSM    O1411341   3.779   1.401  10.916 -0.1920  0.5755 -0.2139
  110OSM    O1111342   3.901   1.477  10.705  0.1891  0.0505 -0.0108
  110OSM    O1211343   3.980   1.535  10.932  0.2866  0.2508  0.2962
  110OSM    C1S11344   4.008   1.447  10.607 -0.4333  0.0242 -0.0840
  110OSM    H1S11345   4.027   1.338  10.606 -1.7742 -0.3076  2.2629
  110OSM    H1T11346   4.104   1.495  10.634  0.1762 -0.9004 -0.5805
  110OSM     NF11347   4.079   1.442  10.367 -0.2072 -0.4808  0.8328
  110OSM    HNF11348   4.132   1.514  10.322 -2.9559  1.0754 -0.1088
  110OSM    C2S11349   3.966   1.479  10.454 -0.8566 -0.1742 -0.0365
  110OSM    H2S11350   3.880   1.413  10.432  0.2598 -1.4459 -0.7414
  110OSM    C3S11351   3.905   1.621  10.433 -0.2445 -0.0645  0.7068
  110OSM    H3S11352   3.986   1.698  10.441 -1.6624  1.7557 -1.1989
  110OSM     O311353   3.809   1.653  10.534 -0.0748  0.6115  0.2171
  110OSM    HO311354   3.815   1.581  10.598  0.9187  0.1907 -0.3303
  110OSM    C4S11355   3.849   1.634  10.294 -0.3543 -0.0349  0.4107
  110OSM    H4S11356   3.931   1.664  10.227  1.1262 -2.1590  1.1610
  110OSM    C5S11357   3.716   1.621  10.251 -0.6868  0.1883 -0.1886
  110OSM    H5S11358   3.636   1.599  10.323  0.4450  0.7191  1.2772
  110OSM    C6S11359   3.667   1.627  10.111 -0.0205 -0.3934  0.1576
  110OSM    H6S11360   3.617   1.722  10.082 -0.0346 -0.1802  0.8717
  110OSM    H6T11361   3.596   1.544  10.089 -1.5959  0.8218  0.4560
  110OSM    C7S11362   3.790   1.615  10.020 -0.3890 -0.0314  0.3808
  110OSM    H7S11363   3.855   1.528  10.045 -0.6376 -0.5334 -0.6828
  110OSM    H7T11364   3.858   1.703  10.033 -0.3329  0.0925 -0.6855
  110OSM    C8S11365   3.757   1.604   9.868 -0.1402 -1.0243  0.3495
  110OSM    H8S11366   3.699   1.695   9.841  0.5199 -1.0194 -1.1544
  110OSM    H8T11367   3.697   1.512   9.860 -1.1629 -0.2117 -2.0985
  110OSM    C9S11368   3.875   1.577   9.772 -0.3528  0.0569 -0.7448
  110OSM    H9S11369   3.929   1.484   9.799 -0.4892  0.1327 -0.2013
  110OSM    H9T11370   3.951   1.658   9.777 -0.8647  0.5613 -0.9757
  110OSM   C10S11371   3.825   1.578   9.629  0.5799  0.1497  0.2358
  110OSM   H10S11372   3.735   1.641   9.612  0.2272 -0.1147  1.1199
  110OSM   H10T11373   3.792   1.475   9.606 -1.6336  1.0061 -0.6622
  110OSM   C11S11374   3.928   1.617   9.526 -0.5066  0.0520  0.7895
  110OSM   H11S11375   4.025   1.574   9.557  0.2745  0.9848 -0.2794
  110OSM   H11T11376   3.939   1.727   9.523 -0.8179  0.0743  0.3142
  110OSM   C12S11377   3.881   1.582   9.385 -0.0151  0.2516  0.2955
  110OSM   H12S11378   3.794   1.645   9.355  0.5717 -0.6320 -3.9386
  110OSM   H12T11379   3.852   1.476   9.399  1.1646 -0.0874  0.2219
  110OSM   C13S11380   3.990   1.612   9.280 -0.2827  0.2833 -0.6819
  110OSM   H13S11381   4.082   1.551   9.296 -0.8817 -0.4039  0.2651
  110OSM   H13T11382   4.023   1.718   9.282  0.5989  0.0133 -0.4374
  110OSM   C14S11383   3.946   1.593   9.141 -0.3516  0.1621  0.2962
  110OSM   H14S11384   3.867   1.671   9.134 -0.7364 -0.2965 -0.4741
  110OSM   H14T11385   3.887   1.499   9.138 -0.9772  0.5474  0.3115
  110OSM   C15S11386   4.052   1.596   9.027 -0.3620  0.0414 -0.0610
  110OSM   H15S11387   4.146   1.545   9.056  0.9158  2.7315  0.8443
  110OSM   H15T11388   4.087   1.697   8.998  1.8053 -0.7529 -0.3895
  110OSM   C16S11389   3.980   1.537   8.904 -0.2037 -0.2428 -0.2996
  110OSM   H16S11390   3.900   1.604   8.867  0.1147 -0.0948 -0.7229
  110OSM   H16T11391   3.936   1.438   8.931  0.3607  0.2363  2.7649
  110OSM   C17S11392   4.073   1.532   8.779 -0.1323  0.1288  0.6805
  110OSM   H17S11393   4.160   1.465   8.800  0.0700 -0.1602 -0.9915
  110OSM   H17T11394   4.121   1.628   8.754  2.1158 -1.0154  0.3624
  110OSM   C18S11395   4.002   1.471   8.666 -0.0066  1.0492 -0.6062
  110OSM   H18S11396   3.957   1.552   8.605 -1.5593 -1.2848 -2.7669
  110OSM   H18T11397   3.935   1.385   8.691  1.3723  0.7183  2.3215
  110OSM   H18U11398   4.070   1.418   8.595 -2.2039 -1.5236 -0.9825
  110OSM    C1F11399   4.118   1.319  10.340 -0.0805  0.6655 -0.6513
  110OSM     OF11400   4.039   1.230  10.367  0.5430 -0.0961  0.5349
  110OSM    C2F11401   4.262   1.291  10.286 -0.3871 -0.1660  0.3180
  110OSM    H2F11402   4.303   1.211  10.352 -2.2088 -2.5973 -1.3138
  110OSM    H2G11403   4.330   1.379  10.296 -0.6490 -0.1458  2.4699
  110OSM    C3F11404   4.268   1.223  10.147  0.5125  0.6682  0.0636
  110OSM    H3F11405   4.212   1.131  10.172  0.3971  1.2189  1.9776
  110OSM    H3G11406   4.377   1.208  10.133  0.7641  1.9394  0.4868
  110OSM    C4F11407   4.224   1.310  10.034  0.5212 -0.2629  0.0848
  110OSM    H4F11408   4.282   1.404  10.033 -1.3085  1.0176  2.4709
  110OSM    H4G11409   4.118   1.341  10.050  0.6132  0.3516 -0.4425
  110OSM    C5F11410   4.223   1.225   9.900 -0.5360 -0.3687 -0.2689
  110OSM    H5F11411   4.149   1.145   9.923 -1.3327  1.1805  3.3048
  110OSM    H5G11412   4.325   1.183   9.884 -0.3662 -0.7648  1.6284
  110OSM    C6F11413   4.175   1.292   9.767 -0.9543 -0.1089 -0.2493
  110OSM    H6F11414   4.240   1.381   9.756 -1.1186  0.5143  2.8434
  110OSM    H6G11415   4.069   1.325   9.778 -1.2126 -1.1644  0.6410
  110OSM    C7F11416   4.210   1.196   9.654 -0.6024  0.8347 -0.5123
  110OSM    H7F11417   4.136   1.114   9.667 -1.1765  1.6123  1.5082
  110OSM    H7G11418   4.314   1.161   9.673 -0.5177  0.7608 -1.0931
  110OSM    C8F11419   4.206   1.257   9.512 -0.0407 -1.2800 -0.5677
  110OSM    H8F11420   4.284   1.335   9.499 -1.0534 -0.3408 -1.0834
  110OSM    H8G11421   4.110   1.310   9.497  2.1019  3.3022  0.2249
  110OSM    C9F11422   4.217   1.151   9.405  0.3274 -0.1939 -0.4143
  110OSM    H9F11423   4.224   1.047   9.441 -0.0123 -0.8459 -2.0938
  110OSM   C10F11424   4.233   1.172   9.271  0.5708  0.6269 -1.2648
  110OSM   H10F11425   4.261   1.082   9.214 -1.0865 -1.5038  1.0515
  110OSM   C11F11426   4.238   1.303   9.200 -0.2017 -0.2255  0.3011
  110OSM   H11F11427   4.235   1.392   9.267  2.1672  0.3962 -0.3230
  110OSM   H11G11428   4.147   1.304   9.136  0.9212  1.5569 -1.3850
  110OSM   C12F11429   4.356   1.323   9.103  0.4288 -0.3051  0.2053
  110OSM   H12F11430   4.452   1.318   9.159  0.9281  1.1083 -0.4667
  110OSM   H12G11431   4.355   1.424   9.056 -1.1050  1.1849  3.1648
  110OSM   C13F11432   4.363   1.215   8.989 -0.2257  0.2403 -0.3760
  110OSM   H13F11433   4.260   1.198   8.950  0.3031  0.2397 -1.7992
  110OSM   H13G11434   4.390   1.122   9.044  0.3210  1.2460  1.1462
  110OSM   C14F11435   4.463   1.238   8.877  0.2853  0.3517  0.3906
  110OSM   H14F11436   4.495   1.141   8.832  0.1432  0.7904 -0.7049
  110OSM   H14G11437   4.563   1.271   8.910  1.4115 -0.3230 -2.0521
  110OSM   C15F11438   4.420   1.326   8.760 -0.1122  0.1481  0.6601
  110OSM   H15F11439   4.367   1.412   8.808 -1.0092  0.0163 -0.0804
  110OSM   H15G11440   4.345   1.276   8.696  1.9924  0.1206 -1.9345
  110OSM   C16F11441   4.541   1.400   8.703 -0.4734  0.5384 -0.9533
  110OSM   H16F11442   4.617   1.325   8.674  1.0982  2.4345 -2.0406
  110OSM   H16G11443   4.599   1.463   8.774  1.1249  0.0103 -1.7510
  110OSM   C17F11444   4.520   1.494   8.584  0.4053  0.0858  0.5242
  110OSM   H17F11445   4.511   1.426   8.496 -1.8977  2.5434 -1.2715
  110OSM   H17G11446   4.617   1.549   8.577 -0.6309  1.8005 -1.7000
  110OSM   C18F11447   4.403   1.581   8.593 -0.0532 -0.1600  0.6407
  110OSM   H18F11448   4.402   1.637   8.497  1.9905  2.2885  1.9068
  110OSM   H18G11449   4.413   1.651   8.679 -0.0328 -0.0666  0.5618
  110OSM   H18H11450   4.303   1.537   8.608  0.0585 -1.1341 -1.1847
  111OSM      N11451   2.712   5.290  10.768 -0.1293 -0.2511 -0.1978
  111OSM    C1511452   2.620   5.213  10.854 -0.2714  0.0955  1.0620
  111OSM   H15A11453   2.515   5.212  10.831 -0.7387  0.2328  2.9666
  111OSM   H15B11454   2.625   5.249  10.956 -1.1105  0.9855  0.8080
  111OSM   H15C11455   2.638   5.108  10.840  1.3990  0.7265 -2.8132
  111OSM    C1411456   2.697   5.254  10.627 -0.6171 -0.2950 -0.9413
  111OSM   H14A11457   2.760   5.315  10.564 -1.2957  0.7333 -0.6332
  111OSM   H14B11458   2.592   5.260  10.605 -1.0918  2.1974  1.5627
  111OSM   H14C11459   2.729   5.150  10.621 -1.2703 -0.6773  1.2221
  111OSM    C1311460   2.665   5.434  10.772  0.2712 -0.0409 -0.1697
  111OSM   H13A11461   2.659   5.469  10.874  0.6630 -1.6050  0.4297
  111OSM   H13B11462   2.566   5.441  10.729 -0.5491  3.6255  1.8736
  111OSM   H13C11463   2.727   5.498  10.712  0.7180 -0.5717 -0.2855
  111OSM    C1211464   2.858   5.287  10.818 -0.2318 -0.4599 -0.4299
  111OSM   H12A11465   2.865   5.326  10.919 -0.4073 -1.9440  0.1830
  111OSM   H12B11466   2.919   5.358  10.764  1.3143 -1.3740  0.0307
  111OSM    C1111467   2.939   5.154  10.798 -0.7730  0.2991 -0.3625
  111OSM   H11A11468   3.045   5.188  10.801  0.5405 -3.4204  2.0817
  111OSM   H11B11469   2.916   5.109  10.700 -0.0862 -2.2936  0.5896
  111OSM      P11470   2.987   4.949  10.953 -0.4264 -0.1594 -0.1373
  111OSM    O1311471   3.099   5.014  11.034 -0.0196  0.3030 -0.0040
  111OSM    O1411472   2.898   4.850  11.016  0.7368 -0.5935 -0.1343
  111OSM    O1111473   3.066   4.882  10.830  0.5315 -1.2438 -0.8388
  111OSM    O1211474   2.895   5.065  10.900 -0.1617 -0.3977  0.7550
  111OSM    C1S11475   3.008   4.835  10.710  0.4672 -0.3075  0.1450
  111OSM    H1S11476   2.916   4.893  10.690  2.0928  2.7197  0.6887
  111OSM    H1T11477   2.976   4.730  10.724 -1.4165  0.1832 -0.2490
  111OSM     NF11478   3.042   4.812  10.475  0.4050 -0.1847  0.2367
  111OSM    HNF11479   3.060   4.718  10.445 -3.0773 -1.7155  2.3093
  111OSM    C2S11480   3.112   4.851  10.597  0.3408  0.4540  0.3163
  111OSM    H2S11481   3.136   4.960  10.596 -1.4536  0.8770 -0.3745
  111OSM    C3S11482   3.236   4.762  10.635 -0.7770 -0.2011 -0.1945
  111OSM    H3S11483   3.205   4.656  10.649 -2.0290  0.2307  0.4808
  111OSM     O311484   3.297   4.798  10.760 -0.1094 -0.3078  0.3029
  111OSM    HO311485   3.228   4.854  10.798  0.7636 -0.2427  1.9011
  111OSM    C4S11486   3.344   4.759  10.531  0.8768 -0.6470 -0.1152
  111OSM    H4S11487   3.318   4.691  10.449  0.9075 -1.7267  0.7431
  111OSM    C5S11488   3.446   4.847  10.514 -0.3862  0.4148 -0.1151
  111OSM    H5S11489   3.469   4.933  10.579  1.4713  0.8179 -1.2298
  111OSM    C6S11490   3.533   4.844  10.391 -0.0933  0.2073 -0.0561
  111OSM    H6S11491   3.584   4.746  10.388  0.2824  0.2568  2.7226
  111OSM    H6T11492   3.604   4.929  10.401  0.1178 -0.1998  2.3383
  111OSM    C7S11493   3.475   4.849  10.248  0.1970  0.1870 -0.0384
  111OSM    H7S11494   3.399   4.769  10.238 -0.8679  1.1788 -0.1274
  111OSM    H7T11495   3.543   4.823  10.164 -2.6984 -2.2345 -1.8364
  111OSM    C8S11496   3.404   4.982  10.221 -0.1501 -0.3024  0.1860
  111OSM    H8S11497   3.481   5.061  10.233  0.4474 -0.9726  0.8942
  111OSM    H8T11498   3.330   4.997  10.303 -1.0493  0.4903 -0.7443
  111OSM    C9S11499   3.333   4.976  10.083 -0.8039 -0.4064  0.6109
  111OSM    H9S11500   3.247   4.906  10.079 -0.0989 -1.2257 -1.8661
  111OSM    H9T11501   3.404   4.945  10.003 -1.4957  1.1952 -0.6890
  111OSM   C10S11502   3.274   5.109  10.033 -0.9615  0.4542  0.6838
  111OSM   H10S11503   3.192   5.150  10.095 -1.7232 -1.1092  0.7486
  111OSM   H10T11504   3.237   5.082   9.933  0.0997 -0.1364  0.4328
  111OSM   C11S11505   3.372   5.230  10.035 -0.3704 -0.0459 -0.8058
  111OSM   H11S11506   3.412   5.272  10.129 -1.9059  1.9523 -0.9701
  111OSM   H11T11507   3.318   5.323  10.005  0.3959  0.5183 -0.4435
  111OSM   C12S11508   3.493   5.225   9.939  0.4950  0.3691  1.6225
  111OSM   H12S11509   3.559   5.142   9.972  0.1240  0.1296  1.7671
  111OSM   H12T11510   3.550   5.317   9.963  0.3861  1.7680 -2.7040
  111OSM   C13S11511   3.459   5.224   9.782 -0.0195  0.6297 -0.1478
  111OSM   H13S11512   3.392   5.311   9.764  0.0864  0.8474  0.4982
  111OSM   H13T11513   3.409   5.127   9.758  1.2293 -0.6597  2.1809
  111OSM   C14S11514   3.581   5.212   9.690 -0.4347  0.3209  0.0858
  111OSM   H14S11515   3.631   5.118   9.721 -0.7836  0.0910 -0.0560
  111OSM   H14T11516   3.651   5.299   9.685  0.3557 -0.3663 -1.2147
  111OSM   C15S11517   3.526   5.188   9.553 -0.2179 -0.1697 -0.3990
  111OSM   H15S11518   3.423   5.228   9.543  0.3278  1.0294 -1.6916
  111OSM   H15T11519   3.492   5.083   9.544 -0.1786 -0.2265  0.0760
  111OSM   C16S11520   3.607   5.254   9.441 -0.2209 -0.1845  0.3616
  111OSM   H16S11521   3.621   5.364   9.453 -0.6897 -0.1753  0.8764
  111OSM   H16T11522   3.545   5.265   9.350  3.8352  0.6853 -2.5849
  111OSM   C17S11523   3.737   5.181   9.404  0.2734 -0.1850  0.4659
  111OSM   H17S11524   3.733   5.075   9.438  1.8993 -0.7929 -1.0862
  111OSM   H17T11525   3.814   5.229   9.468  0.4850  1.9529 -1.2788
  111OSM   C18S11526   3.783   5.208   9.262 -0.3301  0.0240  0.2522
  111OSM   H18S11527   3.881   5.175   9.221 -1.0662 -0.0457 -1.5029
  111OSM   H18T11528   3.785   5.318   9.247 -0.3418 -0.0768 -0.5220
  111OSM   H18U11529   3.709   5.160   9.194 -0.3901 -1.9052  1.5904
  111OSM    C1F11530   2.960   4.894  10.410 -0.4174 -0.0039  0.3446
  111OSM     OF11531   2.932   4.997  10.463  0.0798 -0.4871  0.1820
  111OSM    C2F11532   2.903   4.851  10.282 -0.7030  1.0374  0.0201
  111OSM    H2F11533   2.799   4.817  10.301 -1.3926  1.8146 -2.0658
  111OSM    H2G11534   2.954   4.766  10.233 -0.3330 -2.0275  5.0447
  111OSM    C3F11535   2.885   4.966  10.181  0.3838  0.2247  1.1015
  111OSM    H3F11536   2.983   5.012  10.159  0.2706 -0.2227 -0.4682
  111OSM    H3G11537   2.815   5.039  10.227  0.9938  1.1870  0.5368
  111OSM    C4F11538   2.834   4.925  10.040  0.0532 -0.3176 -1.0334
  111OSM    H4F11539   2.737   4.880  10.070  0.5100  0.9673  2.9007
  111OSM    H4G11540   2.911   4.867   9.984  2.4423 -0.4505  2.1151
  111OSM    C5F11541   2.788   5.042   9.955  0.5504  0.1355  0.1532
  111OSM    H5F11542   2.855   5.128   9.979 -0.7150  1.0998  0.3276
  111OSM    H5G11543   2.685   5.074   9.978 -0.0063 -0.0129 -1.9608
  111OSM    C6F11544   2.798   5.015   9.808  0.1741 -0.0667  0.5555
  111OSM    H6F11545   2.732   4.925   9.803  0.1661 -0.1233  1.4985
  111OSM    H6G11546   2.904   5.002   9.776  0.3676  1.7001  0.3655
  111OSM    C7F11547   2.729   5.118   9.713 -0.0611 -0.6669 -0.3806
  111OSM    H7F11548   2.790   5.211   9.716  1.5336 -1.6850  1.6242
  111OSM    H7G11549   2.630   5.142   9.756 -0.2145 -2.0093  0.0565
  111OSM    C8F11550   2.719   5.059   9.569  0.2873  0.0340 -0.5538
  111OSM    H8F11551   2.672   4.960   9.583  1.2111 -0.2536  0.6679
  111OSM    H8G11552   2.818   5.040   9.523  0.0774  0.6448 -1.2836
  111OSM    C9F11553   2.645   5.150   9.470  0.0164  0.4522 -0.9294
  111OSM    H9F11554   2.548   5.180   9.512  0.1895 -1.0841  0.6869
  111OSM   C10F11555   2.688   5.208   9.358 -0.2093  0.1779  0.5209
  111OSM   H10F11556   2.619   5.265   9.295 -0.5512  1.1041  1.6892
  111OSM   C11F11557   2.827   5.181   9.302 -0.0329 -0.0365  0.1440
  111OSM   H11F11558   2.827   5.081   9.253  3.0575 -0.1379  0.1677
  111OSM   H11G11559   2.905   5.176   9.380  0.5953  0.1002 -0.4684
  111OSM   C12F11560   2.859   5.288   9.200 -0.2297 -0.1466  0.1056
  111OSM   H12F11561   2.967   5.281   9.174 -0.2592  0.1510 -0.0987
  111OSM   H12G11562   2.847   5.390   9.242 -1.0908  0.3370 -1.2473
  111OSM   C13F11563   2.777   5.283   9.069 -0.2108 -0.0290 -0.9132
  111OSM   H13F11564   2.676   5.319   9.101 -0.5418 -1.8862  0.2241
  111OSM   H13G11565   2.775   5.177   9.038 -2.9031 -0.4681  0.4460
  111OSM   C14F11566   2.823   5.373   8.955 -0.2733  0.2805 -0.0794
  111OSM   H14F11567   2.884   5.448   9.010  0.2238 -0.3555  0.2632
  111OSM   H14G11568   2.737   5.419   8.903  0.4890  2.7129  0.6681
  111OSM   C15F11569   2.921   5.308   8.846 -1.1218 -0.6675  0.2853
  111OSM   H15F11570   2.862   5.236   8.786 -1.2202  1.4502 -2.3721
  111OSM   H15G11571   3.007   5.268   8.902  0.5744  1.4450 -0.6569
  111OSM   C16F11572   2.979   5.420   8.751  0.3092 -0.3118 -0.7411
  111OSM   H16F11573   2.898   5.466   8.691 -1.5467  0.0498  1.8522
  111OSM   H16G11574   3.040   5.365   8.677 -1.3305 -3.4146  0.0698
  111OSM   C17F11575   3.071   5.531   8.807  0.7338  0.0877 -0.2191
  111OSM   H17F11576   3.105   5.491   8.905 -0.1969 -1.0823 -0.3484
  111OSM   H17G11577   3.016   5.626   8.822  3.0938  1.5082 -0.0391
  111OSM   C18F11578   3.188   5.569   8.716 -0.6528  0.4041  0.6667
  111OSM   H18F11579   3.246   5.479   8.685 -0.1126  0.5278  1.2727
  111OSM   H18G11580   3.265   5.635   8.761 -1.6607  2.6642 -0.8020
  111OSM   H18H11581   3.156   5.616   8.621 -0.1520  3.4571  1.9127
  112OSM      N11582   5.326   4.601  10.936  0.1400 -0.2761 -0.2880
  112OSM    C1511583   5.446   4.516  10.918  1.0250  0.3825  0.0782
  112OSM   H15A11584   5.439   4.441  10.842 -1.2106 -0.1417  0.7227
  112OSM   H15B11585   5.467   4.474  11.015  2.6142 -0.2989 -0.5292
  112OSM   H15C11586   5.531   4.580  10.898 -0.2309  1.1854 -3.4361
  112OSM    C1411587   5.361   4.709  11.035  0.0766  0.5262  0.1931
  112OSM   H14A11588   5.437   4.778  11.000  0.1088  0.9912  1.1514
  112OSM   H14B11589   5.399   4.662  11.125  4.4968 -0.1109 -1.7455
  112OSM   H14C11590   5.279   4.776  11.056 -1.4231 -1.0592 -0.4179
  112OSM    C1311591   5.300   4.676  10.814  0.3148 -0.2206  0.2392
  112OSM   H13A11592   5.217   4.745  10.821  1.4891  1.2795 -0.2598
  112OSM   H13B11593   5.299   4.613  10.726  0.0705 -0.2855  0.2859
  112OSM   H13C11594   5.389   4.732  10.791  1.3683 -1.7718  0.3842
  112OSM    C1211595   5.200   4.530  10.985  0.2108 -0.5189  0.6417
  112OSM   H12A11596   5.179   4.459  10.907 -1.7904  0.9853 -0.2833
  112OSM   H12B11597   5.117   4.598  10.975  1.6634  1.0661 -1.4496
  112OSM    C1111598   5.198   4.458  11.114 -0.0470  0.3393 -1.2210
  112OSM   H11A11599   5.099   4.410  11.122 -0.9907  2.3761  0.2866
  112OSM   H11B11600   5.210   4.536  11.193  0.8861  2.3488 -3.2393
  112OSM      P11601   5.276   4.217  11.129  0.2524 -0.1021  0.1681
  112OSM    O1311602   5.398   4.155  11.185 -0.1050 -0.7873  0.2343
  112OSM    O1411603   5.148   4.182  11.197 -0.0579 -0.1890 -0.1654
  112OSM    O1111604   5.258   4.188  10.976 -0.0961 -0.2216  0.4648
  112OSM    O1211605   5.306   4.368  11.126  0.1339 -0.6666 -0.5466
  112OSM    C1S11606   5.369   4.148  10.891  0.1198  0.5165 -0.1689
  112OSM    H1S11607   5.404   4.051  10.933 -1.6809  0.6243  1.7335
  112OSM    H1T11608   5.457   4.215  10.896  1.8150 -1.6538  1.3247
  112OSM     NF11609   5.442   4.117  10.670  0.0382  0.0886  0.4035
  112OSM    HNF11610   5.470   4.196  10.616 -0.0696 -0.8075 -1.0146
  112OSM    C2S11611   5.329   4.139  10.742  0.6607 -0.2173  0.0613
  112OSM    H2S11612   5.254   4.058  10.744 -0.5219  0.8519  0.5293
  112OSM    C3S11613   5.241   4.263  10.687  0.5414 -0.6754 -0.7394
  112OSM    H3S11614   5.305   4.352  10.705  1.4175 -1.5624  0.7858
  112OSM     O311615   5.114   4.295  10.753 -0.3320  0.6029 -0.4567
  112OSM    HO311616   5.116   4.242  10.834 -3.1011 -1.1044 -1.3621
  112OSM    C4S11617   5.226   4.257  10.539  0.3132 -0.7921  0.0104
  112OSM    H4S11618   5.308   4.305  10.485  0.4621 -0.8234  0.2092
  112OSM    C5S11619   5.127   4.182  10.474 -0.5451 -0.2778  0.0517
  112OSM    H5S11620   5.056   4.117  10.528 -2.3574  1.1416 -0.4942
  112OSM    C6S11621   5.126   4.174  10.326  0.0880  0.1693  0.2420
  112OSM    H6S11622   5.041   4.221  10.273  1.2600 -0.5945 -2.5318
  112OSM    H6T11623   5.118   4.068  10.294  0.0300  0.3080 -0.2060
  112OSM    C7S11624   5.253   4.227  10.257 -0.1742  0.7479  0.6105
  112OSM    H7S11625   5.346   4.191  10.307  0.1225  0.3556 -0.2061
  112OSM    H7T11626   5.251   4.337  10.274 -1.6514  0.5681  1.8520
  112OSM    C8S11627   5.251   4.199  10.102 -0.4081  0.3609  0.3566
  112OSM    H8S11628   5.281   4.094  10.083  1.8968  1.3294 -2.1065
  112OSM    H8T11629   5.327   4.267  10.058 -0.4392 -0.6216 -1.3166
  112OSM    C9S11630   5.120   4.245  10.032  0.6286  0.0537  0.4595
  112OSM    H9S11631   5.080   4.345  10.057 -2.0991 -1.2063  1.5981
  112OSM    H9T11632   5.047   4.174  10.076  1.0625 -0.6715  0.0344
  112OSM   C10S11633   5.124   4.228   9.884  0.2401  0.7682  0.2141
  112OSM   H10S11634   5.153   4.125   9.854 -2.0158  0.4777 -1.1480
  112OSM   H10T11635   5.204   4.294   9.844  0.0751  1.8073  1.5103
  112OSM   C11S11636   4.995   4.266   9.808  0.3794 -0.4088 -0.0992
  112OSM   H11S11637   4.973   4.374   9.823 -0.2448 -0.6485  0.7750
  112OSM   H11T11638   4.901   4.218   9.842 -0.8365 -0.4791 -3.2588
  112OSM   C12S11639   5.017   4.244   9.657 -0.2330 -0.3710 -0.2390
  112OSM   H12S11640   4.999   4.135   9.641 -0.2867 -0.6640  1.5515
  112OSM   H12T11641   5.124   4.264   9.636 -0.5745  0.1253 -1.6045
  112OSM   C13S11642   4.924   4.317   9.557 -0.5186 -0.5307  0.0841
  112OSM   H13S11643   4.948   4.425   9.557 -1.4039 -0.3067 -1.4241
  112OSM   H13T11644   4.816   4.297   9.576 -1.3070  1.1748 -2.1394
  112OSM   C14S11645   4.942   4.266   9.410  0.3946  0.1478  0.7742
  112OSM   H14S11646   4.921   4.157   9.412  1.5511 -0.0842  1.0798
  112OSM   H14T11647   5.051   4.277   9.389  0.7873 -0.7162  2.1968
  112OSM   C15S11648   4.861   4.355   9.312  0.5281  0.0925 -0.0427
  112OSM   H15S11649   4.930   4.441   9.321  1.0598 -0.5374  3.0648
  112OSM   H15T11650   4.760   4.366   9.358  1.2731  1.0626  1.4284
  112OSM   C16S11651   4.861   4.292   9.167  1.2924 -0.1490 -0.5912
  112OSM   H16S11652   4.827   4.186   9.175  1.0458 -0.0288 -0.0427
  112OSM   H16T11653   4.966   4.296   9.130  2.4917 -0.2140  2.4950
  112OSM   C17S11654   4.771   4.359   9.067  0.3349  0.3381  0.8053
  112OSM   H17S11655   4.671   4.378   9.112 -0.3655 -0.1235 -0.5103
  112OSM   H17T11656   4.759   4.286   8.984  0.3740 -0.6476  1.6507
  112OSM   C18S11657   4.828   4.483   9.006 -0.1018 -0.2367 -0.1450
  112OSM   H18S11658   4.925   4.476   8.951  0.0034  1.7910 -0.3102
  112OSM   H18T11659   4.832   4.553   9.092  0.4127 -1.7472  1.1096
  112OSM   H18U11660   4.752   4.530   8.939 -0.5128  2.5618  2.0828
  112OSM    C1F11661   5.515   4.008  10.661 -0.1166  0.4774 -0.3144
  112OSM     OF11662   5.468   3.904  10.705  0.5430  0.5613 -0.1881
  112OSM    C2F11663   5.654   4.016  10.610 -0.4965  0.3378 -0.1366
  112OSM    H2F11664   5.726   4.022  10.695  4.0724  0.1484 -3.6252
  112OSM    H2G11665   5.663   4.104  10.543  2.5906 -1.1514 -1.8796
  112OSM    C3F11666   5.691   3.888  10.529 -0.6058 -0.2501 -0.4599
  112OSM    H3F11667   5.619   3.895  10.445 -0.4175 -0.7205 -0.6652
  112OSM    H3G11668   5.673   3.794  10.586  0.5375 -0.0429  0.2891
  112OSM    C4F11669   5.825   3.890  10.451 -0.6772 -0.5012  0.0467
  112OSM    H4F11670   5.829   3.801  10.385 -0.2908 -1.0892  0.8483
  112OSM    H4G11671   5.909   3.884  10.523  1.6449  0.4293 -2.4414
  112OSM    C5F11672   5.868   4.018  10.365  0.0371 -0.0709 -0.0822
  112OSM    H5F11673   5.974   4.000  10.338  0.8422 -0.2858  2.8459
  112OSM    H5G11674   5.873   4.101  10.439  1.0923 -0.5233  0.3838
  112OSM    C6F11675   5.770   4.052  10.255  0.1828  0.1096 -0.1297
  112OSM    H6F11676   5.817   4.141  10.208 -0.4994 -0.0152 -1.0756
  112OSM    H6G11677   5.670   4.081  10.293 -0.5058  0.9459 -2.3924
  112OSM    C7F11678   5.770   3.941  10.149  0.2498 -0.3035 -0.0912
  112OSM    H7F11679   5.705   3.852  10.167 -1.5174  1.2976  1.9754
  112OSM    H7G11680   5.876   3.910  10.135  0.6556  0.9630  0.0670
  112OSM    C8F11681   5.730   3.996  10.014 -1.0013 -0.2587 -0.1710
  112OSM    H8F11682   5.765   3.925   9.936  0.0810  0.5252 -0.4258
  112OSM    H8G11683   5.783   4.090   9.987 -2.0592 -0.0586 -1.6506
  112OSM    C9F11684   5.588   4.039   9.999 -0.8113 -0.1696 -0.1519
  112OSM    H9F11685   5.526   4.079  10.081 -1.5180  0.5393 -1.0118
  112OSM   C10F11686   5.519   4.041   9.886 -0.2688  0.1279 -0.1784
  112OSM   H10F11687   5.410   4.046   9.893 -0.1533  1.4861  1.2366
  112OSM   C11F11688   5.560   3.980   9.761 -0.4636  0.0842  0.3392
  112OSM   H11F11689   5.576   3.873   9.786 -1.2589 -0.0577  0.2720
  112OSM   H11G11690   5.650   4.039   9.732 -1.4040  0.9009 -1.0567
  112OSM   C12F11691   5.467   3.973   9.636 -0.1566  0.3613  0.1965
  112OSM   H12F11692   5.372   3.924   9.666  0.7044 -1.1039  0.6516
  112OSM   H12G11693   5.528   3.915   9.563 -1.4209 -1.7884  0.7817
  112OSM   C13F11694   5.438   4.113   9.585  0.0739  0.3059  0.6380
  112OSM   H13F11695   5.530   4.175   9.590 -1.0564  2.0533  0.5408
  112OSM   H13G11696   5.366   4.170   9.648 -2.3908  0.2594 -1.9468
  112OSM   C14F11697   5.379   4.107   9.441 -0.4869 -0.6924 -0.3671
  112OSM   H14F11698   5.293   4.037   9.436 -0.5898 -0.9691  3.0228
  112OSM   H14G11699   5.458   4.065   9.375 -0.7423 -1.2549 -0.3179
  112OSM   C15F11700   5.344   4.236   9.377 -0.1798  0.3378 -0.4590
  112OSM   H15F11701   5.439   4.295   9.372 -0.6361  1.1183 -0.1100
  112OSM   H15G11702   5.280   4.288   9.451  0.6350  2.5171 -1.1906
  112OSM   C16F11703   5.279   4.223   9.235  0.3537 -0.0067 -0.2519
  112OSM   H16F11704   5.238   4.322   9.206 -2.5980 -1.6065 -2.0689
  112OSM   H16G11705   5.190   4.159   9.254  0.7566  0.0519  2.1846
  112OSM   C17F11706   5.360   4.160   9.128 -0.8439  0.3871  0.0277
  112OSM   H17F11707   5.403   4.065   9.169 -1.2790  0.1342 -0.0951
  112OSM   H17G11708   5.442   4.229   9.099 -2.4433  2.3584  0.0079
  112OSM   C18F11709   5.281   4.125   9.009 -0.5033  0.1819 -0.7932
  112OSM   H18F11710   5.206   4.043   9.021  0.3375 -1.0043 -2.9788
  112OSM   H18G11711   5.346   4.087   8.928 -1.7700 -1.7786 -0.9513
  112OSM   H18H11712   5.219   4.209   8.972 -0.8740 -0.2772 -1.2329
  113OSM      N11713   6.416   0.725  11.099 -0.1173  0.2836  0.0463
  113OSM    C1511714   6.382   0.804  11.219 -0.2966 -0.2388 -0.3931
  113OSM   H15A11715   6.449   0.799  11.303  0.1901  4.3850 -0.2523
  113OSM   H15B11716   6.284   0.764  11.244 -0.1665 -1.2198 -1.3657
  113OSM   H15C11717   6.377   0.910  11.198  0.2753 -0.2672 -0.6894
  113OSM    C1411718   6.439   0.578  11.133 -0.1310  0.6768 -0.3118
  113OSM   H14A11719   6.453   0.516  11.046  0.7154  0.3819  0.0267
  113OSM   H14B11720   6.347   0.552  11.184  0.5080 -1.5466 -0.1971
  113OSM   H14C11721   6.522   0.563  11.200 -0.9694  0.3143  0.6877
  113OSM    C1311722   6.299   0.733  11.004 -0.4301 -0.0795 -0.2711
  113OSM   H13A11723   6.306   0.821  10.940 -0.5825 -1.4589 -2.2789
  113OSM   H13B11724   6.209   0.722  11.062  0.4187  0.2304  1.1651
  113OSM   H13C11725   6.311   0.659  10.927 -0.4878  0.1582 -0.5105
  113OSM    C1211726   6.549   0.777  11.037  1.0088 -0.3124  0.7849
  113OSM   H12A11727   6.618   0.770  11.119 -1.3808  2.6686  3.3289
  113OSM   H12B11728   6.540   0.884  11.022 -1.4328 -0.4714  0.7057
  113OSM    C1111729   6.607   0.697  10.916  0.1876 -0.1002 -0.0053
  113OSM   H11A11730   6.678   0.754  10.852  0.0823 -1.1558 -1.0992
  113OSM   H11B11731   6.514   0.665  10.865  0.3608  0.7283 -0.8509
  113OSM      P11732   6.811   0.582  11.041 -0.2912 -0.3829  0.0556
  113OSM    O1311733   6.807   0.653  11.174  0.0374  0.5061  0.2665
  113OSM    O1411734   6.861   0.444  11.041 -0.4931 -0.3110  0.2094
  113OSM    O1111735   6.907   0.670  10.955 -0.3551 -0.2346 -0.1377
  113OSM    O1211736   6.670   0.582  10.973 -0.3408 -0.6043  0.2847
  113OSM    C1S11737   6.951   0.614  10.829 -0.0039 -0.0605  0.4955
  113OSM    H1S11738   6.873   0.557  10.775 -0.1304  1.1211 -0.6234
  113OSM    H1T11739   7.041   0.549  10.833 -1.2493 -1.8264  0.8708
  113OSM     NF11740   7.025   0.669  10.599  0.1810  0.1327  0.3558
  113OSM    HNF11741   7.120   0.689  10.575  0.0946  0.8756  0.6054
  113OSM    C2S11742   6.982   0.729  10.721  0.0470 -0.5054 -0.0524
  113OSM    H2S11743   6.885   0.781  10.706 -0.5593 -1.4946  0.3561
  113OSM    C3S11744   7.087   0.824  10.777 -1.0873 -0.0091 -0.8804
  113OSM    H3S11745   7.172   0.762  10.814 -1.7565 -0.4735 -0.0739
  113OSM     O311746   7.041   0.885  10.901 -0.3364  0.0048  0.2190
  113OSM    HO311747   6.964   0.830  10.920 -0.5497 -0.0834 -0.8529
  113OSM    C4S11748   7.129   0.933  10.680 -0.0755  0.5743  0.0676
  113OSM    H4S11749   7.043   0.995  10.650 -0.2368  0.4808  0.3320
  113OSM    C5S11750   7.254   0.945  10.629  0.1161  0.5966  0.1003
  113OSM    H5S11751   7.319   0.859  10.652 -0.4550  0.3657  0.9305
  113OSM    C6S11752   7.301   1.049  10.535  0.0270 -0.3242 -0.3033
  113OSM    H6S11753   7.399   1.075  10.578 -1.1842  0.2018  2.3050
  113OSM    H6T11754   7.240   1.142  10.535 -0.6683 -0.7677 -0.2976
  113OSM    C7S11755   7.328   0.998  10.395 -0.4060  0.0285 -0.1516
  113OSM    H7S11756   7.412   0.925  10.393 -0.4007  0.0048  0.6885
  113OSM    H7T11757   7.380   1.080  10.341 -0.1428 -0.8312 -1.2386
  113OSM    C8S11758   7.207   0.953  10.319  0.3856 -0.7709  0.6266
  113OSM    H8S11759   7.125   1.026  10.334  0.6146 -0.2014 -0.7713
  113OSM    H8T11760   7.187   0.850  10.356  2.4371 -1.7963 -0.8811
  113OSM    C9S11761   7.231   0.926  10.165 -0.2477  0.0805  0.0095
  113OSM    H9S11762   7.244   1.026  10.119 -1.5357  0.4119  0.3311
  113OSM    H9T11763   7.142   0.881  10.115  0.1113 -2.4088  1.4517
  113OSM   C10S11764   7.348   0.826  10.140 -0.0692 -0.3155 -0.2594
  113OSM   H10S11765   7.345   0.741  10.212  1.7042  0.6700  1.0677
  113OSM   H10T11766   7.447   0.870  10.164  0.7153 -2.4908  0.7350
  113OSM   C11S11767   7.337   0.782   9.995  0.5159  0.0584 -1.2134
  113OSM   H11S11768   7.244   0.722   9.982  0.6294 -1.0544  2.0080
  113OSM   H11T11769   7.411   0.706   9.962  1.4077  0.1985  0.3394
  113OSM   C12S11770   7.341   0.893   9.890  0.1517  0.3009  0.1729
  113OSM   H12S11771   7.429   0.959   9.905  1.2612 -1.0330 -0.2770
  113OSM   H12T11772   7.256   0.966   9.892 -0.7751 -0.4947 -3.3679
  113OSM   C13S11773   7.340   0.839   9.743 -0.7954 -0.3389  0.0805
  113OSM   H13S11774   7.254   0.782   9.701  1.0875 -3.1500 -0.2798
  113OSM   H13T11775   7.432   0.776   9.732  0.1201  1.1597 -1.3802
  113OSM   C14S11776   7.354   0.954   9.643 -0.0987  0.1855 -0.7947
  113OSM   H14S11777   7.443   1.012   9.677 -0.7796  0.4735  0.5806
  113OSM   H14T11778   7.264   1.015   9.664  0.7162  1.1626  0.0068
  113OSM   C15S11779   7.370   0.918   9.497 -0.0017  0.3994 -0.5581
  113OSM   H15S11780   7.437   0.830   9.502 -1.5103 -0.7375  3.0792
  113OSM   H15T11781   7.407   1.006   9.439 -1.7173  0.8982 -0.9719
  113OSM   C16S11782   7.246   0.862   9.432  0.2099  0.0483  0.2490
  113OSM   H16S11783   7.157   0.927   9.449  0.1896  0.9082 -2.5020
  113OSM   H16T11784   7.226   0.762   9.475  0.0758 -0.6199 -1.2924
  113OSM   C17S11785   7.262   0.856   9.280 -0.2157  0.8517 -0.7671
  113OSM   H17S11786   7.309   0.950   9.243  0.4163  0.4677 -0.9393
  113OSM   H17T11787   7.166   0.848   9.225 -0.3325 -0.5795 -0.3783
  113OSM   C18S11788   7.335   0.728   9.245  0.4447  0.0480 -0.6274
  113OSM   H18S11789   7.444   0.739   9.265  0.2040 -0.3545  0.9775
  113OSM   H18T11790   7.333   0.709   9.135  2.2363 -0.2909 -0.6332
  113OSM   H18U11791   7.288   0.639   9.290  1.6350 -1.2988 -1.9347
  113OSM    C1F11792   6.956   0.585  10.515  0.2597 -0.0558  0.1598
  113OSM     OF11793   6.845   0.542  10.543  0.4123 -0.1817 -0.2734
  113OSM    C2F11794   7.027   0.556  10.382 -0.2862 -0.2188  0.2110
  113OSM    H2F11795   7.136   0.556  10.403 -0.1342 -2.4899 -0.3018
  113OSM    H2G11796   6.995   0.627  10.302  0.9975 -1.2278 -1.2700
  113OSM    C3F11797   6.996   0.407  10.334  0.2254  0.1551 -0.6381
  113OSM    H3F11798   6.889   0.390  10.359  0.2367  1.3825  0.3478
  113OSM    H3G11799   7.036   0.330  10.404 -0.4837 -0.9015 -1.3607
  113OSM    C4F11800   7.021   0.380  10.186  0.2285  0.3356  0.3102
  113OSM    H4F11801   7.022   0.271  10.164  3.2435  0.2119  0.7004
  113OSM    H4G11802   7.121   0.406  10.147 -0.0051 -1.4673 -1.6951
  113OSM    C5F11803   6.910   0.438  10.098 -1.2573  0.0445 -0.0873
  113OSM    H5F11804   6.913   0.549  10.113 -0.2430  0.0310 -0.1100
  113OSM    H5G11805   6.809   0.413  10.137 -2.4214 -0.5550 -3.2209
  113OSM    C6F11806   6.908   0.407   9.946  0.5743 -0.5856  0.9364
  113OSM    H6F11807   6.875   0.302   9.933  1.9046 -1.2050  2.2484
  113OSM    H6G11808   7.001   0.425   9.887 -1.9167  1.1384 -2.8503
  113OSM    C7F11809   6.809   0.507   9.869 -0.4833  0.4211  0.4820
  113OSM    H7F11810   6.799   0.606   9.919 -1.6855 -0.1001  1.3450
  113OSM    H7G11811   6.709   0.461   9.885  0.0768 -0.5100  1.4555
  113OSM    C8F11812   6.842   0.540   9.725 -0.3089 -0.5424  0.5247
  113OSM    H8F11813   6.936   0.600   9.728 -1.6653  1.7321 -0.3438
  113OSM    H8G11814   6.761   0.611   9.700  0.3015  0.3773  1.0826
  113OSM    C9F11815   6.844   0.419   9.638  0.0109 -0.1476  0.5803
  113OSM    H9F11816   6.799   0.332   9.687  2.9713 -1.2585  1.5788
  113OSM   C10F11817   6.901   0.395   9.519  0.7574  0.6107  0.7008
  113OSM   H10F11818   6.889   0.299   9.467 -1.9963  1.4981 -0.4882
  113OSM   C11F11819   6.966   0.502   9.434  0.1512  0.1954  0.0343
  113OSM   H11F11820   7.076   0.489   9.420  0.3858  2.4250 -0.5326
  113OSM   H11G11821   6.960   0.601   9.485 -1.4157 -1.2985  3.0359
  113OSM   C12F11822   6.907   0.506   9.285 -0.3274 -0.1711 -0.2547
  113OSM   H12F11823   6.804   0.547   9.299  0.4164  1.9981 -0.7453
  113OSM   H12G11824   6.896   0.404   9.242  0.3798 -0.1968 -0.3848
  113OSM   C13F11825   6.975   0.595   9.173 -0.6110  0.5123  0.2933
  113OSM   H13F11826   6.963   0.542   9.076 -0.0012  1.4862 -0.3399
  113OSM   H13G11827   7.084   0.601   9.192 -0.7658  0.3682  1.2536
  113OSM   C14F11828   6.915   0.730   9.177  0.1680 -0.4225 -1.0943
  113OSM   H14F11829   6.966   0.789   9.256  1.9955 -2.5999 -0.5352
  113OSM   H14G11830   6.808   0.726   9.206 -0.3831  1.3613 -2.6418
  113OSM   C15F11831   6.940   0.813   9.050 -0.4413 -0.1066  0.4503
  113OSM   H15F11832   6.878   0.770   8.968  0.2747  1.4803 -0.9867
  113OSM   H15G11833   7.047   0.786   9.035  0.0927  1.4148  1.3565
  113OSM   C16F11834   6.908   0.962   9.060  0.0731 -0.4911 -0.1332
  113OSM   H16F11835   6.989   1.009   9.120 -0.4728 -0.2372  0.4172
  113OSM   H16G11836   6.810   0.974   9.112  1.1997 -0.9368  2.2532
  113OSM   C17F11837   6.921   1.037   8.918 -0.3709 -0.4866 -0.6281
  113OSM   H17F11838   6.837   1.020   8.847 -0.7986  1.2089 -0.5637
  113OSM   H17G11839   7.021   1.007   8.882  0.3267  0.4519  0.4545
  113OSM   C18F11840   6.931   1.190   8.932 -0.1468  0.5732  0.2358
  113OSM   H18F11841   7.012   1.219   9.003 -0.3955  1.8021  0.0462
  113OSM   H18G11842   6.836   1.229   8.976 -1.2592  1.6577 -2.8396
  113OSM   H18H11843   6.944   1.248   8.838  0.5903  0.0069 -0.0152
  114OSM      N11844   4.988   1.023  10.780 -0.3555  0.8480  0.5019
  114OSM    C1511845   5.030   0.966  10.643 -0.0340  0.3582  0.1081
  114OSM   H15A11846   4.953   0.962  10.568 -1.0161  1.0169  1.0639
  114OSM   H15B11847   5.059   0.864  10.662 -1.9272  0.1525  2.3013
  114OSM   H15C11848   5.118   1.022  10.615  0.2116 -0.0564  0.0362
  114OSM    C1411849   4.957   1.167  10.756 -0.0478 -0.2564 -0.1501
  114OSM   H14A11850   4.897   1.177  10.667  1.9381 -2.0895 -1.8316
  114OSM   H14B11851   5.046   1.229  10.752 -0.0600 -0.2901 -1.4112
  114OSM   H14C11852   4.894   1.208  10.833 -0.2380  3.4831 -2.0541
  114OSM    C1311853   4.870   0.943  10.824 -0.7094 -0.9328  0.6690
  114OSM   H13A11854   4.902   0.843  10.848  3.2879  0.1855  0.6942
  114OSM   H13B11855   4.801   0.939  10.741  0.1257 -0.3130 -0.0880
  114OSM   H13C11856   4.838   0.989  10.916 -1.7185  1.7479 -0.8804
  114OSM    C1211857   5.107   1.002  10.877  0.5231 -0.3055  0.4570
  114OSM   H12A11858   5.110   0.894  10.881  0.7179 -0.3283 -0.2349
  114OSM   H12B11859   5.073   1.042  10.972 -2.0530  0.1172 -0.5542
  114OSM    C1111860   5.245   1.057  10.824  0.2376 -0.2726  0.3457
  114OSM   H11A11861   5.261   1.009  10.725 -2.0262 -0.1575 -0.1452
  114OSM   H11B11862   5.330   1.031  10.890  0.7169  0.0966 -0.1122
  114OSM      P11863   5.249   1.297  10.905 -0.2916  0.0040 -0.3600
  114OSM    O1311864   5.184   1.254  11.028  0.5298  0.3642 -0.1753
  114OSM    O1411865   5.385   1.344  10.923 -0.3735  0.4539 -0.0332
  114OSM    O1111866   5.159   1.410  10.842  0.5671 -0.3563  0.0729
  114OSM    O1211867   5.240   1.193  10.796  0.4049  0.4782  0.1789
  114OSM    C1S11868   5.185   1.483  10.729 -0.0148  0.6207  0.0525
  114OSM    H1S11869   5.228   1.419  10.648  0.2759  1.0224 -0.1174
  114OSM    H1T11870   5.251   1.570  10.751  0.5334  0.8295 -2.1663
  114OSM     NF11871   5.088   1.602  10.522 -0.0728  0.4547 -0.4390
  114OSM    HNF11872   5.088   1.702  10.514  1.2960  0.4553 -0.7245
  114OSM    C2S11873   5.058   1.542  10.652  0.8623  0.2608 -0.3457
  114OSM    H2S11874   5.001   1.447  10.640 -2.5340  1.9735  0.8861
  114OSM    C3S11875   4.988   1.649  10.746  0.3295 -0.2184 -0.0475
  114OSM    H3S11876   5.060   1.729  10.773  0.9030 -0.8538  0.3433
  114OSM     O311877   4.955   1.587  10.869 -0.1151 -0.1501 -0.6582
  114OSM    HO311878   4.994   1.500  10.880 -2.7640 -1.5124 -1.2212
  114OSM    C4S11879   4.858   1.699  10.681 -0.0513 -0.9499 -0.1084
  114OSM    H4S11880   4.769   1.635  10.669 -1.3611  0.8223 -0.2106
  114OSM    C5S11881   4.835   1.821  10.643  0.0341 -0.4144  0.1176
  114OSM    H5S11882   4.913   1.898  10.645 -1.0110  0.6608  0.7526
  114OSM    C6S11883   4.706   1.869  10.583 -0.0100  0.2597  0.2521
  114OSM    H6S11884   4.702   1.976  10.557 -1.0062 -0.0964 -1.1588
  114OSM    H6T11885   4.628   1.860  10.661 -1.7870  0.9605 -1.3697
  114OSM    C7S11886   4.679   1.794  10.450  0.4050  0.4641  0.2966
  114OSM    H7S11887   4.587   1.843  10.410  0.3964  0.9401  0.8829
  114OSM    H7T11888   4.665   1.685  10.461 -0.3990  0.5908  0.6430
  114OSM    C8S11889   4.790   1.829  10.348  0.3824 -0.1652  0.3335
  114OSM    H8S11890   4.879   1.771  10.383 -0.6480 -1.6049  0.6467
  114OSM    H8T11891   4.815   1.937  10.352  3.9427 -0.7494 -1.7208
  114OSM    C9S11892   4.752   1.779  10.203  0.2205 -0.1741  0.4548
  114OSM    H9S11893   4.649   1.814  10.182  0.1106 -0.9287 -0.3241
  114OSM    H9T11894   4.740   1.669  10.201  1.7788 -0.3694  0.1222
  114OSM   C10S11895   4.838   1.830  10.094  0.5987 -0.2056  0.0132
  114OSM   H10S11896   4.938   1.782  10.103  0.3007 -0.9875 -0.6647
  114OSM   H10T11897   4.853   1.940  10.093  1.7290 -0.3331  1.3649
  114OSM   C11S11898   4.771   1.813   9.958 -0.0708 -0.0630 -0.2312
  114OSM   H11S11899   4.682   1.879   9.948  0.1777  0.2557 -0.3552
  114OSM   H11T11900   4.741   1.708   9.934 -0.8322  0.5798 -2.3330
  114OSM   C12S11901   4.878   1.846   9.843  0.0090  0.1333  0.2369
  114OSM   H12S11902   4.963   1.776   9.835 -1.6092 -1.8367 -0.4774
  114OSM   H12T11903   4.921   1.941   9.883 -1.1739  0.0179  1.8720
  114OSM   C13S11904   4.813   1.862   9.703 -0.7613  0.9609 -0.1306
  114OSM   H13S11905   4.714   1.912   9.716 -1.8912 -0.6039 -2.1399
  114OSM   H13T11906   4.798   1.758   9.668  1.9320 -0.6863  3.0936
  114OSM   C14S11907   4.903   1.943   9.607 -0.4472 -0.1412 -0.5010
  114OSM   H14S11908   5.003   1.897   9.623 -0.8696 -1.7292 -2.0672
  114OSM   H14T11909   4.899   2.046   9.648 -0.5993 -0.0619 -0.7145
  114OSM   C15S11910   4.856   1.947   9.465 -0.2141 -0.0637 -0.4047
  114OSM   H15S11911   4.751   1.983   9.453 -0.2520 -0.5618 -1.6496
  114OSM   H15T11912   4.860   1.842   9.429  1.2610 -0.2749  0.3111
  114OSM   C16S11913   4.944   2.043   9.381  0.0863  0.9414 -0.3320
  114OSM   H16S11914   5.049   2.011   9.395 -0.1014  0.5918  0.2999
  114OSM   H16T11915   4.944   2.145   9.424  0.5627  0.3295  1.1789
  114OSM   C17S11916   4.920   2.057   9.228  0.0174 -0.1603  0.0512
  114OSM   H17S11917   5.016   2.086   9.180 -0.2454 -0.6207 -0.7652
  114OSM   H17T11918   4.847   2.139   9.217 -1.5044 -1.2019  1.6695
  114OSM   C18S11919   4.860   1.949   9.147  0.2300  0.4758 -0.0435
  114OSM   H18S11920   4.906   1.849   9.159 -0.1213 -0.2218 -3.4112
  114OSM   H18T11921   4.868   1.971   9.038  1.7977  0.7543  0.0996
  114OSM   H18U11922   4.755   1.922   9.170  0.7590 -1.1351  0.5817
  114OSM    C1F11923   5.133   1.530  10.422  0.0567 -0.0965 -0.2535
  114OSM     OF11924   5.164   1.413  10.436  0.0161  0.1208 -0.1325
  114OSM    C2F11925   5.138   1.599  10.291  0.4272 -0.0300 -0.0055
  114OSM    H2F11926   5.200   1.690  10.308 -1.5289  1.3389  0.2517
  114OSM    H2G11927   5.034   1.630  10.269 -0.2906 -1.1697  1.5890
  114OSM    C3F11928   5.183   1.513  10.171 -0.8046 -0.7186  0.8214
  114OSM    H3F11929   5.112   1.427  10.168 -0.9053 -0.6191 -1.5293
  114OSM    H3G11930   5.289   1.482  10.177 -0.1257  1.5861  2.0959
  114OSM    C4F11931   5.159   1.578  10.033 -0.4302 -0.0862 -0.3516
  114OSM    H4F11932   5.206   1.679  10.032 -0.5351 -0.0237  0.4422
  114OSM    H4G11933   5.049   1.592  10.025 -0.9566 -3.6050 -0.6197
  114OSM    C5F11934   5.199   1.490   9.911  0.7262  0.4159 -0.2339
  114OSM    H5F11935   5.142   1.394   9.910  2.1264 -0.4601  0.4853
  114OSM    H5G11936   5.303   1.451   9.914  0.4438 -0.3408 -0.0499
  114OSM    C6F11937   5.201   1.575   9.782 -0.3417  0.2314  0.7787
  114OSM    H6F11938   5.272   1.659   9.794  0.6458 -0.3708 -0.6069
  114OSM    H6G11939   5.105   1.629   9.769  1.5854  3.9624  0.6923
  114OSM    C7F11940   5.229   1.485   9.662  0.8427 -0.3026  0.0393
  114OSM    H7F11941   5.145   1.416   9.639  0.0105  1.4153 -2.4214
  114OSM    H7G11942   5.326   1.432   9.677  1.1573 -0.1193 -1.2855
  114OSM    C8F11943   5.261   1.569   9.536 -0.2058 -0.2233  0.0284
  114OSM    H8F11944   5.312   1.504   9.462  0.0980  1.4847 -1.3230
  114OSM    H8G11945   5.339   1.640   9.568 -0.6387  0.8439 -1.1945
  114OSM    C9F11946   5.133   1.641   9.488 -1.0320  0.4942  0.3019
  114OSM    H9F11947   5.057   1.658   9.567 -1.6845  0.6362 -0.3445
  114OSM   C10F11948   5.112   1.696   9.363 -0.8684 -0.4563  0.8427
  114OSM   H10F11949   5.012   1.734   9.340 -0.2781  0.3771 -0.4764
  114OSM   C11F11950   5.211   1.701   9.248  0.1531  0.5941  0.6080
  114OSM   H11F11951   5.318   1.699   9.279 -0.3939 -0.2168  2.5966
  114OSM   H11G11952   5.201   1.795   9.191 -2.2224 -0.2497 -0.5044
  114OSM   C12F11953   5.186   1.589   9.141  0.1962  0.8120  0.3784
  114OSM   H12F11954   5.193   1.489   9.189  1.5633  0.4464 -0.5092
  114OSM   H12G11955   5.259   1.598   9.057 -1.9860 -2.2316 -2.1268
  114OSM   C13F11956   5.044   1.602   9.086  0.3979 -0.3679  0.6427
  114OSM   H13F11957   5.042   1.708   9.052  3.0323 -0.8427 -1.2532
  114OSM   H13G11958   4.969   1.578   9.165 -0.0238  1.9076  1.0130
  114OSM   C14F11959   5.010   1.511   8.959 -0.3448 -0.0090 -0.6948
  114OSM   H14F11960   5.021   1.406   8.994  2.4237  1.0156  1.8712
  114OSM   H14G11961   5.092   1.534   8.887  2.0145 -0.8549  1.5866
  114OSM   C15F11962   4.884   1.535   8.882 -0.3097 -0.2527  0.0734
  114OSM   H15F11963   4.796   1.508   8.944 -1.1434  3.6111  0.8535
  114OSM   H15G11964   4.884   1.478   8.787 -1.1158  1.6278 -1.1320
  114OSM   C16F11965   4.869   1.686   8.847  0.5643 -0.1325  0.2688
  114OSM   H16F11966   4.956   1.724   8.789  0.5461 -0.0466  0.2977
  114OSM   H16G11967   4.874   1.742   8.943  2.4952 -0.6714  0.5311
  114OSM   C17F11968   4.738   1.730   8.782 -0.2268 -0.3463 -0.3339
  114OSM   H17F11969   4.660   1.672   8.836 -0.7452  0.7630  0.1206
  114OSM   H17G11970   4.732   1.708   8.673  0.2240  2.9627 -1.1310
  114OSM   C18F11971   4.707   1.879   8.798  0.5769  0.0174  0.1978
  114OSM   H18F11972   4.599   1.895   8.779 -0.2117 -3.4879  0.8715
  114OSM   H18G11973   4.776   1.931   8.728  0.3329  0.4763  0.2980
  114OSM   H18H11974   4.737   1.916   8.898  1.7773  0.1770 -0.2090
  115OSM      N11975   1.445   1.694  11.269  0.6197  0.3520  0.1034
  115OSM    C1511976   1.524   1.597  11.357  0.2029 -0.6016 -0.1956
  115OSM   H15A11977   1.619   1.578  11.310 -0.1904 -2.0175 -0.4580
  115OSM   H15B11978   1.474   1.504  11.379  1.5031 -0.9890  1.2438
  115OSM   H15C11979   1.538   1.647  11.452 -1.3616  1.8206 -1.1282
  115OSM    C1411980   1.303   1.691  11.317  0.5007  0.2597  0.8854
  115OSM   H14A11981   1.286   1.742  11.411 -3.9755  1.5590 -0.3538
  115OSM   H14B11982   1.266   1.589  11.320  0.0594  0.3707 -0.2899
  115OSM   H14C11983   1.228   1.733  11.251 -0.4437 -1.4377  0.8185
  115OSM    C1311984   1.503   1.831  11.280 -0.0214 -0.9569  0.0034
  115OSM   H13A11985   1.471   1.886  11.367 -0.8717 -0.0762 -0.8502
  115OSM   H13B11986   1.475   1.883  11.190  1.3238 -0.9500 -0.4404
  115OSM   H13C11987   1.611   1.827  11.276 -0.0152 -0.8362  0.0766
  115OSM    C1211988   1.460   1.637  11.133 -0.7707 -0.0633  0.0815
  115OSM   H12A11989   1.427   1.535  11.142 -2.0055  0.3520  0.5692
  115OSM   H12B11990   1.566   1.635  11.115 -0.6198 -1.6681  1.0285
  115OSM    C1111991   1.375   1.708  11.020 -0.2148  0.1688  0.2411
  115OSM   H11A11992   1.266   1.717  11.041 -1.0215 -2.5599 -2.1999
  115OSM   H11B11993   1.388   1.641  10.932  0.5112  0.4076  0.1605
  115OSM      P11994   1.570   1.858  10.931 -0.3204  0.1210  0.1042
  115OSM    O1311995   1.611   1.997  10.962 -0.0951  0.3686  0.5334
  115OSM    O1411996   1.666   1.756  10.975  0.7519  0.0576 -0.2505
  115OSM    O1111997   1.546   1.829  10.776 -0.2326 -0.1360  0.1368
  115OSM    O1211998   1.425   1.841  11.004 -0.2136  0.2715  0.0751
  115OSM    C1S11999   1.431   1.893  10.711  0.0995  0.0394  0.4944
  115OSM    H1S12000   1.438   2.003  10.717 -0.2807  0.1901 -1.4311
  115OSM    H1T12001   1.330   1.858  10.740 -0.4464  1.5246  0.4232
  115OSM     NF12002   1.348   1.944  10.484  0.2654  0.1456 -0.2019
  115OSM    HNF12003   1.260   1.908  10.454  1.0269 -1.5860 -0.5331
  115OSM    C2S12004   1.430   1.849  10.559  0.3383 -0.4401  0.5085
  115OSM    H2S12005   1.533   1.870  10.524  0.4819  1.7954  2.0050
  115OSM    C3S12006   1.388   1.700  10.550  0.0866  0.2996 -0.0895
  115OSM    H3S12007   1.283   1.688  10.586  0.2477  0.3147  0.3992
  115OSM     O312008   1.463   1.614  10.627 -0.7311 -0.0752 -0.4168
  115OSM    HO312009   1.496   1.662  10.704  1.6705 -0.8954 -0.8286
  115OSM    C4S12010   1.401   1.655  10.409  0.2151  0.0556 -0.3476
  115OSM    H4S12011   1.500   1.629  10.369 -0.0855 -1.1692 -0.3328
  115OSM    C5S12012   1.293   1.623  10.338 -0.1407 -0.2311 -0.0386
  115OSM    H5S12013   1.194   1.630  10.385  0.5224 -3.5995  2.1966
  115OSM    C6S12014   1.296   1.581  10.191 -0.7451 -0.2170 -1.1221
  115OSM    H6S12015   1.214   1.628  10.133 -0.7694  1.3785  0.1661
  115OSM    H6T12016   1.293   1.470  10.198 -0.5406 -0.1189  2.1001
  115OSM    C7S12017   1.432   1.610  10.119  0.7125 -0.8339  0.0815
  115OSM    H7S12018   1.517   1.573  10.180  0.6861  0.6151  1.0477
  115OSM    H7T12019   1.443   1.720  10.120 -0.6096 -0.6977  0.6047
  115OSM    C8S12020   1.444   1.570   9.974  0.4518  0.4927  0.6180
  115OSM    H8S12021   1.454   1.459   9.983  2.6847  0.5875  0.0023
  115OSM    H8T12022   1.535   1.609   9.924  0.4404  0.0675  0.2638
  115OSM    C9S12023   1.318   1.602   9.884  0.0777 -0.5053  0.0924
  115OSM    H9S12024   1.311   1.710   9.910  0.7261 -1.0235  2.7622
  115OSM    H9T12025   1.233   1.550   9.934  0.6859 -0.8447  0.7966
  115OSM   C10S12026   1.318   1.548   9.740  0.0068 -0.0256  0.7270
  115OSM   H10S12027   1.218   1.546   9.692  1.5509 -0.6005 -2.7348
  115OSM   H10T12028   1.357   1.444   9.743 -0.8897 -0.3719  0.7246
  115OSM   C11S12029   1.411   1.622   9.638 -0.4615  0.7424 -0.6587
  115OSM   H11S12030   1.505   1.652   9.688  0.2189  0.6378 -1.8445
  115OSM   H11T12031   1.363   1.719   9.611 -3.1011 -0.6142 -1.1795
  115OSM   C12S12032   1.433   1.553   9.510  0.1159 -0.9715  0.5579
  115OSM   H12S12033   1.351   1.479   9.495 -0.9841  0.1821  0.6674
  115OSM   H12T12034   1.524   1.492   9.525 -0.4456 -2.0423 -0.2698
  115OSM   C13S12035   1.458   1.652   9.395  1.2813 -0.0937 -0.3263
  115OSM   H13S12036   1.534   1.729   9.421  1.1491  0.7001 -2.1430
  115OSM   H13T12037   1.361   1.698   9.365 -0.1505 -2.4311  0.5246
  115OSM   C14S12038   1.518   1.582   9.271  0.0628  0.2613 -0.0414
  115OSM   H14S12039   1.613   1.532   9.301 -0.8001  0.2067  2.9120
  115OSM   H14T12040   1.537   1.657   9.190 -0.7336  0.6076  0.0844
  115OSM   C15S12041   1.428   1.479   9.211 -0.9627 -0.4235 -0.0729
  115OSM   H15S12042   1.326   1.521   9.201 -1.5855 -1.7701  0.4882
  115OSM   H15T12043   1.422   1.386   9.271 -1.1874 -0.6620 -0.4630
  115OSM   C16S12044   1.468   1.432   9.072  0.0808  0.0293  0.4445
  115OSM   H16S12045   1.431   1.500   8.992 -0.0439 -0.1973  0.3061
  115OSM   H16T12046   1.413   1.339   9.043 -0.2741  0.6849 -1.1079
  115OSM   C17S12047   1.615   1.393   9.047  0.2730 -0.4536  0.4719
  115OSM   H17S12048   1.657   1.318   9.118  3.5484  0.2029 -0.6018
  115OSM   H17T12049   1.677   1.483   9.068  1.0232 -1.0995  1.0864
  115OSM   C18S12050   1.646   1.334   8.904 -0.6926 -1.2880  0.0131
  115OSM   H18S12051   1.584   1.396   8.835 -0.3268 -0.2144  0.6337
  115OSM   H18T12052   1.637   1.224   8.902  2.0244 -1.5733 -0.1013
  115OSM   H18U12053   1.750   1.359   8.874 -1.4858  0.4891 -1.5016
  115OSM    C1F12054   1.388   2.064  10.468  0.1992 -1.0524 -1.0186
  115OSM     OF12055   1.488   2.112  10.519  0.4610  0.3170  0.1412
  115OSM    C2F12056   1.299   2.158  10.402 -0.0917  0.1762  0.1456
  115OSM    H2F12057   1.293   2.251  10.462 -0.4812  0.5463 -0.4467
  115OSM    H2G12058   1.191   2.134  10.388 -0.1257  1.3108 -2.1061
  115OSM    C3F12059   1.349   2.182  10.253  0.7965 -0.1627 -1.0908
  115OSM    H3F12060   1.452   2.222  10.255  0.1544  1.5905  0.8237
  115OSM    H3G12061   1.274   2.251  10.208  0.2590  0.2119  0.3222
  115OSM    C4F12062   1.343   2.055  10.170  0.6436  0.6090 -0.2036
  115OSM    H4F12063   1.237   2.032  10.146  0.6217  1.1942 -0.6950
  115OSM    H4G12064   1.389   1.974  10.230  0.3318  0.9114  0.4533
  115OSM    C5F12065   1.428   2.064  10.039  1.1839 -0.5449 -0.0941
  115OSM    H5F12066   1.398   1.972   9.985 -0.6131 -0.2788  0.4031
  115OSM    H5G12067   1.538   2.058  10.059  1.3863 -0.5617 -1.1640
  115OSM    C6F12068   1.403   2.184   9.949 -0.2555 -0.1864  0.0775
  115OSM    H6F12069   1.477   2.260   9.981  0.7391 -1.7067  1.5188
  115OSM    H6G12070   1.300   2.226   9.958 -0.7437 -0.4833 -2.9498
  115OSM    C7F12071   1.420   2.149   9.804 -0.1699 -0.4339  0.3599
  115OSM    H7F12072   1.368   2.051   9.789  1.3109 -1.5276  1.8847
  115OSM    H7G12073   1.527   2.119   9.795 -0.1524 -1.1569  2.4238
  115OSM    C8F12074   1.368   2.248   9.700  0.4535 -0.0434 -0.5785
  115OSM    H8F12075   1.423   2.344   9.703 -1.9542  1.4063  0.3841
  115OSM    H8G12076   1.269   2.292   9.727 -0.3968 -1.8914 -0.5485
  115OSM    C9F12077   1.364   2.196   9.561  0.5020  0.5246 -0.2025
  115OSM    H9F12078   1.264   2.162   9.532  0.6861  0.1517 -0.4006
  115OSM   C10F12079   1.462   2.177   9.476 -0.8782  0.3335 -0.0634
  115OSM   H10F12080   1.437   2.141   9.376  0.0159  0.3754 -0.3102
  115OSM   C11F12081   1.610   2.207   9.496  0.2263 -0.5733 -0.4872
  115OSM   H11F12082   1.663   2.117   9.532  0.3144  0.1286  1.2484
  115OSM   H11G12083   1.624   2.276   9.582 -0.3431  0.4943 -1.2286
  115OSM   C12F12084   1.686   2.252   9.370  0.1166 -0.6254 -0.8541
  115OSM   H12F12085   1.772   2.314   9.404 -2.6489  2.9499  0.2957
  115OSM   H12G12086   1.617   2.316   9.311 -2.2046 -0.7305  1.5682
  115OSM   C13F12087   1.742   2.138   9.286  0.6879 -0.6949 -0.4475
  115OSM   H13F12088   1.664   2.059   9.280  1.3434 -1.3485 -0.4090
  115OSM   H13G12089   1.827   2.080   9.326  0.8507 -1.1622 -1.4324
  115OSM   C14F12090   1.759   2.179   9.135 -0.3675 -0.0908  0.5367
  115OSM   H14F12091   1.822   2.271   9.137 -2.8955  1.7457  0.1533
  115OSM   H14G12092   1.660   2.208   9.094 -0.5184 -2.3349 -0.8573
  115OSM   C15F12093   1.815   2.066   9.049  0.1860  0.2013  0.1683
  115OSM   H15F12094   1.739   1.985   9.050 -0.2594  0.6027 -0.4639
  115OSM   H15G12095   1.910   2.033   9.097 -0.5299  0.8834  2.1527
  115OSM   C16F12096   1.849   2.096   8.902 -0.3911 -0.3490 -0.4128
  115OSM   H16F12097   1.904   2.008   8.862 -1.4730 -0.2701 -2.1713
  115OSM   H16G12098   1.913   2.186   8.894  0.7842 -1.2399 -1.3085
  115OSM   C17F12099   1.728   2.122   8.818 -0.6827 -0.1603  0.5308
  115OSM   H17F12100   1.664   2.200   8.864 -3.5036 -0.6529 -2.2336
  115OSM   H17G12101   1.657   2.040   8.795  1.6606 -1.7415 -1.7432
  115OSM   C18F12102   1.762   2.177   8.679 -0.3496 -0.6201 -0.2981
  115OSM   H18F12103   1.787   2.284   8.692  0.9590 -0.8793 -0.5226
  115OSM   H18G12104   1.674   2.184   8.611  0.1518  2.2224 -0.7753
  115OSM   H18H12105   1.849   2.122   8.637  0.4009  0.5588 -0.3120
  116OSM      N12106   2.312   0.421  11.036 -0.2922 -0.7990 -0.0883
  116OSM    C1512107   2.273   0.427  11.182 -0.2232  0.5255 -0.6215
  116OSM   H15A12108   2.249   0.528  11.213 -2.3023 -0.8376  2.7562
  116OSM   H15B12109   2.353   0.385  11.240  0.4721  1.6067 -0.7638
  116OSM   H15C12110   2.184   0.368  11.196 -0.0826  0.0232 -1.7219
  116OSM    C1412111   2.364   0.287  11.012  0.1564  0.6727 -0.0961
  116OSM   H14A12112   2.415   0.286  10.916  0.3333 -1.6713 -0.0451
  116OSM   H14B12113   2.287   0.212  11.015  0.3592  0.3499 -1.6218
  116OSM   H14C12114   2.442   0.251  11.078  0.2543 -1.4364 -1.2555
  116OSM    C1312115   2.194   0.458  10.954 -0.4526  0.7846 -1.0677
  116OSM   H13A12116   2.221   0.477  10.851  2.2934 -3.2695 -1.3018
  116OSM   H13B12117   2.152   0.551  10.989 -0.8069 -0.5626  2.4567
  116OSM   H13C12118   2.121   0.379  10.963  2.0409 -1.4991  1.1558
  116OSM    C1212119   2.424   0.522  11.010 -0.3482 -0.5139  0.8553
  116OSM   H12A12120   2.499   0.522  11.088  1.0544 -0.2459 -0.4577
  116OSM   H12B12121   2.390   0.624  11.016  0.9573 -0.0690  0.9608
  116OSM    C1112122   2.498   0.512  10.871  0.7614 -0.3281 -0.2908
  116OSM   H11A12123   2.427   0.531  10.789 -0.4795 -1.7368  0.4158
  116OSM   H11B12124   2.553   0.416  10.856 -1.9229 -1.8360 -1.0546
  116OSM      P12125   2.738   0.617  10.921  0.7433  0.2330 -0.1682
  116OSM    O1312126   2.804   0.751  10.939 -0.1246  0.2020  0.2157
  116OSM    O1412127   2.745   0.528  11.038  0.2719 -0.1693 -0.0493
  116OSM    O1112128   2.810   0.538  10.795  0.0896  0.0612 -0.2573
  116OSM    O1212129   2.583   0.629  10.872  0.2681  0.0539  0.0129
  116OSM    C1S12130   2.769   0.561  10.662  0.1323 -0.8613  0.8623
  116OSM    H1S12131   2.811   0.655  10.620  2.1693 -1.6763  0.9638
  116OSM    H1T12132   2.658   0.566  10.653  0.2481  0.0446 -0.3713
  116OSM     NF12133   2.802   0.475  10.422  0.3114  0.1088  0.0827
  116OSM    HNF12134   2.718   0.439  10.381  0.2992  0.7045 -0.4209
  116OSM    C2S12135   2.814   0.445  10.568  0.0266 -0.4013  0.7165
  116OSM    H2S12136   2.922   0.433  10.591  0.4100 -1.2558 -1.3536
  116OSM    C3S12137   2.739   0.316  10.600 -0.2384 -1.1389  0.6010
  116OSM    H3S12138   2.630   0.333  10.588 -0.2416  1.4989  3.2539
  116OSM     O312139   2.741   0.287  10.744 -0.2698 -1.0336  0.3932
  116OSM    HO312140   2.780   0.369  10.775  0.2794 -1.2551  0.3028
  116OSM    C4S12141   2.792   0.207  10.508 -0.3754  0.0975 -0.2977
  116OSM    H4S12142   2.753   0.211  10.405 -0.3306  1.3397 -0.2785
  116OSM    C5S12143   2.863   0.101  10.550  0.9774 -0.4983  0.1542
  116OSM    H5S12144   2.900   0.096  10.654  1.9792 -2.2749 -0.2306
  116OSM    C6S12145   2.913  -0.014  10.461  0.3375  0.2948  0.5832
  116OSM    H6S12146   2.868  -0.105  10.506 -0.0988  0.6091  0.7909
  116OSM    H6T12147   3.023  -0.024  10.462  0.1715 -2.7117  0.4366
  116OSM    C7S12148   2.865  -0.016  10.310  0.3209  0.2082  0.4943
  116OSM    H7S12149   2.904   0.076  10.261 -2.6097  1.3331  0.0768
  116OSM    H7T12150   2.755  -0.011  10.321  0.2638 -1.6391  1.0105
  116OSM    C8S12151   2.930  -0.130  10.235  0.3543 -0.0603  0.7434
  116OSM    H8S12152   2.923  -0.221  10.299 -0.7066  0.5832  1.5802
  116OSM    H8T12153   3.040  -0.118  10.244  0.2056  0.0799  3.3088
  116OSM    C9S12154   2.871  -0.168  10.098 -0.7471 -0.3426 -0.3233
  116OSM    H9S12155   2.880  -0.080  10.030 -2.5333 -0.4259 -0.7183
  116OSM    H9T12156   2.761  -0.185  10.100 -1.6017  3.5443 -2.7632
  116OSM   C10S12157   2.940  -0.287  10.024  0.1468  0.2873 -0.4089
  116OSM   H10S12158   2.910  -0.379  10.079  0.9836 -0.2367 -0.8068
  116OSM   H10T12159   3.051  -0.288  10.025  0.1558  0.5423 -1.1315
  116OSM   C11S12160   2.896  -0.304   9.877 -0.1203  0.4984 -0.6465
  116OSM   H11S12161   2.920  -0.217   9.813  1.1446  1.2531  0.7709
  116OSM   H11T12162   2.785  -0.311   9.874 -0.2006 -0.9048  1.9414
  116OSM   C12S12163   2.965  -0.428   9.811 -0.0415 -0.2081  0.1671
  116OSM   H12S12164   2.951  -0.500   9.894  1.6387 -1.2376 -0.4001
  116OSM   H12T12165   3.075  -0.420   9.804  0.1033 -0.4849  1.8978
  116OSM   C13S12166   2.899  -0.475   9.684  0.6929 -0.3631  0.1470
  116OSM   H13S12167   2.806  -0.526   9.718  0.7615 -1.9152 -1.8793
  116OSM   H13T12168   2.971  -0.545   9.638  1.7584  0.0988  1.0447
  116OSM   C14S12169   2.880  -0.351   9.593  0.6933 -1.1134  0.4052
  116OSM   H14S12170   2.975  -0.295   9.592 -0.1699  0.4056  0.4506
  116OSM   H14T12171   2.797  -0.287   9.632 -2.2077 -1.7655 -3.9598
  116OSM   C15S12172   2.836  -0.384   9.445 -0.7843 -1.1070 -0.2002
  116OSM   H15S12173   2.787  -0.293   9.404  2.0891  0.0885 -1.2519
  116OSM   H15T12174   2.769  -0.472   9.433 -1.4918 -0.4039 -1.7966
  116OSM   C16S12175   2.955  -0.404   9.344 -0.1181  0.2874 -0.6516
  116OSM   H16S12176   2.998  -0.502   9.372 -0.7484  0.2474  0.2157
  116OSM   H16T12177   3.036  -0.327   9.339  0.3929  0.0510  2.0720
  116OSM   C17S12178   2.898  -0.417   9.198 -0.2632 -0.0519 -0.6251
  116OSM   H17S12179   2.846  -0.324   9.167 -2.2355 -0.4747  1.1492
  116OSM   H17T12180   2.821  -0.496   9.182  0.6100 -0.6102 -2.2730
  116OSM   C18S12181   3.006  -0.451   9.112 -0.5840 -0.1372 -0.2994
  116OSM   H18S12182   3.084  -0.373   9.098  0.4629 -1.5147 -2.8646
  116OSM   H18T12183   2.969  -0.450   9.008 -0.0991 -0.6135 -0.4818
  116OSM   H18U12184   3.048  -0.553   9.125  1.4061  0.5672 -0.7886
  116OSM    C1F12185   2.875   0.563  10.357 -0.7543  0.4758  0.0891
  116OSM     OF12186   2.954   0.631  10.421  0.1419 -0.2042  0.5961
  116OSM    C2F12187   2.864   0.578  10.205  0.9477 -0.2279 -0.0452
  116OSM    H2F12188   2.787   0.654  10.178 -1.8210 -3.6664 -2.6159
  116OSM    H2G12189   2.828   0.482  10.163  2.6956 -0.8075 -0.2835
  116OSM    C3F12190   3.001   0.610  10.146  0.5845 -0.3198  0.9568
  116OSM    H3F12191   3.046   0.700  10.192 -2.9448  2.0639  0.0974
  116OSM    H3G12192   2.979   0.630  10.039  0.5901 -0.0871  0.9987
  116OSM    C4F12193   3.109   0.511  10.169  0.6837  0.2098 -0.4621
  116OSM    H4F12194   3.060   0.412  10.155  0.0069 -0.1804  3.4574
  116OSM    H4G12195   3.149   0.511  10.272  3.9151  0.0901 -1.5947
  116OSM    C5F12196   3.229   0.511  10.068 -0.4066  0.7268 -0.0118
  116OSM    H5F12197   3.299   0.438  10.115 -0.6406  0.0724 -0.6601
  116OSM    H5G12198   3.281   0.609  10.077 -1.2124  1.2289 -0.6865
  116OSM    C6F12199   3.201   0.475   9.919 -0.0739 -0.4913  0.1419
  116OSM    H6F12200   3.142   0.547   9.857 -0.5348 -2.0365 -1.2879
  116OSM    H6G12201   3.170   0.369   9.911 -0.7703 -0.4072  1.5033
  116OSM    C7F12202   3.342   0.477   9.852  0.5832 -0.0164  0.1355
  116OSM    H7F12203   3.399   0.405   9.914 -0.5560 -1.0076  0.0791
  116OSM    H7G12204   3.382   0.581   9.855 -0.3827  0.4278 -1.3552
  116OSM    C8F12205   3.330   0.420   9.705  0.1954 -0.3128 -0.2655
  116OSM    H8F12206   3.280   0.321   9.713 -3.0583  1.2665  0.7352
  116OSM    H8G12207   3.434   0.406   9.668 -0.7028  1.5952 -3.9217
  116OSM    C9F12208   3.258   0.512   9.610 -0.0609  0.2089  1.0822
  116OSM    H9F12209   3.191   0.584   9.659 -0.5047 -1.1440  2.5813
  116OSM   C10F12210   3.284   0.520   9.473  0.1950 -0.4017 -0.0296
  116OSM   H10F12211   3.241   0.607   9.421  1.8447 -0.7387 -2.1240
  116OSM   C11F12212   3.376   0.444   9.381  0.4879 -0.0430  0.5831
  116OSM   H11F12213   3.405   0.349   9.430 -2.9575 -1.8870 -0.5632
  116OSM   H11G12214   3.465   0.506   9.357  0.8359 -0.8219 -0.1767
  116OSM   C12F12215   3.320   0.404   9.237  0.0784  0.4628 -0.5057
  116OSM   H12F12216   3.210   0.391   9.226  0.1235 -1.1039  0.6028
  116OSM   H12G12217   3.354   0.299   9.229 -2.4486 -0.4283 -0.5540
  116OSM   C13F12218   3.388   0.492   9.127  0.6460 -0.4604 -0.3357
  116OSM   H13F12219   3.496   0.468   9.133  0.2651 -1.9609  1.2465
  116OSM   H13G12220   3.362   0.599   9.143  1.5930 -0.1640 -0.7099
  116OSM   C14F12221   3.348   0.461   8.984  0.0362 -1.0950 -0.1317
  116OSM   H14F12222   3.242   0.494   8.979  1.2175  3.3620 -0.0259
  116OSM   H14G12223   3.356   0.353   8.958 -0.5162 -0.6769 -2.2097
  116OSM   C15F12224   3.430   0.541   8.880  0.1818 -0.1969 -1.0611
  116OSM   H15F12225   3.527   0.490   8.860 -0.2590 -1.5396  0.0627
  116OSM   H15G12226   3.434   0.649   8.906  1.5651 -0.3480 -0.5622
  116OSM   C16F12227   3.373   0.525   8.740  0.5965  0.1300  0.0518
  116OSM   H16F12228   3.442   0.582   8.674  0.6890 -0.7647 -0.6590
  116OSM   H16G12229   3.271   0.564   8.717  1.4908  2.0500 -0.9387
  116OSM   C17F12230   3.363   0.378   8.685  0.1788 -1.0763  0.2472
  116OSM   H17F12231   3.290   0.325   8.749 -0.7164  0.5197  0.5952
  116OSM   H17G12232   3.468   0.345   8.696  0.1010 -0.6889  2.6392
  116OSM   C18F12233   3.319   0.365   8.536  0.1800 -0.1681  0.8226
  116OSM   H18F12234   3.209   0.356   8.545  0.1293  1.8748  3.4505
  116OSM   H18G12235   3.365   0.277   8.486  1.0717  0.1390  1.0881
  116OSM   H18H12236   3.348   0.461   8.487 -1.2239  0.3620  0.9735
  117OSM      N12237   6.744   6.372  11.378  0.2046 -0.2391 -0.4059
  117OSM    C1512238   6.739   6.523  11.393  0.3723 -0.2698  0.3989
  117OSM   H15A12239   6.676   6.554  11.475 -0.0511  0.5697 -0.2199
  117OSM   H15B12240   6.698   6.571  11.305 -0.3743  1.3049  1.5445
  117OSM   H15C12241   6.834   6.571  11.409  0.3744 -0.6974  1.7705
  117OSM    C1412242   6.791   6.328  11.510  0.0891 -0.3685 -0.0169
  117OSM   H14A12243   6.888   6.364  11.542 -0.4387  1.0852  0.0132
  117OSM   H14B12244   6.793   6.220  11.525  0.4235 -0.4855 -0.8803
  117OSM   H14C12245   6.724   6.360  11.589 -1.3379  1.0802 -1.7316
  117OSM    C1312246   6.605   6.317  11.356 -0.0383 -0.3181  0.1525
  117OSM   H13A12247   6.559   6.356  11.266 -0.3558 -0.6946  0.1494
  117OSM   H13B12248   6.546   6.355  11.439 -2.0020 -1.7972 -0.4864
  117OSM   H13C12249   6.617   6.210  11.352  0.4917 -0.2680  0.3424
  117OSM    C1212250   6.846   6.332  11.280 -0.1085 -0.4136  0.8068
  117OSM   H12A12251   6.845   6.224  11.273  0.7423 -0.4524  1.2573
  117OSM   H12B12252   6.940   6.366  11.320 -1.7076  1.9343  2.8359
  117OSM    C1112253   6.825   6.386  11.136  0.0650  0.2383 -0.3554
  117OSM   H11A12254   6.910   6.358  11.070  0.6435  0.7436  0.1665
  117OSM   H11B12255   6.829   6.497  11.146 -1.5344  0.1753  1.8063
  117OSM      P12256   6.675   6.206  11.034 -0.1079 -0.3870 -0.3512
  117OSM    O1312257   6.774   6.113  11.105 -0.1863  0.6494 -0.4121
  117OSM    O1412258   6.531   6.170  11.046 -0.2082 -0.0082  0.1865
  117OSM    O1112259   6.718   6.219  10.886 -0.2864  0.1151 -0.0463
  117OSM    O1212260   6.696   6.352  11.085 -0.7589 -0.3837 -0.4329
  117OSM    C1S12261   6.686   6.113  10.793 -0.2888  0.1517 -0.3014
  117OSM    H1S12262   6.612   6.044  10.838 -1.7592  0.8504 -1.5494
  117OSM    H1T12263   6.765   6.037  10.776  0.7471  1.2839 -0.7207
  117OSM     NF12264   6.611   6.036  10.574  0.9034 -0.3938 -0.3442
  117OSM    HNF12265   6.675   5.997  10.509 -0.6290 -2.2080 -0.8762
  117OSM    C2S12266   6.649   6.156  10.649  0.0206 -0.0553  0.2395
  117OSM    H2S12267   6.557   6.217  10.657  1.5590  2.3633  0.3350
  117OSM    C3S12268   6.765   6.237  10.583  0.2751  0.3744 -0.8524
  117OSM    H3S12269   6.844   6.164  10.557 -0.3334 -0.5437 -0.1710
  117OSM     O312270   6.817   6.347  10.659 -0.7022 -0.0541 -0.4736
  117OSM    HO312271   6.774   6.328  10.743 -1.0453 -0.3656 -0.7172
  117OSM    C4S12272   6.727   6.290  10.447  0.2498  0.1685  0.5481
  117OSM    H4S12273   6.752   6.222  10.364 -3.4385  0.0397 -0.6400
  117OSM    C5S12274   6.682   6.415  10.414  0.4606  0.3090  0.5650
  117OSM    H5S12275   6.686   6.488  10.496  0.8255  2.1043 -0.9814
  117OSM    C6S12276   6.652   6.461  10.277  0.0635 -0.1990 -0.2511
  117OSM    H6S12277   6.707   6.557  10.277 -1.1858  0.6715  3.2225
  117OSM    H6T12278   6.544   6.474  10.254 -0.1535 -0.9365  0.3415
  117OSM    C7S12279   6.705   6.382  10.154  0.3021 -0.2704 -0.1455
  117OSM    H7S12280   6.695   6.272  10.165  1.2902 -0.2219  1.5142
  117OSM    H7T12281   6.814   6.400  10.143  0.4657 -0.5079  0.9653
  117OSM    C8S12282   6.633   6.444  10.025  0.4067  0.4342  0.3399
  117OSM    H8S12283   6.640   6.554  10.017 -1.6020  0.6496  0.9622
  117OSM    H8T12284   6.526   6.414  10.026  0.2992  0.4631 -2.3926
  117OSM    C9S12285   6.681   6.379   9.898 -0.3462 -0.2080  0.5638
  117OSM    H9S12286   6.665   6.270   9.899 -1.2204 -0.0929  1.8262
  117OSM    H9T12287   6.787   6.404   9.875 -1.1758  0.1135 -3.6650
  117OSM   C10S12288   6.605   6.425   9.774 -0.1312 -0.4038  0.5592
  117OSM   H10S12289   6.587   6.533   9.758 -1.8415 -0.7646 -0.0662
  117OSM   H10T12290   6.501   6.388   9.784 -0.2379 -0.9939 -2.0155
  117OSM   C11S12291   6.675   6.366   9.653 -0.1823  0.3141  1.0984
  117OSM   H11S12292   6.671   6.256   9.658  2.0633  0.1678  0.5677
  117OSM   H11T12293   6.784   6.387   9.656 -0.1931  0.4714  0.5860
  117OSM   C12S12294   6.609   6.389   9.521 -0.2578  0.3988 -0.0801
  117OSM   H12S12295   6.610   6.499   9.507 -0.9406  0.2804 -1.1837
  117OSM   H12T12296   6.505   6.359   9.545  0.3380  0.1890  2.6114
  117OSM   C13S12297   6.680   6.335   9.396  0.3099 -0.0747  0.1584
  117OSM   H13S12298   6.702   6.230   9.424 -0.0573 -0.5621 -1.2742
  117OSM   H13T12299   6.769   6.402   9.393  1.6625 -1.8377 -0.5207
  117OSM   C14S12300   6.592   6.331   9.267  0.2854  0.3592 -0.2889
  117OSM   H14S12301   6.583   6.433   9.222 -1.3587  0.6233  0.5670
  117OSM   H14T12302   6.488   6.315   9.300  1.0765 -1.5082  1.4725
  117OSM   C15S12303   6.625   6.234   9.158  0.1726 -0.2321 -0.1110
  117OSM   H15S12304   6.619   6.134   9.206 -1.5867 -0.5603 -0.9078
  117OSM   H15T12305   6.730   6.246   9.125  0.1361 -0.5481 -0.3465
  117OSM   C16S12306   6.537   6.259   9.036 -0.1457  0.1140 -0.0229
  117OSM   H16S12307   6.559   6.365   9.010  0.5055  0.2018  0.8411
  117OSM   H16T12308   6.432   6.246   9.071 -0.2352 -1.0830 -0.7039
  117OSM   C17S12309   6.564   6.157   8.919 -0.0211 -0.6569 -0.7896
  117OSM   H17S12310   6.530   6.057   8.954  1.3434 -0.6998  0.5385
  117OSM   H17T12311   6.673   6.148   8.900 -0.2104  0.0646 -2.3421
  117OSM   C18S12312   6.484   6.185   8.787  0.0579  0.0269 -0.4251
  117OSM   H18S12313   6.375   6.191   8.806  0.0506  1.0025 -0.7182
  117OSM   H18T12314   6.509   6.104   8.715  0.2675 -0.1248 -0.1826
  117OSM   H18U12315   6.516   6.281   8.740 -1.6997  0.5117 -0.7200
  117OSM    C1F12316   6.499   5.967  10.600 -0.2825  1.2993 -0.8110
  117OSM     OF12317   6.415   6.009  10.681  0.0075 -0.0679  0.0093
  117OSM    C2F12318   6.492   5.829  10.540 -0.7497 -0.3822  0.0636
  117OSM    H2F12319   6.544   5.767  10.617  1.4281  2.4820  1.0767
  117OSM    H2G12320   6.553   5.840  10.448  0.2013 -1.2334  0.5649
  117OSM    C3F12321   6.345   5.790  10.507 -0.3849  0.3834  0.7449
  117OSM    H3F12322   6.319   5.859  10.424 -0.2290  1.4602  1.5681
  117OSM    H3G12323   6.271   5.813  10.587 -0.6064  0.6267  0.4741
  117OSM    C4F12324   6.330   5.643  10.466 -0.3377  0.0566  0.3835
  117OSM    H4F12325   6.226   5.620  10.438  0.0884  1.4327 -2.7580
  117OSM    H4G12326   6.354   5.574  10.549  1.8414  0.6198  0.2871
  117OSM    C5F12327   6.409   5.615  10.337  0.1108 -0.4858  0.2367
  117OSM    H5F12328   6.518   5.635  10.347  0.1172  0.9212 -2.0176
  117OSM    H5G12329   6.369   5.679  10.257 -2.5654 -1.3517  0.7739
  117OSM    C6F12330   6.398   5.461  10.291 -0.1302 -0.1537 -0.2634
  117OSM    H6F12331   6.290   5.434  10.292  0.0666 -1.0536  1.6170
  117OSM    H6G12332   6.441   5.400  10.372  0.4652 -1.2087 -1.3429
  117OSM    C7F12333   6.471   5.432  10.162  0.0872 -1.0866  0.1510
  117OSM    H7F12334   6.572   5.475  10.177 -1.5162  2.4778  1.7558
  117OSM    H7G12335   6.429   5.486  10.075  1.2473  0.3121  0.4239
  117OSM    C8F12336   6.481   5.285  10.126  0.5509 -0.2404 -0.2869
  117OSM    H8F12337   6.504   5.237  10.224 -1.4324 -0.6401  0.0247
  117OSM    H8G12338   6.556   5.270  10.045  0.7674  4.6664 -1.2590
  117OSM    C9F12339   6.346   5.235  10.086 -0.2681 -0.3051  0.2969
  117OSM    H9F12340   6.305   5.158  10.153  0.7688 -1.4479 -0.3392
  117OSM   C10F12341   6.281   5.256   9.968 -0.8453  0.5468  0.1732
  117OSM   H10F12342   6.192   5.200   9.936 -1.0018  1.5615 -1.2475
  117OSM   C11F12343   6.338   5.340   9.849  0.2855 -0.1364  0.1188
  117OSM   H11F12344   6.436   5.384   9.876  1.0026 -1.0523 -0.8872
  117OSM   H11G12345   6.258   5.414   9.828  0.1582 -0.6967 -1.4845
  117OSM   C12F12346   6.360   5.263   9.720 -0.0745 -0.9024 -0.2564
  117OSM   H12F12347   6.424   5.175   9.742 -0.0321 -0.5923  0.9245
  117OSM   H12G12348   6.409   5.343   9.661  1.2794  0.4979  2.6177
  117OSM   C13F12349   6.231   5.224   9.648 -0.5967 -0.2680  0.8340
  117OSM   H13F12350   6.181   5.315   9.607  1.2087  0.1968 -0.4676
  117OSM   H13G12351   6.162   5.174   9.720 -0.1138  0.0276  1.5160
  117OSM   C14F12352   6.263   5.126   9.533  0.8658  0.1479  0.5892
  117OSM   H14F12353   6.175   5.099   9.470  2.3874 -0.1078 -1.5090
  117OSM   H14G12354   6.289   5.028   9.577 -2.0736 -0.7691  0.5305
  117OSM   C15F12355   6.363   5.172   9.423  0.8861 -0.1519  0.7507
  117OSM   H15F12356   6.466   5.157   9.462  0.5247 -0.3022  1.6505
  117OSM   H15G12357   6.346   5.281   9.406  2.5554 -0.1811 -1.7243
  117OSM   C16F12358   6.349   5.088   9.295 -0.1016 -0.4541  0.5021
  117OSM   H16F12359   6.248   5.076   9.249  0.2443 -1.3532 -0.0439
  117OSM   H16G12360   6.382   4.985   9.316 -2.0269 -1.3847 -0.7214
  117OSM   C17F12361   6.429   5.160   9.179  0.9826  0.3764  0.9127
  117OSM   H17F12362   6.376   5.257   9.164 -1.6216 -1.3528 -2.4266
  117OSM   H17G12363   6.420   5.113   9.079 -0.7458  1.9731  0.2333
  117OSM   C18F12364   6.578   5.183   9.218  0.2502  0.3010 -0.3879
  117OSM   H18F12365   6.587   5.244   9.310 -1.3225  1.0430 -0.6936
  117OSM   H18G12366   6.636   5.233   9.137 -1.5871  1.1022 -1.2639
  117OSM   H18H12367   6.628   5.088   9.249  0.8000  1.2355  1.7769
  118OSM      N12368   0.500   0.523  11.060  0.8082 -0.3673  0.1955
  118OSM    C1512369   0.402   0.411  11.020 -0.3349 -0.1135 -0.4693
  118OSM   H15A12370   0.442   0.321  10.977  1.0549  0.2221  0.0717
  118OSM   H15B12371   0.323   0.442  10.953  0.8305 -0.2408 -1.9510
  118OSM   H15C12372   0.339   0.385  11.104 -0.3106  3.2709  0.7616
  118OSM    C1412373   0.576   0.549  10.935 -1.3045  0.6974  0.7582
  118OSM   H14A12374   0.652   0.626  10.943 -1.7490  1.4268 -1.2992
  118OSM   H14B12375   0.515   0.573  10.849  0.4375 -1.4299 -1.1750
  118OSM   H14C12376   0.630   0.461  10.905 -1.2584  0.2504  2.0914
  118OSM    C1312377   0.422   0.651  11.098 -0.1549 -0.2951 -0.4656
  118OSM   H13A12378   0.484   0.739  11.091 -0.8130  0.2693  0.4797
  118OSM   H13B12379   0.389   0.652  11.201 -0.3576  1.0108 -0.5286
  118OSM   H13C12380   0.338   0.666  11.032  0.9630 -0.8634 -2.0730
  118OSM    C1212381   0.583   0.486  11.175 -0.4931  0.7004  0.1096
  118OSM   H12A12382   0.516   0.473  11.259 -1.0876  0.0404 -0.4573
  118OSM   H12B12383   0.642   0.569  11.210  0.9933 -0.3718  0.2569
  118OSM    C1112384   0.678   0.362  11.173  0.6428 -0.2587 -1.2581
  118OSM   H11A12385   0.613   0.276  11.146  0.3939 -1.0806  1.6750
  118OSM   H11B12386   0.690   0.340  11.281 -3.4188  0.8739 -0.3992
  118OSM      P12387   0.936   0.435  11.152 -0.0022 -0.0131 -0.2625
  118OSM    O1312388   0.917   0.581  11.142 -0.0619 -0.1991  0.2625
  118OSM    O1412389   0.995   0.379  11.278 -0.1293  0.0909  0.2257
  118OSM    O1112390   1.033   0.404  11.029 -0.2357  0.7619 -0.4224
  118OSM    O1212391   0.800   0.368  11.103  0.1570 -0.0139 -0.0051
  118OSM    C1S12392   0.984   0.378  10.900 -0.1020  0.2680 -0.7267
  118OSM    H1S12393   0.874   0.390  10.893 -0.1359 -0.0420 -0.7041
  118OSM    H1T12394   1.012   0.273  10.879 -1.7268 -0.1528 -0.8887
  118OSM     NF12395   1.003   0.415  10.664  0.0805 -0.3776  0.0149
  118OSM    HNF12396   1.073   0.390  10.597  0.4460  0.3020  0.1291
  118OSM    C2S12397   1.050   0.461  10.792  0.1102  0.6887 -0.1160
  118OSM    H2S12398   1.011   0.565  10.794 -2.1570 -0.0790 -1.0022
  118OSM    C3S12399   1.210   0.465  10.814  0.3529  0.2730  0.5493
  118OSM    H3S12400   1.253   0.365  10.794  2.3477  1.2318 -0.3188
  118OSM     O312401   1.251   0.497  10.942 -0.2768  0.3461 -0.0759
  118OSM    HO312402   1.172   0.486  10.995 -0.7307 -0.9173 -0.9398
  118OSM    C4S12403   1.261   0.565  10.710  0.7441 -0.6531  0.5930
  118OSM    H4S12404   1.293   0.512  10.620  0.1729 -2.0734  1.2069
  118OSM    C5S12405   1.274   0.701  10.720  0.5745  0.1565 -0.9833
  118OSM    H5S12406   1.241   0.742  10.817  1.0598 -0.8828 -0.3568
  118OSM    C6S12407   1.332   0.794  10.616  0.2491 -0.3140 -0.1325
  118OSM    H6S12408   1.436   0.822  10.644  1.0921 -1.7001 -1.7429
  118OSM    H6T12409   1.259   0.878  10.615  0.7496  0.1491  0.7102
  118OSM    C7S12410   1.349   0.723  10.474 -0.6386  0.0152 -0.2137
  118OSM    H7S12411   1.254   0.689  10.429 -1.0260  0.0946  0.5235
  118OSM    H7T12412   1.409   0.632  10.496  0.8351  0.6355 -1.5191
  118OSM    C8S12413   1.429   0.796  10.372  0.4525  0.9980  0.1834
  118OSM    H8S12414   1.530   0.806  10.416  0.7088 -0.7588  0.0749
  118OSM    H8T12415   1.384   0.896  10.350  2.0060  1.2788 -2.0683
  118OSM    C9S12416   1.439   0.725  10.229  0.4498 -0.1207 -0.7041
  118OSM    H9S12417   1.339   0.683  10.206  1.1002 -1.1166 -1.8277
  118OSM    H9T12418   1.499   0.632  10.231  1.4977  0.5335 -0.3240
  118OSM   C10S12419   1.473   0.817  10.109 -0.7814  0.6586 -0.0477
  118OSM   H10S12420   1.579   0.852  10.111  0.4015 -2.5732  2.6690
  118OSM   H10T12421   1.411   0.906  10.134 -0.7770  0.1772  1.8236
  118OSM   C11S12422   1.430   0.762   9.978  0.0121 -0.3161  0.5983
  118OSM   H11S12423   1.321   0.776   9.961  0.3039  0.1247 -1.0132
  118OSM   H11T12424   1.465   0.657   9.978 -0.7717 -0.5875  1.0244
  118OSM   C12S12425   1.502   0.825   9.861  0.3446  0.4513  0.1929
  118OSM   H12S12426   1.492   0.761   9.771 -1.5765 -0.0765  0.7241
  118OSM   H12T12427   1.610   0.839   9.880  0.3810  2.0447 -1.0752
  118OSM   C13S12428   1.441   0.965   9.818 -0.5430  0.4291 -0.0278
  118OSM   H13S12429   1.473   1.042   9.892  0.5624  0.0464 -0.0897
  118OSM   H13T12430   1.331   0.975   9.830 -0.4883 -1.0054  2.2671
  118OSM   C14S12431   1.484   1.007   9.676 -0.3406 -0.0475  0.0721
  118OSM   H14S12432   1.477   0.923   9.603 -2.0735 -0.8636  1.1224
  118OSM   H14T12433   1.595   1.019   9.674 -0.3108 -0.0496  0.9884
  118OSM   C15S12434   1.426   1.132   9.637  0.2528 -0.7664  0.4984
  118OSM   H15S12435   1.462   1.215   9.702  4.9122 -1.0605 -1.3025
  118OSM   H15T12436   1.318   1.121   9.657  0.6182 -0.5178  2.8154
  118OSM   C16S12437   1.464   1.169   9.491 -0.3720 -0.0623  0.3036
  118OSM   H16S12438   1.566   1.129   9.471 -0.1626  1.0654 -1.0202
  118OSM   H16T12439   1.454   1.279   9.483  2.4245  0.4301  2.1925
  118OSM   C17S12440   1.371   1.091   9.385  0.0891  0.8406 -0.1572
  118OSM   H17S12441   1.270   1.138   9.392  0.4982  1.6885  0.1396
  118OSM   H17T12442   1.372   0.988   9.427 -0.4267  0.2930 -1.4384
  118OSM   C18S12443   1.406   1.076   9.238  0.3827 -0.3486 -0.2380
  118OSM   H18S12444   1.329   1.015   9.185  0.9538 -0.3255 -1.1064
  118OSM   H18T12445   1.507   1.032   9.228  0.0467 -0.9165 -1.3724
  118OSM   H18U12446   1.420   1.173   9.186 -0.8216 -1.0546 -2.0007
  118OSM    C1F12447   0.871   0.419  10.627 -0.2912 -0.3018  0.3649
  118OSM     OF12448   0.786   0.490  10.685  0.6934  0.3636  0.2581
  118OSM    C2F12449   0.832   0.350  10.500  0.2576 -0.5048 -0.5620
  118OSM    H2F12450   0.755   0.278  10.532 -0.4860  0.3509 -0.3933
  118OSM    H2G12451   0.917   0.286  10.467 -0.0057 -0.6569 -0.9539
  118OSM    C3F12452   0.783   0.446  10.383  0.3527  0.3157  0.1147
  118OSM    H3F12453   0.880   0.487  10.346  0.2475  0.2947 -0.1867
  118OSM    H3G12454   0.725   0.530  10.426 -0.3559 -1.7029  3.4900
  118OSM    C4F12455   0.694   0.351  10.287  0.4394  0.3265 -0.0066
  118OSM    H4F12456   0.602   0.307  10.330  0.9808 -1.3612 -0.4813
  118OSM    H4G12457   0.758   0.264  10.261  2.2456  1.1020  1.6694
  118OSM    C5F12458   0.661   0.426  10.160  0.4268 -0.0232  0.5728
  118OSM    H5F12459   0.744   0.489  10.119  0.2888  1.9442  3.0875
  118OSM    H5G12460   0.591   0.500  10.203 -2.1102 -2.3013  0.6249
  118OSM    C6F12461   0.604   0.343  10.044  0.0578 -0.0592  0.5477
  118OSM    H6F12462   0.530   0.391   9.977 -0.8660 -1.7289  0.3266
  118OSM    H6G12463   0.538   0.264  10.084  0.7214 -0.4323  0.9183
  118OSM    C7F12464   0.705   0.260   9.959  0.7541  0.5651  0.5755
  118OSM    H7F12465   0.656   0.216   9.870 -1.6038  1.3037  1.4249
  118OSM    H7G12466   0.739   0.177  10.024  0.1627  1.3180  1.8890
  118OSM    C8F12467   0.839   0.324   9.912 -0.3784 -0.1072  0.4693
  118OSM    H8F12468   0.891   0.238   9.865  0.2446 -0.2156  1.3385
  118OSM    H8G12469   0.890   0.366  10.001 -2.7765  1.4058  1.2264
  118OSM    C9F12470   0.813   0.439   9.812  0.3203 -0.3432  0.3860
  118OSM    H9F12471   0.803   0.535   9.865 -1.5871 -0.1436 -0.2514
  118OSM   C10F12472   0.815   0.427   9.676  0.4538 -0.1142 -0.5745
  118OSM   H10F12473   0.803   0.521   9.619 -0.2953  0.5970  0.7217
  118OSM   C11F12474   0.851   0.298   9.597  0.0902  0.8326 -0.2188
  118OSM   H11F12475   0.839   0.209   9.662 -0.0021  0.9215 -0.1117
  118OSM   H11G12476   0.955   0.316   9.560 -0.5690 -1.4834 -3.6367
  118OSM   C12F12477   0.778   0.280   9.468 -0.0021  0.2950  0.3026
  118OSM   H12F12478   0.668   0.273   9.487  0.6343 -2.5730  4.0791
  118OSM   H12G12479   0.809   0.181   9.428 -0.9149  0.2205 -0.2534
  118OSM   C13F12480   0.800   0.387   9.363 -0.8225 -0.4094  0.1038
  118OSM   H13F12481   0.769   0.482   9.412  0.8155  0.2175 -0.0016
  118OSM   H13G12482   0.716   0.373   9.290 -0.0595 -3.2550 -0.3492
  118OSM   C14F12483   0.942   0.389   9.300  0.2993  0.1771 -1.2211
  118OSM   H14F12484   0.958   0.284   9.267 -0.8142  0.2263 -2.0006
  118OSM   H14G12485   1.018   0.418   9.375  0.1253 -0.4048 -0.8105
  118OSM   C15F12486   0.952   0.476   9.171 -0.6196 -0.2840 -0.7715
  118OSM   H15F12487   1.060   0.497   9.162 -0.8527  0.3101 -2.6663
  118OSM   H15G12488   0.893   0.569   9.187 -0.6283 -0.5232  0.7562
  118OSM   C16F12489   0.899   0.400   9.052 -0.0771  0.3100  0.4374
  118OSM   H16F12490   0.794   0.364   9.059 -0.0225 -0.2341 -1.2016
  118OSM   H16G12491   0.961   0.308   9.053 -1.7712 -0.8885 -0.4909
  118OSM   C17F12492   0.905   0.482   8.918  0.7221  0.6541 -0.3683
  118OSM   H17F12493   0.913   0.409   8.835 -0.2600  1.8838 -1.5736
  118OSM   H17G12494   1.008   0.523   8.911  0.6339  0.9018 -0.2312
  118OSM   C18F12495   0.799   0.579   8.893 -0.4493  0.3090 -0.9668
  118OSM   H18F12496   0.815   0.663   8.964 -0.9903 -1.7490  1.7718
  118OSM   H18G12497   0.701   0.533   8.917  1.2641 -2.5192  1.3190
  118OSM   H18H12498   0.801   0.627   8.793  0.4785  1.7187 -0.3115
  119OSM      N12499   1.810   5.818  10.976 -0.1881  0.0278 -1.0975
  119OSM    C1512500   1.693   5.792  11.065  0.1304 -0.0309 -0.3918
  119OSM   H15A12501   1.703   5.699  11.118  1.0556  1.0932  1.5117
  119OSM   H15B12502   1.595   5.808  11.022  0.5226  1.5317 -0.7894
  119OSM   H15C12503   1.700   5.862  11.147  0.0386  0.6949 -0.9909
  119OSM    C1412504   1.933   5.759  11.042 -0.7715 -0.1381  0.6200
  119OSM   H14A12505   2.020   5.770  10.979 -0.4133  0.3619  1.1941
  119OSM   H14B12506   1.929   5.652  11.053  3.1105 -0.3040  1.9867
  119OSM   H14C12507   1.958   5.795  11.140  0.9260  0.6392 -0.0605
  119OSM    C1312508   1.790   5.748  10.848 -1.1282  0.1219  0.1839
  119OSM   H13A12509   1.760   5.646  10.871 -3.0663  0.9599  1.6555
  119OSM   H13B12510   1.877   5.760  10.785 -2.2942  0.5472 -1.4210
  119OSM   H13C12511   1.707   5.781  10.787 -0.9032 -0.8334 -0.6722
  119OSM    C1212512   1.836   5.971  10.953 -0.7857  0.7700 -0.0186
  119OSM   H12A12513   1.928   5.968  10.896 -1.3275 -0.4889 -0.8617
  119OSM   H12B12514   1.860   6.027  11.043 -2.2350 -0.8489  1.4475
  119OSM    C1112515   1.725   6.053  10.879 -0.0220 -0.2903  0.0388
  119OSM   H11A12516   1.720   6.019  10.774  0.8343  0.7486 -0.3665
  119OSM   H11B12517   1.770   6.152  10.854 -0.6648 -0.1189 -0.4674
  119OSM      P12518   1.552   6.169  11.034  0.2721 -0.1343 -0.1290
  119OSM    O1312519   1.435   6.136  11.122 -0.5181 -0.0454  0.1514
  119OSM    O1412520   1.673   6.215  11.109  0.1919 -0.2106 -0.1951
  119OSM    O1112521   1.516   6.283  10.928  0.0886  0.0826 -0.4191
  119OSM    O1212522   1.592   6.050  10.938  0.0286  0.2212 -1.0010
  119OSM    C1S12523   1.428   6.265  10.819 -0.4489  0.1867 -0.4728
  119OSM    H1S12524   1.329   6.255  10.867  1.4959  0.0670  3.9246
  119OSM    H1T12525   1.448   6.167  10.768  0.6471  0.4330 -0.5502
  119OSM     NF12526   1.324   6.360  10.609  0.2116  0.5223 -0.0713
  119OSM    HNF12527   1.359   6.328  10.521 -1.5756 -0.7065 -0.3995
  119OSM    C2S12528   1.434   6.377  10.707  0.5899  0.0049  0.3776
  119OSM    H2S12529   1.424   6.474  10.760  3.5269  0.0883  0.9078
  119OSM    C3S12530   1.579   6.383  10.643 -0.6051  0.2094 -0.0670
  119OSM    H3S12531   1.593   6.286  10.590 -0.4185  1.1669 -1.8299
  119OSM     O312532   1.685   6.394  10.738 -0.4153 -0.6217  0.2225
  119OSM    HO312533   1.633   6.370  10.815  0.7922 -0.0321  1.2650
  119OSM    C4S12534   1.595   6.493  10.551 -0.0340 -0.0738 -0.1475
  119OSM    H4S12535   1.621   6.588  10.600  1.7215 -2.0685  3.2423
  119OSM    C5S12536   1.570   6.476  10.421 -0.0921 -0.6946  0.0042
  119OSM    H5S12537   1.525   6.384  10.381  0.9005 -0.4632 -1.7842
  119OSM    C6S12538   1.565   6.577  10.310 -0.3163 -0.2408  0.1929
  119OSM    H6S12539   1.652   6.553  10.245  0.4056  0.1224  0.9954
  119OSM    H6T12540   1.585   6.677  10.355  0.0026 -1.4290  2.8592
  119OSM    C7S12541   1.438   6.591  10.236  1.1376 -0.6967 -0.1184
  119OSM    H7S12542   1.369   6.663  10.285  0.1866 -2.6412  1.5268
  119OSM    H7T12543   1.381   6.496  10.236 -0.9707  0.5002 -0.8891
  119OSM    C8S12544   1.461   6.630  10.089 -0.0511 -0.0635 -0.4479
  119OSM    H8S12545   1.375   6.612  10.020 -0.3390  1.3228 -0.4927
  119OSM    H8T12546   1.543   6.568  10.047  1.0503  0.2689  1.1443
  119OSM    C9S12547   1.499   6.777  10.078  0.1271 -0.5153 -0.4901
  119OSM    H9S12548   1.578   6.800  10.153 -1.1693  1.0700  0.4690
  119OSM    H9T12549   1.412   6.843  10.099  1.4028  0.1394  3.5047
  119OSM   C10S12550   1.560   6.804   9.942 -0.0975 -0.3737  0.1147
  119OSM   H10S12551   1.657   6.752   9.926  1.4351  2.7660 -1.6801
  119OSM   H10T12552   1.591   6.910   9.944  1.0852 -0.7105  1.9832
  119OSM   C11S12553   1.458   6.780   9.832 -0.4679  0.6190 -0.1686
  119OSM   H11S12554   1.365   6.830   9.864 -0.5960 -0.9163  2.0558
  119OSM   H11T12555   1.423   6.678   9.805  0.0922  0.8489 -1.9335
  119OSM   C12S12556   1.493   6.841   9.699 -0.7696  0.3831  0.2111
  119OSM   H12S12557   1.583   6.791   9.658  0.5900  3.1445 -0.3867
  119OSM   H12T12558   1.527   6.947   9.707  0.4440  0.0534 -0.4796
  119OSM   C13S12559   1.376   6.839   9.601 -0.3690 -0.7243 -0.2864
  119OSM   H13S12560   1.304   6.919   9.629 -0.3833 -0.0182 -2.1860
  119OSM   H13T12561   1.330   6.739   9.610  1.0105 -1.2197  2.2687
  119OSM   C14S12562   1.419   6.873   9.456  0.3566 -0.3290  0.6437
  119OSM   H14S12563   1.483   6.789   9.421  0.1125  0.1763 -1.1382
  119OSM   H14T12564   1.469   6.972   9.445 -1.8413  0.7041 -0.8493
  119OSM   C15S12565   1.294   6.885   9.365  0.4601  0.4212  0.3448
  119OSM   H15S12566   1.236   6.972   9.404  0.7551  0.4156  0.8045
  119OSM   H15T12567   1.238   6.789   9.358 -0.8205  1.2704 -3.4264
  119OSM   C16S12568   1.334   6.915   9.215  0.4768 -0.1401 -0.2572
  119OSM   H16S12569   1.421   6.856   9.179  0.3165 -1.0504  0.7842
  119OSM   H16T12570   1.363   7.021   9.199 -0.1080  0.0484 -0.0985
  119OSM   C17S12571   1.223   6.901   9.125  0.3070  0.1791 -0.1610
  119OSM   H17S12572   1.250   6.951   9.030 -1.2182  2.9595  0.7700
  119OSM   H17T12573   1.127   6.941   9.163 -0.5395  1.8163 -3.6862
  119OSM   C18S12574   1.194   6.759   9.079  0.0804 -0.0779  0.0285
  119OSM   H18S12575   1.096   6.746   9.027 -1.2146  2.0109  1.7448
  119OSM   H18T12576   1.188   6.692   9.167  3.3209 -1.8528 -0.9447
  119OSM   H18U12577   1.282   6.721   9.023 -0.0532 -1.5814  0.7942
  119OSM    C1F12578   1.193   6.377  10.631  0.9033 -0.2903 -0.1796
  119OSM     OF12579   1.145   6.405  10.738 -0.4666  0.1408  0.0394
  119OSM    C2F12580   1.099   6.345  10.515  0.2991  0.2963 -0.1643
  119OSM    H2F12581   1.104   6.235  10.502 -2.1275  0.0840  0.1825
  119OSM    H2G12582   1.137   6.395  10.424  1.1447 -0.5617 -0.2956
  119OSM    C3F12583   0.949   6.357  10.545  0.0831 -0.2310 -0.8086
  119OSM    H3F12584   0.931   6.454  10.596  0.3645 -0.2790 -0.6191
  119OSM    H3G12585   0.924   6.278  10.618 -1.0988  0.4079 -0.4932
  119OSM    C4F12586   0.861   6.330  10.419 -0.5112  0.0671  0.1398
  119OSM    H4F12587   0.868   6.420  10.354  2.0957  1.9520  2.7499
  119OSM    H4G12588   0.757   6.330  10.459  0.0751 -0.9951  1.7791
  119OSM    C5F12589   0.887   6.196  10.349 -0.7907  0.2850 -0.4094
  119OSM    H5F12590   0.897   6.122  10.431  1.9850 -1.3424 -2.0604
  119OSM    H5G12591   0.987   6.201  10.301 -0.9857  1.1796 -0.7412
  119OSM    C6F12592   0.784   6.161  10.239 -0.1283  0.8097  0.0307
  119OSM    H6F12593   0.691   6.140  10.296  0.5024  1.1918  1.2416
  119OSM    H6G12594   0.825   6.072  10.186 -1.7329 -0.7414  1.2800
  119OSM    C7F12595   0.757   6.275  10.142  0.0591  0.3903 -0.4806
  119OSM    H7F12596   0.845   6.334  10.107 -0.2361  1.4188  0.4393
  119OSM    H7G12597   0.692   6.348  10.194 -2.9434 -1.4320 -1.4491
  119OSM    C8F12598   0.678   6.216  10.026  0.1477  0.5657  0.4690
  119OSM    H8F12599   0.621   6.304   9.988  1.0314  0.4152 -1.2855
  119OSM    H8G12600   0.601   6.138  10.045 -1.8814  2.4054  0.2766
  119OSM    C9F12601   0.766   6.160   9.914  0.0223  0.3005  0.9041
  119OSM    H9F12602   0.865   6.129   9.951  0.5726  1.0993  0.1259
  119OSM   C10F12603   0.742   6.143   9.782  0.0284 -0.2174  0.4284
  119OSM   H10F12604   0.811   6.081   9.722 -0.9001 -1.8443  0.9667
  119OSM   C11F12605   0.628   6.193   9.695 -0.7393 -0.2692 -0.5045
  119OSM   H11F12606   0.563   6.267   9.748 -1.3774 -0.2458 -1.3020
  119OSM   H11G12607   0.567   6.106   9.662  1.7595 -2.1407 -0.4358
  119OSM   C12F12608   0.696   6.271   9.577 -0.1433 -0.1340 -0.2672
  119OSM   H12F12609   0.770   6.346   9.612  0.0323 -0.0453 -0.8170
  119OSM   H12G12610   0.624   6.334   9.520  0.7586  1.1518 -0.0393
  119OSM   C13F12611   0.764   6.183   9.469  0.2946  0.8599  0.1143
  119OSM   H13F12612   0.728   6.077   9.466  1.0097  0.6051  0.3265
  119OSM   H13G12613   0.874   6.184   9.482  0.2547  2.8632  0.5074
  119OSM   C14F12614   0.736   6.228   9.326  0.8190  0.0875 -0.4613
  119OSM   H14F12615   0.772   6.333   9.323  0.1751  0.2868 -1.4623
  119OSM   H14G12616   0.626   6.224   9.318  0.4884  2.4171  1.6794
  119OSM   C15F12617   0.804   6.142   9.218 -0.4590  0.0831  0.1286
  119OSM   H15F12618   0.756   6.046   9.191  0.2750 -0.0697 -0.6759
  119OSM   H15G12619   0.903   6.114   9.260 -1.2750 -2.1926  0.6902
  119OSM   C16F12620   0.831   6.221   9.096 -0.1313  0.0220  0.0346
  119OSM   H16F12621   0.880   6.161   9.016  0.0981  1.1112 -0.6760
  119OSM   H16G12622   0.901   6.303   9.123 -0.7444  0.7000 -0.3588
  119OSM   C17F12623   0.704   6.280   9.025  0.2969  0.3347 -0.3296
  119OSM   H17F12624   0.670   6.367   9.085  0.0083  0.9246 -1.3231
  119OSM   H17G12625   0.622   6.206   9.035  1.5052 -0.9260  0.8242
  119OSM   C18F12626   0.730   6.339   8.882 -0.0974  0.4021 -0.3260
  119OSM   H18F12627   0.799   6.273   8.827  3.1497  1.0083  2.6673
  119OSM   H18G12628   0.789   6.433   8.884 -1.3587  1.2260  0.0294
  119OSM   H18H12629   0.638   6.355   8.821 -1.9509 -1.2059  1.8548
  120OSM      N12630   3.108   4.228  11.028 -0.1094  0.7659 -0.1202
  120OSM    C1512631   2.994   4.199  11.119 -0.7904 -0.1199 -0.2465
  120OSM   H15A12632   3.015   4.128  11.197 -1.1308 -1.0165 -0.9439
  120OSM   H15B12633   2.909   4.161  11.063 -0.8291 -0.8254  0.2774
  120OSM   H15C12634   2.946   4.287  11.159 -1.1661  0.5015 -1.9512
  120OSM    C1412635   3.210   4.290  11.118  0.8240  0.5827 -0.8880
  120OSM   H14A12636   3.308   4.299  11.073  2.0007 -2.8758  0.6465
  120OSM   H14B12637   3.214   4.238  11.213 -2.0339  0.7430 -0.5881
  120OSM   H14C12638   3.160   4.383  11.141 -0.9783 -0.3195 -1.0726
  120OSM    C1312639   3.157   4.103  10.972 -1.1361 -0.9955  0.8116
  120OSM   H13A12640   3.183   4.049  11.061  0.3778 -0.1300  0.9400
  120OSM   H13B12641   3.249   4.117  10.916 -2.6115 -0.1395 -1.5664
  120OSM   H13C12642   3.090   4.057  10.901  1.6430 -0.9522 -2.0906
  120OSM    C1212643   3.065   4.325  10.921 -0.3553  0.4237 -0.2026
  120OSM   H12A12644   3.039   4.416  10.972 -0.6375  0.6688 -0.7684
  120OSM   H12B12645   2.970   4.289  10.883  0.1459  0.0282 -1.1156
  120OSM    C1112646   3.166   4.356  10.808  0.1602  0.0113  0.2735
  120OSM   H11A12647   3.267   4.387  10.844 -0.8608  1.1207  2.3946
  120OSM   H11B12648   3.128   4.445  10.755  2.3696  0.3038 -0.9358
  120OSM      P12649   3.061   4.210  10.621 -0.1641  0.3181  0.0493
  120OSM    O1312650   3.070   4.064  10.579  0.3556  0.3169  0.0126
  120OSM    O1412651   2.934   4.260  10.668  0.4498 -0.4358  0.2625
  120OSM    O1112652   3.096   4.293  10.492 -0.4086  0.1959 -0.3539
  120OSM    O1212653   3.181   4.240  10.722 -0.4899 -0.2949 -0.2652
  120OSM    C1S12654   3.207   4.252  10.404 -0.0462  0.0723 -0.5611
  120OSM    H1S12655   3.215   4.141  10.401  0.3599  0.1031 -0.8268
  120OSM    H1T12656   3.300   4.301  10.441 -0.0675 -1.1411  1.1634
  120OSM     NF12657   3.257   4.245  10.163 -0.5924  0.0318  0.4995
  120OSM    HNF12658   3.351   4.278  10.156 -0.0657 -0.8598  2.6610
  120OSM    C2S12659   3.171   4.307  10.263 -0.3830  0.5210 -0.3213
  120OSM    H2S12660   3.063   4.283  10.252 -0.1979 -0.4663 -0.0948
  120OSM    C3S12661   3.181   4.469  10.252 -0.2127  1.0858 -0.3878
  120OSM    H3S12662   3.281   4.516  10.262 -0.7861  2.5430 -1.1608
  120OSM     O312663   3.111   4.533  10.356 -0.0524 -0.1028 -0.1195
  120OSM    HO312664   3.087   4.457  10.409  0.6035 -0.7500 -0.7206
  120OSM    C4S12665   3.118   4.506  10.112 -0.1098  0.5009  0.1717
  120OSM    H4S12666   3.010   4.494  10.101 -0.0395  0.9887 -1.1481
  120OSM    C5S12667   3.188   4.556  10.006  0.0588  0.3726 -0.0244
  120OSM    H5S12668   3.298   4.562  10.007  0.1339 -0.8356  0.3990
  120OSM    C6S12669   3.115   4.590   9.881  0.1309  0.3444  0.7119
  120OSM    H6S12670   3.007   4.600   9.903 -0.2711  0.5515 -1.1664
  120OSM    H6T12671   3.118   4.507   9.806 -1.0420  2.2586 -1.5921
  120OSM    C7S12672   3.173   4.714   9.824 -0.5921  0.4540 -0.0714
  120OSM    H7S12673   3.282   4.698   9.809 -0.8556 -0.0285 -1.5863
  120OSM    H7T12674   3.165   4.796   9.900  0.4542  0.1483  0.3863
  120OSM    C8S12675   3.130   4.753   9.688  0.9393 -0.1004  0.0863
  120OSM    H8S12676   3.024   4.786   9.687  0.1183 -2.5470 -0.5927
  120OSM    H8T12677   3.129   4.667   9.618 -0.7935  0.3646 -0.5116
  120OSM    C9S12678   3.203   4.864   9.624  0.1024 -0.5101  0.4006
  120OSM    H9S12679   3.303   4.826   9.595 -0.1189 -0.2890 -0.6884
  120OSM    H9T12680   3.204   4.954   9.689  1.0754 -1.4059  1.6748
  120OSM   C10S12681   3.137   4.909   9.490  0.3928  0.2028  0.0672
  120OSM   H10S12682   3.053   4.980   9.511  0.8305  0.8862 -0.4559
  120OSM   H10T12683   3.107   4.811   9.448  2.6477 -0.6707  0.3653
  120OSM   C11S12684   3.239   4.985   9.406  0.9337  0.0254 -0.0178
  120OSM   H11S12685   3.326   4.920   9.384  0.3327 -0.6542 -0.4226
  120OSM   H11T12686   3.284   5.065   9.468  2.3504 -1.3256  0.7720
  120OSM   C12S12687   3.183   5.045   9.272  0.0548  0.0613 -1.0703
  120OSM   H12S12688   3.111   5.127   9.293 -1.9059 -2.0685  1.1026
  120OSM   H12T12689   3.131   4.965   9.215 -2.6926  1.6800 -1.0093
  120OSM   C13S12690   3.281   5.118   9.174  0.1882 -0.9274 -0.2895
  120OSM   H13S12691   3.385   5.078   9.173  0.8609  0.7269 -0.6631
  120OSM   H13T12692   3.300   5.224   9.202  0.9653 -0.8751 -0.9565
  120OSM   C14S12693   3.228   5.115   9.032 -0.6490  0.7813  0.3330
  120OSM   H14S12694   3.122   5.147   9.031 -0.9864 -0.3174 -0.7671
  120OSM   H14T12695   3.228   5.005   9.013  0.7865  0.8141 -0.0054
  120OSM   C15S12696   3.301   5.200   8.928  0.1314  0.2619 -0.3889
  120OSM   H15S12697   3.305   5.307   8.957  0.9784 -0.3207  1.7962
  120OSM   H15T12698   3.239   5.198   8.835 -1.1335  3.1501  0.2961
  120OSM   C16S12699   3.448   5.149   8.900  0.5100  0.2544 -1.0897
  120OSM   H16S12700   3.430   5.049   8.856 -1.4093 -0.7494  1.6825
  120OSM   H16T12701   3.498   5.146   8.999 -0.5438 -0.4485 -0.5618
  120OSM   C17S12702   3.538   5.251   8.822 -0.3934  0.1208  0.4093
  120OSM   H17S12703   3.505   5.345   8.873 -0.3953 -0.4942  1.5814
  120OSM   H17T12704   3.503   5.270   8.719 -2.5827  2.1405  1.4032
  120OSM   C18S12705   3.685   5.231   8.834 -0.1866 -0.4110  0.5467
  120OSM   H18S12706   3.740   5.326   8.816 -0.4122  0.0200  1.9701
  120OSM   H18T12707   3.730   5.167   8.755  1.6964  1.4020  0.0478
  120OSM   H18U12708   3.723   5.197   8.933  3.1531  0.4058 -0.3036
  120OSM    C1F12709   3.227   4.125  10.119  0.3419  0.2581  0.7945
  120OSM     OF12710   3.137   4.068  10.174 -0.0035  0.3248 -0.2409
  120OSM    C2F12711   3.309   4.063  10.016 -0.0525  0.4007  0.3914
  120OSM    H2F12712   3.352   3.972  10.063  1.8452  0.7940 -0.4568
  120OSM    H2G12713   3.403   4.112   9.981  0.6034 -1.2195 -0.2221
  120OSM    C3F12714   3.224   4.043   9.891 -0.2767  0.0726  0.2216
  120OSM    H3F12715   3.140   3.977   9.921 -1.1209  0.4295 -1.2804
  120OSM    H3G12716   3.284   3.988   9.815 -1.2983  0.8143 -1.1622
  120OSM    C4F12717   3.188   4.171   9.814  0.5952 -0.2086  0.1622
  120OSM    H4F12718   3.276   4.237   9.798  0.2131 -0.2079 -2.3745
  120OSM    H4G12719   3.120   4.237   9.872  3.3162  2.6985  0.2558
  120OSM    C5F12720   3.127   4.140   9.676  0.3743  0.4221 -0.1512
  120OSM    H5F12721   3.046   4.070   9.707  0.3059  0.2195 -0.7684
  120OSM    H5G12722   3.204   4.081   9.622  0.0670 -0.1538  0.0364
  120OSM    C6F12723   3.092   4.253   9.588  0.4947  0.0984 -0.5039
  120OSM    H6F12724   3.053   4.335   9.653  0.4271 -0.3039 -0.0233
  120OSM    H6G12725   3.009   4.223   9.520  0.1017  1.3195 -0.5885
  120OSM    C7F12726   3.202   4.317   9.509 -0.5746  0.3003 -0.5523
  120OSM    H7F12727   3.236   4.238   9.440  0.1727  1.6021 -1.7143
  120OSM    H7G12728   3.283   4.354   9.576 -0.1475 -0.1532 -0.8147
  120OSM    C8F12729   3.146   4.434   9.426 -0.7911 -0.3697  0.4855
  120OSM    H8F12730   3.072   4.489   9.489 -0.1159 -0.4247  1.3513
  120OSM    H8G12731   3.090   4.393   9.340 -0.1834 -0.5176  0.1577
  120OSM    C9F12732   3.248   4.543   9.392  0.6298  0.9221 -0.7338
  120OSM    H9F12733   3.293   4.588   9.482 -3.5036  0.3292  1.9065
  120OSM   C10F12734   3.295   4.566   9.266 -0.0715  0.0329  0.3702
  120OSM   H10F12735   3.377   4.638   9.259 -0.8075  0.7071 -2.8396
  120OSM   C11F12736   3.254   4.503   9.134 -0.3497  0.0767  0.9088
  120OSM   H11F12737   3.246   4.392   9.137  0.4585  0.0291  1.5059
  120OSM   H11G12738   3.339   4.520   9.065 -1.0161 -2.6818 -0.7449
  120OSM   C12F12739   3.133   4.567   9.062  0.1655  0.7777 -0.2145
  120OSM   H12F12740   3.043   4.533   9.117 -0.4426  1.4888 -0.7402
  120OSM   H12G12741   3.129   4.524   8.960 -0.2718 -0.2687  0.2353
  120OSM   C13F12742   3.139   4.722   9.055  0.1266  0.3545  0.4289
  120OSM   H13F12743   3.243   4.755   9.033  0.2056  1.6368  2.4272
  120OSM   H13G12744   3.117   4.769   9.153 -1.9875  1.2654 -0.4204
  120OSM   C14F12745   3.019   4.775   8.977 -0.2016  0.1799  0.1744
  120OSM   H14F12746   2.993   4.877   9.014 -2.8129 -0.7286  1.0538
  120OSM   H14G12747   2.935   4.708   9.003 -1.6423  1.5662 -0.6926
  120OSM   C15F12748   3.046   4.780   8.826  0.2895 -0.4312  0.3725
  120OSM   H15F12749   3.057   4.672   8.802  0.5479 -0.3491  0.1100
  120OSM   H15G12750   3.138   4.841   8.812 -0.7891  1.6634  1.8509
  120OSM   C16F12751   2.938   4.834   8.737  0.3443  0.1926  0.0832
  120OSM   H16F12752   2.841   4.790   8.769  0.8526 -0.6679  0.4634
  120OSM   H16G12753   2.948   4.788   8.636 -0.3731 -0.0373  0.1126
  120OSM   C17F12754   2.930   4.986   8.718 -0.2614 -0.4369  0.3321
  120OSM   H17F12755   2.956   5.038   8.813  0.0789  0.9038 -0.4696
  120OSM   H17G12756   2.823   5.014   8.707  0.0122  0.4432 -0.2130
  120OSM   C18F12757   3.024   5.039   8.611 -0.5288 -0.2420 -0.8787
  120OSM   H18F12758   3.018   5.150   8.602  0.3695 -0.3317 -3.4897
  120OSM   H18G12759   3.011   4.994   8.510 -0.2778 -1.8711 -0.2178
  120OSM   H18H12760   3.126   5.007   8.642 -1.0214  0.4163  1.5890
  121OSM      N12761   6.537   1.491  11.048  0.5215  0.3468 -0.1548
  121OSM    C1512762   6.567   1.553  11.176 -0.0333 -0.1261  0.7120
  121OSM   H15A12763   6.669   1.587  11.185  0.1224 -1.0045  2.6589
  121OSM   H15B12764   6.538   1.490  11.258  1.1547  0.4059  1.5739
  121OSM   H15C12765   6.518   1.649  11.191  1.6253  1.0477 -0.9299
  121OSM    C1412766   6.388   1.460  11.064  0.6542 -0.0996 -0.4736
  121OSM   H14A12767   6.342   1.461  10.966  1.9128  1.9614 -1.1099
  121OSM   H14B12768   6.345   1.542  11.119  1.0807  0.0710 -0.3915
  121OSM   H14C12769   6.371   1.369  11.121  0.9020  0.7606  1.0199
  121OSM    C1312770   6.552   1.593  10.943  0.0652 -0.7742  0.3303
  121OSM   H13A12771   6.652   1.631  10.928 -0.6841  1.6715  1.1010
  121OSM   H13B12772   6.503   1.687  10.965  1.0655  0.0765 -0.9641
  121OSM   H13C12773   6.508   1.553  10.853 -1.2490 -0.6522  0.8948
  121OSM    C1212774   6.624   1.367  11.009  0.5133  0.1121 -0.4605
  121OSM   H12A12775   6.608   1.290  11.083  1.5962  0.2628 -0.0493
  121OSM   H12B12776   6.728   1.395  11.016  1.5118 -3.3976  0.9722
  121OSM    C1112777   6.607   1.296  10.870  0.5897  0.1033 -0.2775
  121OSM   H11A12778   6.677   1.210  10.881 -0.6398 -0.9125 -0.0741
  121OSM   H11B12779   6.637   1.360  10.784  0.3336  1.5136  0.6645
  121OSM      P12780   6.414   1.126  10.912  0.4997 -0.0172  0.0693
  121OSM    O1312781   6.467   1.118  11.048 -0.1995 -0.3271 -0.1129
  121OSM    O1412782   6.264   1.130  10.883  0.1107  0.2541 -0.3413
  121OSM    O1112783   6.489   1.009  10.832  0.2737 -0.2359 -1.0799
  121OSM    O1212784   6.472   1.253  10.842 -0.1880  0.6591  0.3724
  121OSM    C1S12785   6.452   0.998  10.692  0.2769 -0.1003 -1.3537
  121OSM    H1S12786   6.346   1.024  10.670 -0.1388  0.8754  1.3308
  121OSM    H1T12787   6.464   0.890  10.670  1.0948 -0.6498  1.3555
  121OSM     NF12788   6.498   1.065  10.463  0.4053 -0.0046 -0.0435
  121OSM    HNF12789   6.546   1.007  10.397  1.9414  2.0918 -0.8941
  121OSM    C2S12790   6.554   1.074  10.600 -0.6836  0.2330 -0.2420
  121OSM    H2S12791   6.549   1.180  10.633  1.1459  0.2947 -0.0492
  121OSM    C3S12792   6.701   1.020  10.614  0.5072 -0.1238  0.0694
  121OSM    H3S12793   6.711   0.918  10.570  1.8682 -1.2594  2.7625
  121OSM     O312794   6.742   0.992  10.749 -0.1854  0.1674  0.1186
  121OSM    HO312795   6.661   0.978  10.799  0.1642  2.4259  1.4306
  121OSM    C4S12796   6.801   1.115  10.538  0.0732  0.7824 -0.0369
  121OSM    H4S12797   6.825   1.075  10.438  0.8133 -1.0565  0.8199
  121OSM    C5S12798   6.857   1.223  10.589 -0.4935  0.5952  0.0467
  121OSM    H5S12799   6.848   1.249  10.695  1.4996  1.4223  0.0600
  121OSM    C6S12800   6.946   1.326  10.520 -0.5987  0.1263  0.2184
  121OSM    H6S12801   7.033   1.323  10.589 -2.0913 -1.2963  2.1556
  121OSM    H6T12802   6.899   1.427  10.528 -1.3637 -0.3465  2.7472
  121OSM    C7S12803   7.001   1.296  10.378  0.0798  0.1059  0.3911
  121OSM    H7S12804   6.912   1.306  10.312 -1.3136 -2.2140  1.7734
  121OSM    H7T12805   7.041   1.192  10.381  0.9464  0.4124 -0.0922
  121OSM    C8S12806   7.101   1.402  10.342 -0.1934  0.0854  0.3119
  121OSM    H8S12807   7.183   1.417  10.415 -0.5035 -1.9239  1.1334
  121OSM    H8T12808   7.051   1.501  10.337  0.6073  0.4303 -1.1956
  121OSM    C9S12809   7.159   1.369  10.201  0.7285  0.0532 -0.4327
  121OSM    H9S12810   7.083   1.376  10.120  0.3782  3.3602  0.0121
  121OSM    H9T12811   7.197   1.265  10.202  2.2405  0.5601  1.9372
  121OSM   C10S12812   7.286   1.443  10.161  0.5768  0.8304  0.3156
  121OSM   H10S12813   7.352   1.441  10.251 -0.8096 -0.0061  1.3585
  121OSM   H10T12814   7.255   1.547  10.140 -1.3212  0.7460  2.3911
  121OSM   C11S12815   7.352   1.375  10.049  0.0754 -0.4725  0.2146
  121OSM   H11S12816   7.380   1.270  10.075 -0.2760 -0.5519  0.2772
  121OSM   H11T12817   7.450   1.426  10.034 -0.0944  0.0689  0.9072
  121OSM   C12S12818   7.269   1.391   9.915 -0.3554  0.0796 -0.0989
  121OSM   H12S12819   7.231   1.494   9.902  0.9065  0.7434  1.1679
  121OSM   H12T12820   7.185   1.319   9.909 -1.1590  0.9365  0.6131
  121OSM   C13S12821   7.357   1.332   9.797  0.7041  0.2919 -0.2183
  121OSM   H13S12822   7.366   1.222   9.811 -1.7309 -0.1467 -1.6301
  121OSM   H13T12823   7.458   1.379   9.800  0.5649  0.5438  0.8324
  121OSM   C14S12824   7.295   1.363   9.659 -0.5094  0.4175  0.3233
  121OSM   H14S12825   7.263   1.469   9.645 -0.8120  0.2215 -0.5400
  121OSM   H14T12826   7.203   1.302   9.647  0.5369 -1.8418  2.7780
  121OSM   C15S12827   7.390   1.342   9.545  0.6848  0.1711  0.0243
  121OSM   H15S12828   7.431   1.240   9.564  1.0658  0.5745  1.5482
  121OSM   H15T12829   7.472   1.416   9.549  1.9000 -1.1138 -0.4786
  121OSM   C16S12830   7.331   1.355   9.404  0.7348 -0.0131  0.0020
  121OSM   H16S12831   7.413   1.355   9.329 -1.3170  2.1112 -2.4145
  121OSM   H16T12832   7.291   1.459   9.407  1.6459  0.3432  2.7548
  121OSM   C17S12833   7.232   1.243   9.371 -0.4127 -0.5000  0.7201
  121OSM   H17S12834   7.238   1.161   9.445  0.5297  0.1255  1.3664
  121OSM   H17T12835   7.263   1.210   9.270  4.3427  1.2325  1.3164
  121OSM   C18S12836   7.085   1.282   9.358  0.4586  0.1548 -0.1865
  121OSM   H18S12837   7.029   1.195   9.317 -0.8101  0.9374 -0.1922
  121OSM   H18T12838   7.071   1.369   9.291  0.8912  0.1033 -0.3478
  121OSM   H18U12839   7.038   1.310   9.455 -2.6533  0.5977 -1.7045
  121OSM    C1F12840   6.391   1.142  10.426  0.5142  1.4142  0.4127
  121OSM     OF12841   6.359   1.235  10.495  0.1619 -0.2133 -0.2060
  121OSM    C2F12842   6.316   1.090  10.303 -0.1899 -0.2095  0.6750
  121OSM    H2F12843   6.211   1.060  10.322  0.1651 -0.3967  2.4550
  121OSM    H2G12844   6.366   0.996  10.269  1.2922  0.5781  0.5906
  121OSM    C3F12845   6.305   1.194  10.183 -0.0032 -0.2334  0.1372
  121OSM    H3F12846   6.399   1.253  10.188  1.1826 -2.0188 -0.1768
  121OSM    H3G12847   6.226   1.269  10.208  0.8808  0.0359  2.3720
  121OSM    C4F12848   6.289   1.129  10.041  0.3239 -0.3618  0.3757
  121OSM    H4F12849   6.194   1.075  10.022 -0.9909  1.1561  2.2225
  121OSM    H4G12850   6.368   1.054  10.020  1.3593  0.9395 -0.5508
  121OSM    C5F12851   6.289   1.237   9.927 -0.4926 -0.7587  0.6650
  121OSM    H5F12852   6.383   1.295   9.935 -0.8865 -0.2879  2.1719
  121OSM    H5G12853   6.207   1.310   9.944 -3.1586 -2.7584 -2.4177
  121OSM    C6F12854   6.271   1.172   9.786  0.1687 -0.3755  0.4369
  121OSM    H6F12855   6.181   1.108   9.773 -0.2272  0.7214 -3.7584
  121OSM    H6G12856   6.361   1.109   9.774  0.0057 -0.9121  1.7930
  121OSM    C7F12857   6.268   1.281   9.676  0.2446 -0.5006  0.9508
  121OSM    H7F12858   6.352   1.348   9.704  1.6769 -2.2156  0.8727
  121OSM    H7G12859   6.179   1.348   9.681  1.2777  1.2222 -1.6852
  121OSM    C8F12860   6.265   1.222   9.540  0.6699 -0.3218  0.0468
  121OSM    H8F12861   6.343   1.145   9.527 -1.5110 -2.9538  1.5119
  121OSM    H8G12862   6.299   1.303   9.473  3.9179 -1.1046  0.5952
  121OSM    C9F12863   6.131   1.165   9.497 -0.5261 -0.2263 -0.0470
  121OSM    H9F12864   6.102   1.068   9.539 -0.5174 -0.5214 -0.7264
  121OSM   C10F12865   6.057   1.220   9.404  0.0382 -0.7608  0.9776
  121OSM   H10F12866   5.965   1.171   9.371  0.0567  0.5421 -1.2042
  121OSM   C11F12867   6.075   1.349   9.322  0.6901  0.1658 -0.9690
  121OSM   H11F12868   6.148   1.421   9.366 -0.3848  1.3429 -1.0451
  121OSM   H11G12869   5.982   1.409   9.324 -1.6514 -3.2421 -1.0329
  121OSM   C12F12870   6.142   1.318   9.186  0.1719 -0.0957 -0.3393
  121OSM   H12F12871   6.244   1.281   9.208  1.0392  1.8987 -0.8638
  121OSM   H12G12872   6.151   1.416   9.134  1.9588 -0.0405  0.0039
  121OSM   C13F12873   6.060   1.222   9.103 -0.4311 -0.1070 -0.4338
  121OSM   H13F12874   5.955   1.259   9.095 -0.5780  0.2111  2.1263
  121OSM   H13G12875   6.051   1.117   9.138 -0.6147 -0.1755 -0.6749
  121OSM   C14F12876   6.106   1.214   8.959  0.1111  0.4880  0.0470
  121OSM   H14F12877   6.207   1.166   8.957 -0.0553  0.0965 -2.2607
  121OSM   H14G12878   6.110   1.313   8.910 -1.9884 -0.7334 -2.8743
  121OSM   C15F12879   6.013   1.134   8.867 -0.2134 -0.4057  0.0182
  121OSM   H15F12880   5.995   1.032   8.909 -1.0775 -0.1549  0.2908
  121OSM   H15G12881   6.067   1.124   8.771  1.9074  0.9352  0.9905
  121OSM   C16F12882   5.877   1.195   8.839  0.6562 -0.1136 -0.0077
  121OSM   H16F12883   5.881   1.304   8.821  0.1120  0.0248  0.6755
  121OSM   H16G12884   5.822   1.182   8.935 -0.8787  0.9502 -0.7075
  121OSM   C17F12885   5.793   1.106   8.726 -0.1251 -0.3481  0.5299
  121OSM   H17F12886   5.824   1.003   8.756  1.9905  0.4818  1.3362
  121OSM   H17G12887   5.832   1.129   8.624  1.3265  0.2048  1.1783
  121OSM   C18F12888   5.646   1.131   8.742 -0.0362 -0.2166 -0.2231
  121OSM   H18F12889   5.601   1.100   8.839  0.5195  1.3182  0.5643
  121OSM   H18G12890   5.592   1.064   8.672 -3.2555  1.1439  0.7768
  121OSM   H18H12891   5.629   1.238   8.717 -0.5523 -0.3668 -0.5204
  122OSM      N12892   2.233   4.661  10.997  0.5400 -1.2057 -0.1078
  122OSM    C1512893   2.241   4.712  11.136 -0.1852 -0.3504 -0.3912
  122OSM   H15A12894   2.273   4.627  11.195 -0.0610 -0.1445 -0.1571
  122OSM   H15B12895   2.148   4.757  11.166 -0.2166  0.2342 -1.3160
  122OSM   H15C12896   2.317   4.787  11.154  0.5891 -0.7196 -1.9439
  122OSM    C1412897   2.222   4.766  10.893  0.3226  0.4750 -0.8544
  122OSM   H14A12898   2.191   4.722  10.800  1.5918  2.9617 -2.5675
  122OSM   H14B12899   2.320   4.810  10.880  0.3344  0.0985 -2.1886
  122OSM   H14C12900   2.147   4.839  10.919  0.5683  0.9191 -1.3833
  122OSM    C1312901   2.349   4.581  10.963  0.2328  0.1466  0.3581
  122OSM   H13A12902   2.327   4.530  10.870  5.1588 -0.3961 -0.7900
  122OSM   H13B12903   2.366   4.497  11.029  0.1424 -1.0010 -1.0221
  122OSM   H13C12904   2.437   4.642  10.957  0.8956 -0.8422 -0.4013
  122OSM    C1212905   2.107   4.568  10.993 -0.3589 -0.5237  0.0410
  122OSM   H12A12906   2.122   4.486  11.061 -1.3871  0.4416  1.4942
  122OSM   H12B12907   2.096   4.531  10.892 -2.5350  0.9399 -0.3247
  122OSM    C1112908   1.971   4.632  11.028  0.3931  0.3240  0.4989
  122OSM   H11A12909   1.963   4.658  11.135 -0.6524 -1.5731  0.9196
  122OSM   H11B12910   1.905   4.544  11.042 -1.7741  1.9357  0.8401
  122OSM      P12911   1.862   4.697  10.793  0.0674 -0.2008  0.3924
  122OSM    O1312912   1.736   4.617  10.802 -0.0225 -0.1872 -0.3106
  122OSM    O1412913   1.846   4.823  10.712 -0.4182  0.1886 -0.4204
  122OSM    O1112914   1.973   4.604  10.731 -0.1898  0.8991 -0.0499
  122OSM    O1212915   1.922   4.733  10.932  0.1184  0.5026  0.5044
  122OSM    C1S12916   1.939   4.527  10.615 -0.0182  0.4546 -0.3395
  122OSM    H1S12917   1.830   4.506  10.607  0.0358  0.4904 -1.3531
  122OSM    H1T12918   1.989   4.428  10.615  1.5143  1.2081  0.0157
  122OSM     NF12919   1.932   4.531  10.367  0.2721  0.1729 -0.2837
  122OSM    HNF12920   1.959   4.443  10.327 -1.8526 -0.8952  0.4532
  122OSM    C2S12921   2.002   4.592  10.484  0.2155  0.2631 -0.7472
  122OSM    H2S12922   1.977   4.701  10.477 -2.1743 -0.2924 -1.9797
  122OSM    C3S12923   2.155   4.573  10.482  0.0474  0.1850  0.2798
  122OSM    H3S12924   2.177   4.465  10.486 -2.5567 -0.4285 -0.3552
  122OSM     O312925   2.222   4.614  10.599 -0.2452  0.0651 -0.5209
  122OSM    HO312926   2.149   4.625  10.661  0.6703 -0.7471  0.7471
  122OSM    C4S12927   2.217   4.642  10.366 -0.3289 -0.0791  0.0095
  122OSM    H4S12928   2.219   4.751  10.381  0.9364  0.2890 -2.3846
  122OSM    C5S12929   2.283   4.591  10.262  0.0135 -0.2015  0.2063
  122OSM    H5S12930   2.279   4.482  10.245  0.5794 -0.1730 -0.1313
  122OSM    C6S12931   2.343   4.680  10.157 -0.5173  0.6292 -0.1315
  122OSM    H6S12932   2.453   4.669  10.147 -0.6250 -0.2608 -0.3576
  122OSM    H6T12933   2.349   4.780  10.207  0.6327 -0.5698  2.3190
  122OSM    C7S12934   2.274   4.670  10.020  0.0638 -0.0421  0.2265
  122OSM    H7S12935   2.167   4.698  10.022  0.1758  0.4498 -0.5487
  122OSM    H7T12936   2.285   4.566   9.981  1.7816 -0.1437  0.8702
  122OSM    C8S12937   2.349   4.756   9.909 -0.0022  0.0241  0.0099
  122OSM    H8S12938   2.449   4.798   9.934  0.0740  0.2772 -0.7124
  122OSM    H8T12939   2.292   4.851   9.898 -1.1894 -0.8032 -1.2567
  122OSM    C9S12940   2.349   4.685   9.778  0.4312  0.8027  0.0699
  122OSM    H9S12941   2.252   4.632   9.765  1.5961 -1.5869  0.4540
  122OSM    H9T12942   2.414   4.596   9.793  0.7219  0.6219 -1.9229
  122OSM   C10S12943   2.366   4.759   9.649 -0.5164 -0.1184 -0.3507
  122OSM   H10S12944   2.466   4.806   9.637  0.0864 -1.4282 -0.7316
  122OSM   H10T12945   2.288   4.836   9.663 -3.2403 -2.4585 -1.5564
  122OSM   C11S12946   2.322   4.689   9.518  0.1365 -0.4399 -0.2207
  122OSM   H11S12947   2.243   4.614   9.538  0.2824 -0.6447 -0.3991
  122OSM   H11T12948   2.408   4.629   9.479  0.6603 -0.4819  0.9474
  122OSM   C12S12949   2.272   4.792   9.417  0.1919 -0.5267 -0.0801
  122OSM   H12S12950   2.350   4.871   9.406 -0.2302  0.2606  2.1992
  122OSM   H12T12951   2.182   4.839   9.462 -0.3274 -0.1767 -1.4260
  122OSM   C13S12952   2.244   4.726   9.287  1.1126 -0.2669 -0.6164
  122OSM   H13S12953   2.173   4.642   9.307  1.1375 -0.0255  0.5824
  122OSM   H13T12954   2.337   4.697   9.234  1.5044  0.8915 -0.5776
  122OSM   C14S12955   2.182   4.840   9.204  0.0945  0.3405 -0.7993
  122OSM   H14S12956   2.262   4.916   9.189  1.2341 -1.0822 -2.1964
  122OSM   H14T12957   2.097   4.878   9.266 -0.6282  0.3132 -1.7569
  122OSM   C15S12958   2.122   4.798   9.070 -0.0899 -0.1564 -0.0958
  122OSM   H15S12959   2.031   4.735   9.080  0.5358 -0.9663  0.6434
  122OSM   H15T12960   2.202   4.756   9.005  1.7205  2.5238  0.2346
  122OSM   C16S12961   2.069   4.916   8.990 -0.5808 -0.6075  0.7349
  122OSM   H16S12962   2.150   4.985   8.961 -2.9408  1.3961 -1.6163
  122OSM   H16T12963   1.992   4.982   9.036  2.6486  3.8501  0.3727
  122OSM   C17S12964   2.006   4.870   8.854  0.8033  0.1456 -0.9913
  122OSM   H17S12965   1.948   4.777   8.871 -1.0972  0.9640 -2.6164
  122OSM   H17T12966   2.087   4.843   8.783 -1.5967 -0.5150 -3.6566
  122OSM   C18S12967   1.934   4.980   8.777  0.2455 -0.7537 -0.1268
  122OSM   H18S12968   1.931   4.949   8.670  0.8988 -0.6779 -0.1694
  122OSM   H18T12969   1.991   5.074   8.790  0.3631 -0.8541  0.0847
  122OSM   H18U12970   1.830   4.999   8.810  0.3634  0.6390 -0.5201
  122OSM    C1F12971   1.815   4.578  10.325  0.9450  0.3494 -0.1478
  122OSM     OF12972   1.755   4.661  10.392 -0.5745 -0.2450  0.0278
  122OSM    C2F12973   1.754   4.527  10.200  0.5085 -0.0479  0.2176
  122OSM    H2F12974   1.719   4.424  10.225 -1.5895 -0.0394 -2.2672
  122OSM    H2G12975   1.829   4.512  10.120  2.4684 -1.3869  2.2004
  122OSM    C3F12976   1.634   4.608  10.148 -0.2434  0.5978 -0.2132
  122OSM    H3F12977   1.662   4.713  10.123 -0.1137 -0.0084 -2.8445
  122OSM    H3G12978   1.561   4.623  10.230 -1.3738  1.1875 -1.2979
  122OSM    C4F12979   1.565   4.538  10.024  0.1321 -0.1710 -0.6025
  122OSM    H4F12980   1.622   4.560   9.931  0.1297 -2.7562 -1.2901
  122OSM    H4G12981   1.466   4.588  10.011 -0.4596 -0.7651  1.3126
  122OSM    C5F12982   1.534   4.390  10.036 -0.4470 -0.0785 -0.2144
  122OSM    H5F12983   1.456   4.374  10.113 -0.2409  0.6537  0.1555
  122OSM    H5G12984   1.626   4.331  10.058 -0.0833 -0.0745 -1.6209
  122OSM    C6F12985   1.492   4.314   9.904  0.4575  0.3577 -0.1159
  122OSM    H6F12986   1.471   4.207   9.929 -0.6273  0.7496  0.7299
  122OSM    H6G12987   1.572   4.331   9.829  0.0888  0.2104 -0.5426
  122OSM    C7F12988   1.361   4.360   9.848  0.1913 -0.6870  0.6234
  122OSM    H7F12989   1.363   4.470   9.828 -1.7456 -0.6891  0.2078
  122OSM    H7G12990   1.289   4.352   9.932 -1.6724 -0.5844 -0.8932
  122OSM    C8F12991   1.296   4.281   9.735  0.5211 -0.8628  0.0252
  122OSM    H8F12992   1.288   4.175   9.767 -1.0269 -0.8881 -0.3748
  122OSM    H8G12993   1.363   4.299   9.648  0.2085 -1.6439 -0.3820
  122OSM    C9F12994   1.149   4.323   9.703 -0.2611 -0.4989  0.0678
  122OSM    H9F12995   1.104   4.378   9.788 -0.6362 -2.3879  1.1592
  122OSM   C10F12996   1.085   4.304   9.581 -1.5149  0.3487  0.5376
  122OSM   H10F12997   0.990   4.348   9.548 -0.0995  2.1066 -1.5565
  122OSM   C11F12998   1.159   4.240   9.472  0.0486 -0.3479 -0.4036
  122OSM   H11F12999   1.089   4.169   9.423  0.1986  0.4655 -1.8399
  122OSM   H11G13000   1.247   4.179   9.505 -0.0156 -0.8469 -1.1128
  122OSM   C12F13001   1.212   4.345   9.372 -0.5209 -0.4075  0.2447
  122OSM   H12F13002   1.277   4.425   9.415 -1.2046  1.4030 -1.8877
  122OSM   H12G13003   1.118   4.398   9.346 -0.6543  0.4648  2.3186
  122OSM   C13F13004   1.283   4.276   9.253 -0.1032 -0.2760 -0.5900
  122OSM   H13F13005   1.237   4.175   9.248 -0.3254 -0.1335 -1.4381
  122OSM   H13G13006   1.392   4.259   9.272  0.0169  0.5517 -0.4790
  122OSM   C14F13007   1.269   4.346   9.114 -0.1734 -0.4564  0.0990
  122OSM   H14F13008   1.270   4.454   9.141  1.5111 -0.8375  1.8126
  122OSM   H14G13009   1.167   4.315   9.084  0.6122 -4.7391  1.2480
  122OSM   C15F13010   1.374   4.313   9.011  0.7325  0.0072 -0.5099
  122OSM   H15F13011   1.350   4.211   8.975 -2.6852 -0.3067  2.2277
  122OSM   H15G13012   1.471   4.314   9.065  0.1637  2.3119  0.6243
  122OSM   C16F13013   1.372   4.410   8.894  0.0869  0.4371 -0.0542
  122OSM   H16F13014   1.383   4.515   8.928 -0.8792  1.3512 -2.3352
  122OSM   H16G13015   1.273   4.416   8.844 -0.0494  0.0774  0.1674
  122OSM   C17F13016   1.477   4.369   8.783 -0.3065 -0.5560  0.0453
  122OSM   H17F13017   1.452   4.416   8.686  1.0954  0.3236  0.0850
  122OSM   H17G13018   1.469   4.258   8.784  2.9991 -0.8863  0.1378
  122OSM   C18F13019   1.622   4.409   8.822 -0.9290 -0.4978 -0.1617
  122OSM   H18F13020   1.636   4.517   8.799 -1.0871 -0.5444 -0.4937
  122OSM   H18G13021   1.693   4.357   8.755 -0.1581  3.4855 -2.8363
  122OSM   H18H13022   1.630   4.397   8.932 -1.5068  0.1157 -0.0463
  123OSM      N13023   6.471   4.743   5.848  0.4325  0.7222  0.1741
  123OSM    C1513024   6.621   4.725   5.858 -0.1820  0.4933  0.4617
  123OSM   H15A13025   6.666   4.694   5.765  3.6381  1.0953  1.9227
  123OSM   H15B13026   6.643   4.650   5.932 -0.7016 -0.3854 -0.2579
  123OSM   H15C13027   6.676   4.812   5.891 -0.7203  1.0515 -0.0808
  123OSM    C1413028   6.444   4.875   5.784  0.0170 -0.1973  0.7982
  123OSM   H14A13029   6.494   4.878   5.688 -0.7125 -3.5886  0.1700
  123OSM   H14B13030   6.488   4.959   5.835  2.2436  2.5348 -4.8072
  123OSM   H14C13031   6.336   4.877   5.774  0.0531 -1.1712  0.0487
  123OSM    C1313032   6.417   4.631   5.773 -0.1084 -0.4047 -0.5137
  123OSM   H13A13033   6.411   4.648   5.667 -3.0624 -0.4155 -0.4302
  123OSM   H13B13034   6.315   4.610   5.804 -0.0489  0.1569  0.0964
  123OSM   H13C13035   6.478   4.543   5.782  3.1349  1.8683  3.7603
  123OSM    C1213036   6.428   4.740   5.995  0.1078  0.0769  0.1140
  123OSM   H12A13037   6.339   4.802   5.996 -0.9075 -1.3296  0.6460
  123OSM   H12B13038   6.501   4.795   6.052 -0.8882  0.0160  1.5011
  123OSM    C1113039   6.408   4.609   6.078  0.5553 -0.1815  0.0403
  123OSM   H11A13040   6.409   4.640   6.185  0.1266 -1.0027  0.2908
  123OSM   H11B13041   6.496   4.543   6.061  0.2286 -0.8707  0.9597
  123OSM      P13042   6.228   4.427   6.119  0.0244  0.2097 -0.4660
  123OSM    O1313043   6.081   4.454   6.139 -0.1839 -0.0058  0.3496
  123OSM    O1413044   6.269   4.301   6.052  0.5947  0.1069 -0.6331
  123OSM    O1113045   6.293   4.443   6.262 -0.4560 -0.2657 -0.3030
  123OSM    O1213046   6.282   4.544   6.034  0.4634  0.3584  0.3927
  123OSM    C1S13047   6.204   4.482   6.375 -0.2051 -0.0848  0.8777
  123OSM    H1S13048   6.116   4.415   6.382 -0.7716  0.5331 -0.0455
  123OSM    H1T13049   6.161   4.582   6.354  1.6846  0.4862 -0.5621
  123OSM     NF13050   6.178   4.489   6.613  0.4443  0.3944 -0.1215
  123OSM    HNF13051   6.142   4.571   6.657 -1.0982 -0.8932  1.1270
  123OSM    C2S13052   6.279   4.499   6.511  0.3465  0.2127 -0.2752
  123OSM    H2S13053   6.341   4.408   6.515 -0.6402 -0.6323 -2.3328
  123OSM    C3S13054   6.374   4.622   6.520 -0.6711  0.6067 -0.6916
  123OSM    H3S13055   6.323   4.715   6.488 -2.2255  0.5437  1.4262
  123OSM     O313056   6.480   4.625   6.425 -0.4770  0.4425  0.2340
  123OSM    HO313057   6.476   4.545   6.371 -0.7949  0.6307 -0.0236
  123OSM    C4S13058   6.429   4.635   6.665  0.0649  0.8538 -0.7683
  123OSM    H4S13059   6.502   4.558   6.695 -1.3862 -0.5610 -0.7464
  123OSM    C5S13060   6.383   4.720   6.751  0.2449  0.0840 -0.5239
  123OSM    H5S13061   6.310   4.797   6.725 -2.7605 -1.4630  2.5603
  123OSM    C6S13062   6.441   4.733   6.889  0.3343 -0.0976  0.5730
  123OSM    H6S13063   6.378   4.670   6.956 -0.4384  0.0251 -0.0226
  123OSM    H6T13064   6.424   4.833   6.934  0.5672  0.9815 -1.6271
  123OSM    C7S13065   6.579   4.692   6.922 -0.6615 -0.0420 -0.8516
  123OSM    H7S13066   6.654   4.758   6.873 -1.7941  0.6083 -1.7513
  123OSM    H7T13067   6.613   4.591   6.890  2.5243  1.0643 -1.3310
  123OSM    C8S13068   6.605   4.710   7.072  0.7060  0.3812 -0.1509
  123OSM    H8S13069   6.551   4.631   7.128 -0.5741  1.0659 -0.3750
  123OSM    H8T13070   6.568   4.809   7.107 -2.0148 -0.6722  0.1607
  123OSM    C9S13071   6.758   4.683   7.095 -0.6961  0.5117  0.2484
  123OSM    H9S13072   6.805   4.757   7.028  0.3715  1.3368  1.8383
  123OSM    H9T13073   6.788   4.583   7.058 -0.2895  0.8608 -0.3762
  123OSM   C10S13074   6.821   4.719   7.232  0.0805  0.3044 -0.6612
  123OSM   H10S13075   6.776   4.820   7.242  1.2804  1.0264 -1.9924
  123OSM   H10T13076   6.932   4.727   7.222  0.1789  1.4945  0.9484
  123OSM   C11S13077   6.779   4.616   7.336  0.4710  0.0434 -0.1732
  123OSM   H11S13078   6.809   4.515   7.300 -1.0441 -0.1942 -0.8498
  123OSM   H11T13079   6.670   4.615   7.362  0.9101 -0.1501  1.8336
  123OSM   C12S13080   6.843   4.638   7.477  0.6394 -0.5423 -0.1326
  123OSM   H12S13081   6.798   4.725   7.532  0.2436 -0.8399  0.0232
  123OSM   H12T13082   6.951   4.644   7.455  0.6726  0.5324  0.2554
  123OSM   C13S13083   6.828   4.503   7.553 -0.2916 -0.1255  0.6217
  123OSM   H13S13084   6.857   4.424   7.480 -0.5883 -0.0805  0.4501
  123OSM   H13T13085   6.724   4.484   7.588  0.8835 -1.4974  3.7018
  123OSM   C14S13086   6.902   4.496   7.687 -0.6488 -0.6084 -0.1016
  123OSM   H14S13087   6.847   4.446   7.769  1.4233 -0.8742  1.1991
  123OSM   H14T13088   6.918   4.602   7.718  2.8997 -1.3277  1.0486
  123OSM   C15S13089   7.041   4.429   7.670  0.6942 -0.0602 -1.3141
  123OSM   H15S13090   7.092   4.482   7.587 -1.4104  1.3197 -1.7858
  123OSM   H15T13091   7.030   4.320   7.651 -0.0250  0.0194 -1.3815
  123OSM   C16S13092   7.121   4.448   7.799  0.0264  0.7189 -0.8145
  123OSM   H16S13093   7.068   4.408   7.889  1.8812 -1.4117 -0.5583
  123OSM   H16T13094   7.127   4.558   7.806 -0.8299  0.7985 -1.2370
  123OSM   C17S13095   7.260   4.371   7.791  0.6631 -0.0450 -0.2414
  123OSM   H17S13096   7.315   4.410   7.703  1.5806  0.2684  0.4534
  123OSM   H17T13097   7.259   4.261   7.773 -2.1157 -0.0605 -0.4352
  123OSM   C18S13098   7.352   4.384   7.917  0.8135  0.5029 -0.7315
  123OSM   H18S13099   7.391   4.487   7.931 -1.1832  1.4315 -1.5747
  123OSM   H18T13100   7.445   4.325   7.901  2.0359  2.0834  0.3573
  123OSM   H18U13101   7.298   4.347   8.007 -0.6748  0.3874 -1.6316
  123OSM    C1F13102   6.132   4.375   6.666  0.0247 -0.1135  0.1802
  123OSM     OF13103   6.155   4.265   6.623 -0.3079  0.6092 -0.0438
  123OSM    C2F13104   6.033   4.390   6.777 -0.1503  0.2043 -0.6576
  123OSM    H2F13105   5.940   4.335   6.752 -0.8540  0.7814  0.5973
  123OSM    H2G13106   6.010   4.499   6.785  1.7517  0.8156 -2.5699
  123OSM    C3F13107   6.091   4.336   6.912  0.3140 -0.5851  0.1216
  123OSM    H3F13108   6.179   4.402   6.930 -0.1648  0.0435  0.1920
  123OSM    H3G13109   6.126   4.231   6.919 -3.5176 -1.9737  0.4590
  123OSM    C4F13110   5.990   4.366   7.028 -0.3411 -0.8511  0.2227
  123OSM    H4F13111   5.905   4.295   7.029 -1.3242  0.2823  2.3300
  123OSM    H4G13112   5.937   4.463   7.022 -1.1465 -1.3194 -0.3638
  123OSM    C5F13113   6.060   4.378   7.160 -0.4472  0.4155  0.4451
  123OSM    H5F13114   6.131   4.463   7.165 -0.4608  0.7010 -2.4935
  123OSM    H5G13115   6.120   4.285   7.173 -0.3943  0.2749 -0.7357
  123OSM    C6F13116   5.970   4.386   7.287  0.2005  0.6669 -0.8372
  123OSM    H6F13117   5.896   4.303   7.275 -0.0517  0.4847  1.4655
  123OSM    H6G13118   5.900   4.471   7.270  0.7158  1.0222 -1.1931
  123OSM    C7F13119   6.049   4.378   7.420  0.2218 -0.3568  0.1295
  123OSM    H7F13120   5.981   4.407   7.503  2.5437  1.6132  1.4862
  123OSM    H7G13121   6.131   4.453   7.427 -0.2290  0.0405  1.7026
  123OSM    C8F13122   6.103   4.238   7.453 -0.5943  0.5515 -0.9684
  123OSM    H8F13123   6.184   4.214   7.381 -1.4223 -1.3382 -1.3302
  123OSM    H8G13124   6.017   4.170   7.440 -0.0744 -0.2507 -0.3554
  123OSM    C9F13125   6.162   4.224   7.593 -0.4385 -0.0771 -0.2398
  123OSM    H9F13126   6.086   4.195   7.667 -0.7197  0.5519 -0.2807
  123OSM   C10F13127   6.291   4.235   7.624  0.5782 -0.7354  0.3074
  123OSM   H10F13128   6.327   4.234   7.728  1.9723  1.3690 -0.0720
  123OSM   C11F13129   6.405   4.259   7.523  0.1519  0.1032 -0.1573
  123OSM   H11F13130   6.448   4.358   7.551 -0.7198  0.8187 -1.2541
  123OSM   H11G13131   6.393   4.257   7.413 -0.4965  1.1004 -0.1175
  123OSM   C12F13132   6.506   4.147   7.535  1.3640  0.5616 -0.1281
  123OSM   H12F13133   6.589   4.139   7.462  0.1278 -1.1960 -1.4204
  123OSM   H12G13134   6.462   4.046   7.521  2.9391 -0.2292  0.3214
  123OSM   C13F13135   6.584   4.137   7.673  0.4179 -0.4757 -0.2904
  123OSM   H13F13136   6.515   4.157   7.757 -0.5530 -0.7362 -1.0048
  123OSM   H13G13137   6.645   4.230   7.676 -0.3723  0.0284  0.7312
  123OSM   C14F13138   6.651   4.005   7.690  0.0689  0.7148 -0.2891
  123OSM   H14F13139   6.708   3.983   7.597 -2.8772  0.7611 -2.2034
  123OSM   H14G13140   6.571   3.928   7.690 -0.3952  1.1894  0.0211
  123OSM   C15F13141   6.725   3.984   7.823 -0.3292 -0.0271  0.2578
  123OSM   H15F13142   6.751   3.876   7.833 -0.8484 -0.1119  0.7735
  123OSM   H15G13143   6.649   4.015   7.897 -1.7820 -0.0795 -1.1647
  123OSM   C16F13144   6.848   4.069   7.846 -0.8180  0.2073 -0.1614
  123OSM   H16F13145   6.830   4.176   7.822 -1.2058  0.1724 -0.0208
  123OSM   H16G13146   6.924   4.033   7.773 -0.9623 -0.0989 -0.1643
  123OSM   C17F13147   6.906   4.046   7.978  0.2637 -0.0917 -1.0523
  123OSM   H17F13148   6.927   3.938   7.998  1.0710  0.5084  1.6805
  123OSM   H17G13149   6.826   4.075   8.048  1.0592 -0.0332 -0.1505
  123OSM   C18F13150   7.032   4.130   8.033  0.1588 -0.1016  0.1579
  123OSM   H18F13151   7.042   4.138   8.144  0.3303  2.5769  0.0162
  123OSM   H18G13152   7.024   4.236   8.002 -0.6851 -0.1144  0.3095
  123OSM   H18H13153   7.133   4.098   7.999  0.6684  1.3155  0.2920
  124OSM      N13154   6.351   2.611   6.124 -0.0679 -0.1200 -0.2536
  124OSM    C1513155   6.231   2.640   6.044  0.2932  0.4962  0.7631
  124OSM   H15A13156   6.139   2.663   6.097 -1.0212 -0.6388 -0.9187
  124OSM   H15B13157   6.203   2.555   5.984 -0.3199 -0.6124  2.5273
  124OSM   H15C13158   6.251   2.725   5.980  1.7270  0.3086  0.9375
  124OSM    C1413159   6.309   2.504   6.231  0.6247 -0.6399 -0.2525
  124OSM   H14A13160   6.375   2.503   6.317 -0.4431  2.6875  0.7527
  124OSM   H14B13161   6.309   2.409   6.179  2.5629 -1.4590  1.1244
  124OSM   H14C13162   6.208   2.526   6.263  0.6865  2.9066 -2.0231
  124OSM    C1313163   6.449   2.549   6.036  0.2849  0.1536  0.6348
  124OSM   H13A13164   6.540   2.523   6.087  1.2239  1.1511 -0.4780
  124OSM   H13B13165   6.480   2.631   5.972 -1.1751 -0.3113 -0.7613
  124OSM   H13C13166   6.410   2.462   5.986  1.1584 -1.1709  2.1976
  124OSM    C1213167   6.404   2.737   6.190  0.0176 -0.1476 -0.0682
  124OSM   H12A13168   6.477   2.706   6.264  0.8764  1.6809 -0.0749
  124OSM   H12B13169   6.331   2.786   6.252  0.1099 -0.0862 -0.0065
  124OSM    C1113170   6.450   2.848   6.097  0.4792  0.1641  0.3716
  124OSM   H11A13171   6.460   2.942   6.155 -1.5482 -0.0278  1.1034
  124OSM   H11B13172   6.372   2.877   6.022  0.8418 -1.4942 -0.7063
  124OSM      P13173   6.712   2.822   6.084 -0.5234  0.0531 -0.6054
  124OSM    O1313174   6.793   2.714   6.019  0.5935 -0.1547 -0.4025
  124OSM    O1413175   6.759   2.962   6.066  0.0612  0.3326  0.3017
  124OSM    O1113176   6.686   2.791   6.237 -0.0092  0.8171  0.4339
  124OSM    O1213177   6.565   2.804   6.028 -0.5557  0.6241  0.0279
  124OSM    C1S13178   6.789   2.765   6.334  0.4430  0.2985  0.3099
  124OSM    H1S13179   6.895   2.761   6.298  0.1138 -0.8450 -0.5981
  124OSM    H1T13180   6.775   2.659   6.364 -3.0956  0.1628 -1.3185
  124OSM     NF13181   6.911   2.828   6.530 -0.1392  0.4803 -0.9138
  124OSM    HNF13182   6.915   2.752   6.594 -0.6787  0.3845 -0.9891
  124OSM    C2S13183   6.785   2.856   6.462  0.6307 -0.2419  0.3217
  124OSM    H2S13184   6.786   2.961   6.425  2.0224 -0.4068 -0.1725
  124OSM    C3S13185   6.654   2.839   6.542  0.1378 -0.1240  0.4743
  124OSM    H3S13186   6.646   2.734   6.579 -1.7998 -0.2467 -0.1750
  124OSM     O313187   6.533   2.859   6.465 -0.1752 -0.3053 -0.0357
  124OSM    HO313188   6.572   2.858   6.378  1.1303  0.6732  0.5049
  124OSM    C4S13189   6.660   2.946   6.651  0.7022  0.1915  0.8880
  124OSM    H4S13190   6.707   3.040   6.618 -1.1450 -0.0367 -2.8930
  124OSM    C5S13191   6.613   2.920   6.773 -0.2140  0.0906  0.2646
  124OSM    H5S13192   6.573   2.818   6.781 -1.0652  0.4543  0.6350
  124OSM    C6S13193   6.602   3.012   6.893 -0.4667 -0.0970  0.2268
  124OSM    H6S13194   6.692   2.987   6.953  0.5461  0.0785 -1.1848
  124OSM    H6T13195   6.511   2.980   6.949  0.6865 -2.1645  1.0010
  124OSM    C7S13196   6.595   3.165   6.877  0.3858 -0.3124  0.1455
  124OSM    H7S13197   6.510   3.183   6.808 -0.6879  0.0767  1.5161
  124OSM    H7T13198   6.686   3.201   6.825 -1.3181 -0.1919 -3.0432
  124OSM    C8S13199   6.584   3.237   7.019  1.0619 -0.2983  0.7623
  124OSM    H8S13200   6.481   3.210   7.052  1.4197 -0.0787  2.1193
  124OSM    H8T13201   6.575   3.346   6.999 -2.0037 -0.7572 -1.0484
  124OSM    C9S13202   6.696   3.207   7.113 -0.3152 -0.0165 -0.3245
  124OSM    H9S13203   6.794   3.242   7.073  1.5942 -4.2817  0.0245
  124OSM    H9T13204   6.712   3.100   7.138  0.4889  0.7305  2.7274
  124OSM   C10S13205   6.670   3.258   7.259  0.9190 -0.3514  0.2372
  124OSM   H10S13206   6.588   3.199   7.304  0.7796 -1.1587 -1.0276
  124OSM   H10T13207   6.655   3.368   7.263 -0.8303 -0.5738  0.2017
  124OSM   C11S13208   6.781   3.224   7.365 -0.7720 -0.2240 -1.0354
  124OSM   H11S13209   6.796   3.115   7.371  1.0855 -0.0750 -2.2665
  124OSM   H11T13210   6.754   3.254   7.469  1.7146 -0.0408 -0.3703
  124OSM   C12S13211   6.914   3.299   7.341  0.5649  0.0284  0.6415
  124OSM   H12S13212   6.914   3.408   7.321  1.6929 -0.3553 -1.7691
  124OSM   H12T13213   6.952   3.257   7.245  0.3502  0.4398  0.3795
  124OSM   C13S13214   7.035   3.271   7.434 -0.3153  0.5847 -0.0952
  124OSM   H13S13215   7.015   3.301   7.539 -0.4627 -0.2227  0.1187
  124OSM   H13T13216   7.115   3.330   7.384 -0.3674  0.9874  0.2988
  124OSM   C14S13217   7.079   3.121   7.424  0.3392 -0.0075 -0.0778
  124OSM   H14S13218   7.058   3.081   7.323  1.3913 -2.4972  0.6354
  124OSM   H14T13219   7.019   3.059   7.494  0.6459 -0.6269 -0.3583
  124OSM   C15S13220   7.229   3.096   7.457  0.5662  0.0296 -0.1321
  124OSM   H15S13221   7.292   3.168   7.401 -1.3874  1.1480 -0.9971
  124OSM   H15T13222   7.252   2.993   7.421 -1.9967 -0.7781  0.3296
  124OSM   C16S13223   7.262   3.106   7.609 -0.2501 -0.0834  0.5253
  124OSM   H16S13224   7.175   3.087   7.676 -0.1668  1.4051  1.0880
  124OSM   H16T13225   7.290   3.213   7.620  0.2618 -0.2958  1.4295
  124OSM   C17S13226   7.377   3.020   7.656 -0.0185  0.3019  0.3469
  124OSM   H17S13227   7.456   3.025   7.579  3.0453 -1.6860  3.0942
  124OSM   H17T13228   7.355   2.911   7.650 -0.8828  0.5070 -0.4352
  124OSM   C18S13229   7.432   3.040   7.798 -0.8694  0.1028  0.1321
  124OSM   H18S13230   7.355   3.019   7.874  0.0867  3.3846  2.2243
  124OSM   H18T13231   7.465   3.146   7.802 -1.4266  0.2525  0.8802
  124OSM   H18U13232   7.512   2.965   7.816 -0.8277  0.5485  1.9131
  124OSM    C1F13233   7.027   2.880   6.492  0.3722 -0.4646  0.1243
  124OSM     OF13234   7.034   2.941   6.383 -0.5291 -0.0748 -0.1564
  124OSM    C2F13235   7.149   2.849   6.569 -0.1229 -0.7983  0.0427
  124OSM    H2F13236   7.178   2.748   6.532  2.7868  0.4950 -1.6449
  124OSM    H2G13237   7.123   2.852   6.677  0.8691  3.1547  0.3293
  124OSM    C3F13238   7.280   2.934   6.543 -0.0944 -0.4632  0.3032
  124OSM    H3F13239   7.268   3.038   6.579  2.5757  0.2220 -0.5087
  124OSM    H3G13240   7.293   2.942   6.433 -0.1737 -1.3021  0.2289
  124OSM    C4F13241   7.410   2.864   6.597 -0.0565 -0.4529 -0.5848
  124OSM    H4F13242   7.500   2.929   6.588 -0.9035  0.7832 -0.4749
  124OSM    H4G13243   7.423   2.765   6.549  3.0462 -0.6131  0.3877
  124OSM    C5F13244   7.403   2.826   6.745  0.2841  0.0940 -0.1817
  124OSM    H5F13245   7.463   2.734   6.765 -0.5448  0.0284  2.3661
  124OSM    H5G13246   7.299   2.805   6.776  1.0826 -0.3072  2.4547
  124OSM    C6F13247   7.460   2.928   6.836  0.1132 -0.8097  0.2474
  124OSM    H6F13248   7.418   3.030   6.819  3.0364  0.1691 -2.1756
  124OSM    H6G13249   7.570   2.934   6.819  0.2202  3.9079  1.1246
  124OSM    C7F13250   7.439   2.894   6.978  0.0859 -0.5957 -0.5445
  124OSM    H7F13251   7.442   2.783   6.975  1.1878 -0.5804 -0.4666
  124OSM    H7G13252   7.349   2.945   7.020  1.1548 -0.8677  2.3748
  124OSM    C8F13253   7.552   2.950   7.057 -0.4713 -0.5933 -0.2366
  124OSM    H8F13254   7.563   3.051   7.012 -0.8411 -0.9112 -1.0612
  124OSM    H8G13255   7.642   2.892   7.029  0.1576  0.9028 -1.4925
  124OSM    C9F13256   7.526   2.969   7.210 -0.2205 -0.1396 -1.0018
  124OSM    H9F13257   7.446   3.044   7.219 -2.4474 -2.4047 -0.5255
  124OSM   C10F13258   7.574   2.909   7.319 -0.3378  0.0979 -0.1216
  124OSM   H10F13259   7.545   2.943   7.420  0.2806  0.7417 -0.1552
  124OSM   C11F13260   7.673   2.797   7.322 -0.3836 -0.0585 -0.5653
  124OSM   H11F13261   7.774   2.830   7.355 -0.6395 -0.6165  0.8529
  124OSM   H11G13262   7.697   2.758   7.220  2.8377 -0.5604  0.2702
  124OSM   C12F13263   7.632   2.683   7.421 -0.3163 -0.1534  0.2695
  124OSM   H12F13264   7.697   2.595   7.403 -1.3270 -1.0754  0.9632
  124OSM   H12G13265   7.528   2.654   7.392 -0.7852  0.4966  1.2378
  124OSM   C13F13266   7.624   2.714   7.575 -0.3018 -0.0226 -0.2944
  124OSM   H13F13267   7.573   2.634   7.631  1.0087 -0.3927  0.4011
  124OSM   H13G13268   7.571   2.812   7.583 -2.2982 -0.8570 -2.1130
  124OSM   C14F13269   7.767   2.724   7.632  0.6925 -0.1370  0.0858
  124OSM   H14F13270   7.803   2.825   7.602 -0.0834  0.0940 -0.0841
  124OSM   H14G13271   7.832   2.642   7.595  1.1288  0.1758  0.1462
  124OSM   C15F13272   7.760   2.715   7.788  0.4838  0.5218  0.0839
  124OSM   H15F13273   7.734   2.612   7.821 -1.1772  0.8738 -0.0564
  124OSM   H15G13274   7.681   2.788   7.818 -0.9247 -1.9669  2.8847
  124OSM   C16F13275   7.879   2.764   7.872 -0.0774  0.0152  0.0817
  124OSM   H16F13276   7.946   2.831   7.813 -1.0842 -1.0421 -2.3633
  124OSM   H16G13277   7.933   2.670   7.897  0.3162  0.3822  0.6514
  124OSM   C17F13278   7.841   2.856   7.988  0.7215 -0.0941  0.1808
  124OSM   H17F13279   7.762   2.927   7.956 -1.8500 -1.3172  3.2316
  124OSM   H17G13280   7.933   2.911   8.015  0.5153 -0.1527  1.0431
  124OSM   C18F13281   7.804   2.777   8.110  0.3275 -0.2589 -0.1603
  124OSM   H18F13282   7.826   2.834   8.202 -1.4385  0.2909 -0.0486
  124OSM   H18G13283   7.871   2.689   8.123 -1.3935 -1.4115  1.6109
  124OSM   H18H13284   7.698   2.742   8.108 -0.5414  2.1112  0.7706
  125OSM      N13285   1.783   4.403   6.077 -0.0920 -0.0701  0.0044
  125OSM    C1513286   1.854   4.346   5.965  0.5245 -0.0029 -0.2485
  125OSM   H15A13287   1.958   4.330   5.987  0.8495  0.7736 -1.1557
  125OSM   H15B13288   1.865   4.416   5.884  0.1278  0.3283 -0.0211
  125OSM   H15C13289   1.817   4.251   5.928 -1.3301 -0.3772  2.2843
  125OSM    C1413290   1.875   4.506   6.143  0.1340  0.9332  0.1644
  125OSM   H14A13291   1.836   4.551   6.233  0.2431  0.2509  0.5681
  125OSM   H14B13292   1.896   4.580   6.068 -0.3032  1.1938  0.2968
  125OSM   H14C13293   1.966   4.450   6.162 -0.6681 -0.0825  1.1524
  125OSM    C1313294   1.656   4.458   6.028  0.3905 -0.4064 -0.5932
  125OSM   H13A13295   1.658   4.482   5.923  1.0727 -0.6735 -0.6458
  125OSM   H13B13296   1.626   4.541   6.090 -1.3730 -1.2383 -0.2579
  125OSM   H13C13297   1.576   4.385   6.027 -1.8539  1.8697  0.5462
  125OSM    C1213298   1.755   4.296   6.172 -0.4142 -0.5865 -0.4965
  125OSM   H12A13299   1.732   4.202   6.124 -1.4593 -0.0567 -1.0686
  125OSM   H12B13300   1.660   4.324   6.216 -0.5389  1.4489 -1.9097
  125OSM    C1113301   1.854   4.273   6.289  0.7943  0.0816 -0.3028
  125OSM   H11A13302   1.805   4.201   6.358  0.7996  0.3348 -0.0337
  125OSM   H11B13303   1.859   4.365   6.351  2.0902  0.6253 -1.1461
  125OSM      P13304   2.019   4.082   6.251 -0.3712 -0.4955  0.2577
  125OSM    O1313305   1.904   4.011   6.198 -0.2302  0.6933  0.5642
  125OSM    O1413306   2.146   4.072   6.170  0.4023  0.0717 -0.1899
  125OSM    O1113307   2.049   4.059   6.401 -0.5906  0.3269 -0.1692
  125OSM    O1213308   1.982   4.228   6.249  0.6404  0.3747  0.5064
  125OSM    C1S13309   2.175   4.114   6.459  0.3977 -0.8594  0.5062
  125OSM    H1S13310   2.193   4.219   6.428  0.1798 -1.0221 -0.1937
  125OSM    H1T13311   2.263   4.056   6.424 -0.8737 -2.2599 -0.5016
  125OSM     NF13312   2.284   4.174   6.671 -0.3943  0.4052  0.3048
  125OSM    HNF13313   2.357   4.120   6.712  0.7181  3.3909  2.6112
  125OSM    C2S13314   2.163   4.112   6.614  0.4260  0.1128 -0.1735
  125OSM    H2S13315   2.080   4.181   6.641  1.1499  1.5994 -1.6029
  125OSM    C3S13316   2.130   3.973   6.669  0.2219 -0.2354  0.0454
  125OSM    H3S13317   2.212   3.899   6.656 -0.4181 -0.9757  0.1359
  125OSM     O313318   2.011   3.920   6.600  0.5215 -0.3217  0.2218
  125OSM    HO313319   1.997   3.986   6.531  0.5100  0.2735  0.7843
  125OSM    C4S13320   2.099   3.982   6.818 -0.2328  0.1538 -0.9031
  125OSM    H4S13321   2.009   4.040   6.843  0.5490  0.0943  2.6261
  125OSM    C5S13322   2.166   3.934   6.922  0.0700  0.4178 -0.2964
  125OSM    H5S13323   2.267   3.900   6.892 -0.1381 -0.0494 -0.4625
  125OSM    C6S13324   2.126   3.944   7.070 -0.3259 -0.2144 -0.4359
  125OSM    H6S13325   2.148   3.855   7.133  0.4274  0.1478 -0.1723
  125OSM    H6T13326   2.018   3.968   7.073  0.0229  1.8083 -1.5652
  125OSM    C7S13327   2.193   4.067   7.140  1.2911  0.0411  0.2768
  125OSM    H7S13328   2.184   4.147   7.064 -1.6593 -1.9930 -1.7490
  125OSM    H7T13329   2.300   4.041   7.158  0.7382 -1.8199  1.1935
  125OSM    C8S13330   2.117   4.096   7.277  0.0049  0.4051  0.7231
  125OSM    H8S13331   2.010   4.089   7.249 -0.3863  0.7868  2.0306
  125OSM    H8T13332   2.116   4.202   7.310 -0.4761  0.4546  0.5477
  125OSM    C9S13333   2.160   4.008   7.394 -0.9549 -0.0945 -0.6364
  125OSM    H9S13334   2.261   4.045   7.424 -0.2829 -1.3628 -1.2481
  125OSM    H9T13335   2.177   3.902   7.366  3.7150  0.1057  0.5593
  125OSM   C10S13336   2.064   4.020   7.517 -0.5167 -0.4788  0.1252
  125OSM   H10S13337   2.019   4.120   7.533 -1.6982 -0.9352 -0.2918
  125OSM   H10T13338   2.122   4.003   7.611  1.1346  3.4678  0.0283
  125OSM   C11S13339   1.953   3.912   7.513  0.3223  0.1295 -1.1121
  125OSM   H11S13340   1.979   3.807   7.488 -0.0796 -0.7106  1.7079
  125OSM   H11T13341   1.886   3.944   7.430 -2.6710 -1.1772  0.6100
  125OSM   C12S13342   1.866   3.905   7.637 -0.0148 -0.5408  0.0896
  125OSM   H12S13343   1.777   3.843   7.613  0.0825  0.1901 -2.5917
  125OSM   H12T13344   1.829   4.008   7.658  0.8578 -0.8062  3.3344
  125OSM   C13S13345   1.942   3.852   7.760  1.2221 -0.5566 -0.4664
  125OSM   H13S13346   2.020   3.926   7.790 -0.6005  0.9595  0.7853
  125OSM   H13T13347   1.989   3.758   7.724 -0.8264 -1.1676 -1.7046
  125OSM   C14S13348   1.860   3.828   7.892  0.7066 -0.3279  0.0299
  125OSM   H14S13349   1.812   3.920   7.933 -2.0372 -1.5809 -0.1483
  125OSM   H14T13350   1.937   3.781   7.957  1.3928 -1.4548 -1.5583
  125OSM   C15S13351   1.745   3.729   7.892 -0.0737 -0.3018  0.3364
  125OSM   H15S13352   1.786   3.636   7.848 -3.6425 -1.2817 -1.3243
  125OSM   H15T13353   1.676   3.759   7.810  0.8409 -0.3251 -0.4519
  125OSM   C16S13354   1.666   3.708   8.020 -0.0660 -0.3317  0.0639
  125OSM   H16S13355   1.575   3.646   8.004 -0.3235 -0.1471  0.7744
  125OSM   H16T13356   1.634   3.805   8.063  1.6967  0.5091 -0.4285
  125OSM   C17S13357   1.754   3.645   8.131  0.2947  0.3569 -0.3054
  125OSM   H17S13358   1.839   3.714   8.154  1.0276 -1.0698  1.4897
  125OSM   H17T13359   1.812   3.560   8.089 -0.5348 -0.3100 -0.1092
  125OSM   C18S13360   1.686   3.608   8.265  0.2785  0.5343 -0.2763
  125OSM   H18S13361   1.615   3.525   8.250  0.8944 -0.1126  0.3114
  125OSM   H18T13362   1.623   3.692   8.303  0.9994  1.5134 -1.1751
  125OSM   H18U13363   1.756   3.581   8.347  1.3310 -0.2913 -1.4002
  125OSM    C1F13364   2.313   4.300   6.668  0.2984 -0.2193  0.2608
  125OSM     OF13365   2.228   4.382   6.636 -0.1604  0.4249  0.0813
  125OSM    C2F13366   2.456   4.346   6.693  0.8631 -0.1585 -0.0328
  125OSM    H2F13367   2.497   4.377   6.594  1.7963  1.0347  0.7083
  125OSM    H2G13368   2.518   4.264   6.733  2.6678  0.3808 -1.5516
  125OSM    C3F13369   2.447   4.471   6.777 -0.3200 -0.0710  0.0218
  125OSM    H3F13370   2.391   4.553   6.726  0.1378  0.0477 -0.2933
  125OSM    H3G13371   2.554   4.496   6.790 -0.4925  1.8091 -1.6287
  125OSM    C4F13372   2.382   4.432   6.916 -0.5146 -0.3716  0.1578
  125OSM    H4F13373   2.425   4.335   6.949  1.1531  0.1128 -0.5287
  125OSM    H4G13374   2.274   4.425   6.889 -0.4876  0.4726 -0.2073
  125OSM    C5F13375   2.411   4.535   7.024 -0.3984  0.4652  0.0362
  125OSM    H5F13376   2.350   4.626   7.008  1.8233  2.4019  1.8511
  125OSM    H5G13377   2.514   4.574   7.014 -1.0406  1.8997 -1.5644
  125OSM    C6F13378   2.379   4.487   7.166 -0.1018 -0.8453  0.5715
  125OSM    H6F13379   2.387   4.576   7.232 -1.1656  0.7013 -1.2828
  125OSM    H6G13380   2.465   4.418   7.180 -0.1220 -0.9643  0.1296
  125OSM    C7F13381   2.236   4.426   7.188  0.3970  0.0069 -0.5095
  125OSM    H7F13382   2.232   4.356   7.274  0.5231 -1.1803 -1.4276
  125OSM    H7G13383   2.212   4.365   7.097 -1.1324  1.7169 -1.3240
  125OSM    C8F13384   2.114   4.527   7.197 -0.9242  0.2432 -0.2698
  125OSM    H8F13385   2.032   4.460   7.231 -0.4072 -0.2532  0.0297
  125OSM    H8G13386   2.078   4.562   7.099 -4.2777 -0.4458  0.5837
  125OSM    C9F13387   2.123   4.647   7.293 -0.3038 -0.0415  0.1036
  125OSM    H9F13388   2.112   4.751   7.260 -2.2349  1.0511  3.7277
  125OSM   C10F13389   2.148   4.627   7.421  0.0996 -0.3634 -0.1614
  125OSM   H10F13390   2.150   4.712   7.491  0.8662 -1.0051  0.6178
  125OSM   C11F13391   2.161   4.500   7.498  0.1883  0.3753 -0.7042
  125OSM   H11F13392   2.249   4.434   7.478 -0.4222 -0.6946  0.0555
  125OSM   H11G13393   2.069   4.442   7.479  0.7217 -1.6846  2.3908
  125OSM   C12F13394   2.143   4.531   7.650  0.0111 -0.2410 -0.3538
  125OSM   H12F13395   2.062   4.599   7.685 -0.4677 -0.0088 -1.8554
  125OSM   H12G13396   2.230   4.591   7.682 -1.6766  1.5564  1.0685
  125OSM   C13F13397   2.154   4.401   7.726  0.7118  0.0406  0.1619
  125OSM   H13F13398   2.236   4.335   7.689 -1.2859 -2.2220 -0.5151
  125OSM   H13G13399   2.065   4.350   7.682  0.7127  1.5385 -1.7100
  125OSM   C14F13400   2.150   4.410   7.883  0.3190  0.6641 -0.7623
  125OSM   H14F13401   2.120   4.308   7.915 -0.2526  0.3842 -2.1252
  125OSM   H14G13402   2.067   4.480   7.910  0.3257  0.6232 -0.6358
  125OSM   C15F13403   2.278   4.454   7.950 -0.6068  0.3013 -1.0368
  125OSM   H15F13404   2.301   4.560   7.924 -0.8422  0.0602 -2.2922
  125OSM   H15G13405   2.363   4.392   7.915  0.1243 -1.0037  2.5892
  125OSM   C16F13406   2.260   4.436   8.102 -0.1325  0.6221 -0.3716
  125OSM   H16F13407   2.214   4.336   8.119 -0.5702  1.0392  0.9690
  125OSM   H16G13408   2.181   4.502   8.145 -1.4188 -0.7119 -0.6034
  125OSM   C17F13409   2.395   4.432   8.185  0.3909 -0.6762  0.6411
  125OSM   H17F13410   2.362   4.435   8.291  0.0176  1.4938  0.5129
  125OSM   H17G13411   2.453   4.519   8.148 -2.8122  1.8249  1.0483
  125OSM   C18F13412   2.479   4.304   8.163  0.3665 -0.2376 -0.0605
  125OSM   H18F13413   2.410   4.217   8.159  1.9753 -2.0537  4.4114
  125OSM   H18G13414   2.546   4.269   8.244 -0.4451  2.0477  1.7050
  125OSM   H18H13415   2.535   4.311   8.068 -0.1025 -0.7089 -0.3779
  126OSM      N13416   4.397   2.662   6.296 -0.2354  0.2529  0.0624
  126OSM    C1513417   4.287   2.583   6.243 -0.2254  0.1977 -0.8808
  126OSM   H15A13418   4.222   2.561   6.327  1.2560  2.1793  0.8881
  126OSM   H15B13419   4.320   2.485   6.209  0.5222 -0.4354  1.4722
  126OSM   H15C13420   4.227   2.620   6.162  0.9204  1.0444 -1.3617
  126OSM    C1413421   4.510   2.670   6.190  0.5725  0.3207  0.5478
  126OSM   H14A13422   4.559   2.573   6.187  1.6180  0.8566 -2.5483
  126OSM   H14B13423   4.581   2.746   6.219  3.0693 -2.6811  3.0213
  126OSM   H14C13424   4.467   2.685   6.092  0.1334  0.1553  0.7105
  126OSM    C1313425   4.344   2.810   6.312 -0.1963 -0.5141 -0.4107
  126OSM   H13A13426   4.271   2.816   6.390  1.1843  0.1519  0.8881
  126OSM   H13B13427   4.305   2.858   6.223 -1.0432 -0.6220 -0.0990
  126OSM   H13C13428   4.426   2.878   6.333 -2.3321  1.0913  3.8511
  126OSM    C1213429   4.461   2.609   6.429  0.4566 -0.2649  0.9777
  126OSM   H12A13430   4.563   2.642   6.442  0.5697 -1.0279  2.1965
  126OSM   H12B13431   4.464   2.504   6.406 -2.4714 -0.4834  1.3106
  126OSM    C1113432   4.375   2.615   6.565 -0.9110 -0.1208  0.6274
  126OSM   H11A13433   4.372   2.722   6.593 -0.0626  0.4662 -1.3755
  126OSM   H11B13434   4.430   2.569   6.650 -0.0022 -1.8117 -0.7907
  126OSM      P13435   4.212   2.421   6.550 -0.4123  0.5115  0.0000
  126OSM    O1313436   4.065   2.414   6.521 -0.3364  0.2363 -0.7619
  126OSM    O1413437   4.301   2.347   6.459  0.1804  0.4305  0.0171
  126OSM    O1113438   4.243   2.372   6.696 -0.2847  0.1244 -0.2300
  126OSM    O1213439   4.242   2.572   6.548  0.3122 -0.1576  0.8344
  126OSM    C1S13440   4.184   2.437   6.808  0.3926 -0.2012  0.1165
  126OSM    H1S13441   4.074   2.419   6.808  0.3052  0.3019 -0.4848
  126OSM    H1T13442   4.199   2.547   6.809  0.8683 -0.2628  1.3973
  126OSM     NF13443   4.159   2.445   7.054 -0.0688  0.0264 -0.3500
  126OSM    HNF13444   4.190   2.518   7.115 -3.2048  0.0327  1.4537
  126OSM    C2S13445   4.245   2.393   6.946 -0.7179 -0.6587 -0.5097
  126OSM    H2S13446   4.248   2.282   6.950 -1.2474 -0.7865 -2.6585
  126OSM    C3S13447   4.400   2.430   6.938 -0.1187 -1.0278 -0.1660
  126OSM    H3S13448   4.390   2.538   6.913 -2.6978 -0.5645  2.3880
  126OSM     O313449   4.486   2.365   6.839  0.2851  0.4223 -0.1446
  126OSM    HO313450   4.420   2.329   6.779  1.2449  0.4964 -1.3038
  126OSM    C4S13451   4.464   2.436   7.074  0.0159 -0.1555 -0.6616
  126OSM    H4S13452   4.441   2.530   7.127  1.0325 -0.6199  0.6836
  126OSM    C5S13453   4.537   2.352   7.135 -0.7698  0.2826 -0.2985
  126OSM    H5S13454   4.553   2.256   7.084  2.2393  0.9100 -0.7489
  126OSM    C6S13455   4.594   2.361   7.280 -0.3296 -0.6554  0.6284
  126OSM    H6S13456   4.704   2.376   7.281 -0.4149  0.1184  0.0673
  126OSM    H6T13457   4.571   2.264   7.330 -0.1146 -1.1251 -0.1616
  126OSM    C7S13458   4.545   2.467   7.370 -0.4506 -0.4339  0.2531
  126OSM    H7S13459   4.434   2.468   7.371 -0.5484 -3.1222  1.3380
  126OSM    H7T13460   4.575   2.565   7.327  1.8632 -1.1270  0.1416
  126OSM    C8S13461   4.592   2.448   7.515  0.1966  0.2938  0.1697
  126OSM    H8S13462   4.703   2.455   7.514  0.3363 -0.8001  2.2730
  126OSM    H8T13463   4.563   2.349   7.556  0.0717  0.3976  0.3316
  126OSM    C9S13464   4.532   2.551   7.615  0.0208  0.4122  0.2383
  126OSM    H9S13465   4.423   2.533   7.625  0.0543 -3.1467 -3.3497
  126OSM    H9T13466   4.547   2.651   7.569 -0.6673  0.9984  1.2421
  126OSM   C10S13467   4.599   2.571   7.755  0.0440  0.1162  0.5750
  126OSM   H10S13468   4.703   2.610   7.748 -1.0348  3.2460 -0.0793
  126OSM   H10T13469   4.603   2.468   7.794 -0.7277 -2.2920 -4.7930
  126OSM   C11S13470   4.519   2.657   7.843 -0.2955 -0.5624 -0.1650
  126OSM   H11S13471   4.414   2.622   7.851  0.1070 -1.3990  2.7016
  126OSM   H11T13472   4.512   2.765   7.816 -2.3839 -0.6911 -0.3128
  126OSM   C12S13473   4.565   2.669   7.990 -0.4614  0.1284 -0.0653
  126OSM   H12S13474   4.675   2.682   7.993 -0.1292 -2.0497 -1.1478
  126OSM   H12T13475   4.540   2.575   8.043  0.0924  0.6563  1.1476
  126OSM   C13S13476   4.491   2.789   8.062  0.0229 -0.1271 -0.2383
  126OSM   H13S13477   4.381   2.782   8.047  0.0335 -2.0195  0.3272
  126OSM   H13T13478   4.534   2.880   8.015  1.7675 -0.1058  1.2713
  126OSM   C14S13479   4.535   2.786   8.212 -0.0470 -0.1174  0.3554
  126OSM   H14S13480   4.646   2.782   8.213 -0.0239  0.0509 -0.6868
  126OSM   H14T13481   4.489   2.696   8.256 -0.7887  0.1672  0.1718
  126OSM   C15S13482   4.479   2.901   8.297  0.0409 -0.0400 -0.3099
  126OSM   H15S13483   4.479   2.993   8.233  1.0011  1.2077  1.4133
  126OSM   H15T13484   4.544   2.925   8.384 -0.6494 -0.9324  0.4735
  126OSM   C16S13485   4.332   2.879   8.335  0.3472  0.5368 -0.2352
  126OSM   H16S13486   4.326   2.790   8.401  1.7679 -0.7499 -1.7502
  126OSM   H16T13487   4.261   2.868   8.250  1.0047 -0.5405 -0.6760
  126OSM   C17S13488   4.270   2.994   8.410  0.5254 -0.4101 -0.5991
  126OSM   H17S13489   4.298   2.988   8.517 -1.4403 -0.4666 -0.0407
  126OSM   H17T13490   4.161   2.971   8.415  0.6155 -0.6101  3.4107
  126OSM   C18S13491   4.301   3.137   8.356  0.2734 -0.0526 -0.3149
  126OSM   H18S13492   4.242   3.167   8.266 -1.8311 -1.9821  0.3242
  126OSM   H18T13493   4.407   3.162   8.335 -0.3524  2.2992 -1.0082
  126OSM   H18U13494   4.266   3.213   8.429  0.2220 -0.7654  0.4203
  126OSM    C1F13495   4.039   2.393   7.075  0.0839 -0.7329  0.3592
  126OSM     OF13496   4.010   2.296   7.006  0.0895 -0.0027 -0.3358
  126OSM    C2F13497   3.949   2.466   7.166 -0.1289 -0.9871  0.0692
  126OSM    H2F13498   3.931   2.564   7.118 -3.5136 -1.1529  0.7585
  126OSM    H2G13499   4.009   2.473   7.260 -1.7291  1.2054  1.0112
  126OSM    C3F13500   3.816   2.394   7.193  0.5973 -0.3295  0.0465
  126OSM    H3F13501   3.775   2.351   7.099 -1.4200 -0.1203  0.7787
  126OSM    H3G13502   3.741   2.474   7.215 -0.6784 -1.5572  0.2739
  126OSM    C4F13503   3.812   2.286   7.297  1.0962  0.5272 -0.0666
  126OSM    H4F13504   3.863   2.323   7.389  1.6362 -0.4793  0.0554
  126OSM    H4G13505   3.873   2.200   7.263  1.6138  0.4533  0.9963
  126OSM    C5F13506   3.674   2.234   7.325 -1.0204 -0.0027  0.2226
  126OSM    H5F13507   3.676   2.161   7.409 -3.9346 -3.1640 -2.1734
  126OSM    H5G13508   3.630   2.175   7.242  1.5047 -1.2328 -0.3322
  126OSM    C6F13509   3.573   2.339   7.371 -0.2569 -0.1760 -0.2919
  126OSM    H6F13510   3.475   2.289   7.386  0.2179 -0.7733  1.0581
  126OSM    H6G13511   3.563   2.411   7.287  0.5239  3.0489  2.1611
  126OSM    C7F13512   3.614   2.420   7.493  0.2231 -0.2675  0.4371
  126OSM    H7F13513   3.689   2.496   7.463 -1.5464  1.7424  0.8449
  126OSM    H7G13514   3.669   2.348   7.557  0.9599  0.2510  0.3970
  126OSM    C8F13515   3.494   2.489   7.570  0.5654  0.4378 -0.0093
  126OSM    H8F13516   3.433   2.403   7.605 -1.6919  2.0672  0.2806
  126OSM    H8G13517   3.426   2.559   7.517 -2.1158  2.4666  5.3055
  126OSM    C9F13518   3.543   2.553   7.699  0.2319  0.6101  0.2518
  126OSM    H9F13519   3.642   2.601   7.694  0.7320 -0.3569  0.6302
  126OSM   C10F13520   3.482   2.536   7.824 -0.2557  0.6943  0.5748
  126OSM   H10F13521   3.520   2.584   7.916 -0.3564 -0.9309  1.5010
  126OSM   C11F13522   3.361   2.452   7.847 -0.2411  0.0151 -0.0576
  126OSM   H11F13523   3.295   2.475   7.761  0.8681  0.5850 -0.7772
  126OSM   H11G13524   3.315   2.498   7.937  0.4168  2.3849 -0.8603
  126OSM   C12F13525   3.372   2.308   7.870 -0.2781  1.0329  0.0710
  126OSM   H12F13526   3.423   2.258   7.785 -0.9257 -2.3365  1.5012
  126OSM   H12G13527   3.274   2.258   7.885  1.2531 -2.9082 -1.7148
  126OSM   C13F13528   3.450   2.274   7.997  0.2717  0.1172  0.3649
  126OSM   H13F13529   3.394   2.326   8.078 -1.8290 -1.2786 -0.1120
  126OSM   H13G13530   3.552   2.317   7.984  0.8070 -1.2136 -0.1202
  126OSM   C14F13531   3.454   2.128   8.038 -0.8465 -0.2463 -0.4551
  126OSM   H14F13532   3.531   2.080   7.974 -2.2132  1.1481 -3.3116
  126OSM   H14G13533   3.354   2.079   8.045  0.2781 -2.4498  1.3025
  126OSM   C15F13534   3.501   2.117   8.182 -0.9840  0.2372 -0.0590
  126OSM   H15F13535   3.469   2.020   8.225  3.0065 -1.2772 -0.0403
  126OSM   H15G13536   3.456   2.194   8.248 -2.2431  0.4772 -1.1425
  126OSM   C16F13537   3.665   2.125   8.186  0.9814  0.4885  0.1276
  126OSM   H16F13538   3.683   2.218   8.127  1.3360 -0.3201 -1.0835
  126OSM   H16G13539   3.707   2.044   8.123 -1.4735 -1.4903  0.9085
  126OSM   C17F13540   3.715   2.152   8.326  0.5935  0.8200 -0.0284
  126OSM   H17F13541   3.646   2.230   8.367 -1.1741  0.6847 -2.4918
  126OSM   H17G13542   3.812   2.203   8.307 -0.0706  2.3143  0.4016
  126OSM   C18F13543   3.735   2.030   8.414  0.6832  0.2204 -0.3187
  126OSM   H18F13544   3.835   1.988   8.388  0.9879 -1.7035  3.3294
  126OSM   H18G13545   3.654   1.956   8.399  0.0881  1.0459 -1.2908
  126OSM   H18H13546   3.741   2.053   8.523  0.1536 -2.3253  0.3068
  127OSM      N13547   5.456   1.957   6.081 -0.4752  0.5029 -0.4429
  127OSM    C1513548   5.323   1.998   6.029 -0.7311  0.1612  0.3048
  127OSM   H15A13549   5.339   2.000   5.922  3.4357  0.0363  0.7479
  127OSM   H15B13550   5.306   2.099   6.065 -0.5218 -0.0011  0.8641
  127OSM   H15C13551   5.240   1.943   6.070  0.7227 -0.9508  1.8788
  127OSM    C1413552   5.465   1.811   6.067  0.1509 -0.0292 -0.1775
  127OSM   H14A13553   5.566   1.779   6.088 -0.5856 -1.6250  1.1956
  127OSM   H14B13554   5.446   1.781   5.965  1.1360 -1.2507 -0.0204
  127OSM   H14C13555   5.394   1.756   6.127  0.2101 -1.7497 -1.6311
  127OSM    C1313556   5.552   2.031   5.993  0.1188  0.2884  0.4971
  127OSM   H13A13557   5.528   2.136   6.001 -2.2068 -0.1954  0.3746
  127OSM   H13B13558   5.558   1.986   5.896  2.2302  0.0035  0.7099
  127OSM   H13C13559   5.653   2.026   6.033 -0.7804 -1.0223  2.8245
  127OSM    C1213560   5.476   1.983   6.228  0.5779  0.4837  0.0982
  127OSM   H12A13561   5.562   1.936   6.276 -0.3125 -0.3385  0.9456
  127OSM   H12B13562   5.399   1.926   6.277  1.4283 -0.3359  0.5268
  127OSM    C1113563   5.462   2.125   6.285 -0.7241  0.2803  0.9210
  127OSM   H11A13564   5.553   2.177   6.245 -0.6774  0.6954  1.5628
  127OSM   H11B13565   5.467   2.129   6.395 -0.5316  1.1272  0.8900
  127OSM      P13566   5.342   2.342   6.195  0.0577 -0.1187 -0.6278
  127OSM    O1313567   5.447   2.371   6.093 -0.5674  0.2653 -0.3274
  127OSM    O1413568   5.203   2.370   6.162 -0.1875  0.4768 -0.0912
  127OSM    O1113569   5.380   2.422   6.326  0.2317  0.4233  0.1973
  127OSM    O1213570   5.347   2.193   6.246 -0.3504  0.0418 -0.0731
  127OSM    C1S13571   5.286   2.423   6.438 -0.5008 -0.2494  0.5367
  127OSM    H1S13572   5.227   2.330   6.452 -1.1194  0.0917  0.2578
  127OSM    H1T13573   5.200   2.493   6.425 -1.0130 -0.5765  2.0058
  127OSM     NF13574   5.301   2.385   6.686 -1.1034  0.2399  0.4382
  127OSM    HNF13575   5.242   2.438   6.747 -2.0260 -0.9934  0.6701
  127OSM    C2S13576   5.362   2.452   6.570 -0.5179  0.9200  0.1016
  127OSM    H2S13577   5.464   2.410   6.561 -0.5897  0.4913  1.0911
  127OSM    C3S13578   5.378   2.605   6.590 -0.0997 -1.1126  1.0702
  127OSM    H3S13579   5.274   2.638   6.605 -0.2541  0.6673 -2.5780
  127OSM     O313580   5.402   2.671   6.468  0.3448  0.0054 -0.1666
  127OSM    HO313581   5.384   2.600   6.406  2.3806 -0.0026 -0.8115
  127OSM    C4S13582   5.466   2.648   6.710  0.3140 -1.0459  0.4609
  127OSM    H4S13583   5.411   2.645   6.805 -1.7818  1.3194 -0.5522
  127OSM    C5S13584   5.600   2.677   6.699 -0.4006 -0.3977  0.4370
  127OSM    H5S13585   5.649   2.681   6.601 -1.9997  4.0974 -0.4338
  127OSM    C6S13586   5.694   2.721   6.807  0.2549 -0.1533  0.0569
  127OSM    H6S13587   5.729   2.826   6.795 -0.5303  0.3561  1.8685
  127OSM    H6T13588   5.790   2.666   6.806  1.1741  1.4111 -0.0008
  127OSM    C7S13589   5.653   2.709   6.962  0.8091  0.1555 -0.1483
  127OSM    H7S13590   5.607   2.608   6.973 -1.1520  0.7619 -2.0016
  127OSM    H7T13591   5.586   2.797   6.975 -0.2502 -0.7194  0.5617
  127OSM    C8S13592   5.776   2.706   7.045  0.2893 -0.1513 -0.3631
  127OSM    H8S13593   5.835   2.793   7.010 -0.6464  1.4394  1.7525
  127OSM    H8T13594   5.819   2.605   7.032 -1.6926 -1.1825  0.6810
  127OSM    C9S13595   5.770   2.731   7.195 -0.1323  0.6892  0.2474
  127OSM    H9S13596   5.677   2.683   7.231 -1.1907  2.9074  0.6342
  127OSM    H9T13597   5.763   2.841   7.209  1.8337  0.7120  1.5332
  127OSM   C10S13598   5.900   2.678   7.264  0.7553  0.5953  0.1339
  127OSM   H10S13599   5.982   2.746   7.234  1.7719 -1.6590 -2.5890
  127OSM   H10T13600   5.930   2.580   7.221  0.6838 -0.1692  1.7635
  127OSM   C11S13601   5.890   2.686   7.415  0.1201 -0.2209 -0.1373
  127OSM   H11S13602   5.867   2.789   7.449  2.4727 -0.5830  3.0419
  127OSM   H11T13603   5.989   2.661   7.459  0.4266  1.1545 -0.0256
  127OSM   C12S13604   5.791   2.586   7.481  0.3659 -0.1992  0.0671
  127OSM   H12S13605   5.821   2.481   7.463  3.9841  0.1566  2.8102
  127OSM   H12T13606   5.687   2.612   7.451  1.1284  2.1670 -0.7740
  127OSM   C13S13607   5.794   2.589   7.632 -0.4340  0.4870  0.1500
  127OSM   H13S13608   5.744   2.682   7.669 -0.9197  0.9250 -1.5416
  127OSM   H13T13609   5.896   2.583   7.675  0.0670 -0.8554 -1.1533
  127OSM   C14S13610   5.709   2.479   7.698 -0.1160  0.6078  0.6369
  127OSM   H14S13611   5.750   2.381   7.668 -0.4372 -0.2865  2.9423
  127OSM   H14T13612   5.605   2.495   7.660 -0.6555  1.3552  2.3431
  127OSM   C15S13613   5.697   2.474   7.852 -0.2784 -0.1934  0.4145
  127OSM   H15S13614   5.600   2.429   7.883 -0.8728 -0.0066 -1.1111
  127OSM   H15T13615   5.683   2.578   7.889  0.7811 -0.4016  1.4870
  127OSM   C16S13616   5.808   2.397   7.924 -1.4091  0.2528 -0.2673
  127OSM   H16S13617   5.907   2.449   7.928 -0.4631 -1.4606 -0.4795
  127OSM   H16T13618   5.832   2.304   7.869  1.1621  1.1439 -0.8125
  127OSM   C17S13619   5.773   2.367   8.070 -0.1184 -0.6600  0.3336
  127OSM   H17S13620   5.663   2.348   8.077 -0.6003  1.7514 -0.0402
  127OSM   H17T13621   5.788   2.460   8.128 -2.2247  0.7543 -1.2454
  127OSM   C18S13622   5.855   2.245   8.123 -0.6705  1.0062 -0.1903
  127OSM   H18S13623   5.813   2.196   8.214 -0.1119  0.0551 -0.4328
  127OSM   H18T13624   5.957   2.278   8.154 -0.2878 -0.5964  0.4081
  127OSM   H18U13625   5.869   2.167   8.045 -0.4315  0.6716  0.1845
  127OSM    C1F13626   5.305   2.254   6.696 -0.2360  0.2474 -0.2359
  127OSM     OF13627   5.373   2.185   6.618 -0.3064  0.4668  0.4363
  127OSM    C2F13628   5.226   2.187   6.806  0.3466  0.5791  0.8538
  127OSM    H2F13629   5.125   2.149   6.778  1.3328 -1.0273 -0.7794
  127OSM    H2G13630   5.207   2.265   6.883 -0.2809  1.3378 -0.0565
  127OSM    C3F13631   5.308   2.072   6.870 -0.5487  0.5637  0.0536
  127OSM    H3F13632   5.409   2.109   6.896  0.0906 -0.1593 -1.2883
  127OSM    H3G13633   5.328   1.985   6.804 -0.3148  0.5908  0.0910
  127OSM    C4F13634   5.240   2.025   6.998 -0.0358 -0.2082 -0.4003
  127OSM    H4F13635   5.164   1.950   6.967 -0.5974  0.8314 -1.6233
  127OSM    H4G13636   5.193   2.111   7.049  0.5714  0.8349 -1.5518
  127OSM    C5F13637   5.330   1.951   7.101 -0.7083  0.1732  0.6359
  127OSM    H5F13638   5.426   2.003   7.121  0.4820 -1.1409 -1.3637
  127OSM    H5G13639   5.361   1.854   7.058  1.4367  0.9625  0.2868
  127OSM    C6F13640   5.246   1.922   7.228 -0.6668 -0.8312  0.1607
  127OSM    H6F13641   5.155   1.862   7.209 -1.4109  0.6017 -1.0533
  127OSM    H6G13642   5.214   2.020   7.269 -1.4959 -0.4666 -1.2815
  127OSM    C7F13643   5.318   1.856   7.351  0.2071 -0.1443 -0.2088
  127OSM    H7F13644   5.412   1.906   7.384  0.5603 -0.5209 -0.6287
  127OSM    H7G13645   5.358   1.758   7.318  3.7449  1.7969 -2.3815
  127OSM    C8F13646   5.212   1.840   7.462 -0.4498 -0.2151  0.1258
  127OSM    H8F13647   5.115   1.797   7.430 -1.8094  1.5934  1.6771
  127OSM    H8G13648   5.196   1.938   7.512 -0.1056  0.8255 -1.7075
  127OSM    C9F13649   5.262   1.747   7.565 -0.7592 -0.0720  0.3911
  127OSM    H9F13650   5.347   1.685   7.532 -1.2787 -0.1984 -0.7497
  127OSM   C10F13651   5.213   1.709   7.683  0.7217 -0.5256 -0.1019
  127OSM   H10F13652   5.262   1.623   7.731  0.9892 -0.8067 -0.8611
  127OSM   C11F13653   5.082   1.763   7.743 -0.4495 -0.2177 -0.1502
  127OSM   H11F13654   5.026   1.684   7.797  0.2265  1.0895  2.6719
  127OSM   H11G13655   5.017   1.787   7.657  2.1474  0.6405 -2.0044
  127OSM   C12F13656   5.083   1.885   7.840 -0.0947  0.2077 -0.2599
  127OSM   H12F13657   5.127   1.965   7.777 -1.0288  1.3556  0.5190
  127OSM   H12G13658   5.159   1.863   7.918  1.5841  1.3716 -1.4946
  127OSM   C13F13659   4.949   1.914   7.905 -0.4379  0.6299  0.4572
  127OSM   H13F13660   4.904   1.813   7.920  0.4783 -0.0548 -1.0941
  127OSM   H13G13661   4.887   1.961   7.825  1.2256 -0.2213 -1.4020
  127OSM   C14F13662   4.955   2.016   8.018  1.0055 -0.1453 -0.8333
  127OSM   H14F13663   5.000   2.112   7.986  3.4752 -0.3751  1.5877
  127OSM   H14G13664   5.024   1.971   8.092  1.4488  1.9960  0.1219
  127OSM   C15F13665   4.815   2.042   8.076  0.3562 -0.3438  0.0786
  127OSM   H15F13666   4.755   2.095   7.999 -0.2284 -1.2936 -0.1216
  127OSM   H15G13667   4.825   2.109   8.164 -0.2511 -0.2480  0.0795
  127OSM   C16F13668   4.730   1.922   8.133 -0.0040 -0.1248 -0.0564
  127OSM   H16F13669   4.736   1.841   8.057  1.5946 -2.1615  2.0796
  127OSM   H16G13670   4.625   1.955   8.144  0.4379  0.9049  1.2654
  127OSM   C17F13671   4.782   1.889   8.272 -0.2939  0.3073  0.4222
  127OSM   H17F13672   4.756   1.975   8.337 -2.0193  1.0085 -1.0993
  127OSM   H17G13673   4.892   1.876   8.266 -0.0070  2.1617  1.0899
  127OSM   C18F13674   4.715   1.763   8.330 -0.0074  1.0656  0.0796
  127OSM   H18F13675   4.725   1.675   8.264  0.3039 -0.8791  2.5703
  127OSM   H18G13676   4.606   1.781   8.342  0.0531  1.7436 -0.3478
  127OSM   H18H13677   4.759   1.738   8.429 -0.7744 -0.7594 -0.0089
  128OSM      N13678   1.123   5.736   5.732 -0.7618  0.2400  0.1225
  128OSM    C1513679   1.170   5.879   5.689  0.5114  0.4615 -0.3135
  128OSM   H15A13680   1.092   5.953   5.680 -0.0586 -0.0656  0.2695
  128OSM   H15B13681   1.228   5.864   5.599 -0.8310  1.2195 -1.3458
  128OSM   H15C13682   1.242   5.913   5.762  3.3883 -1.9775 -1.7613
  128OSM    C1413683   1.036   5.700   5.617 -0.7182  0.0751 -0.2860
  128OSM   H14A13684   0.952   5.767   5.607 -1.6845 -0.5820  2.5131
  128OSM   H14B13685   0.994   5.602   5.633 -0.9116  0.2233  0.1324
  128OSM   H14C13686   1.081   5.692   5.519 -3.2674 -0.7943 -1.4662
  128OSM    C1313687   1.240   5.643   5.747  0.1041  0.6244 -0.5379
  128OSM   H13A13688   1.212   5.541   5.767 -1.0758  1.0957  0.4004
  128OSM   H13B13689   1.289   5.678   5.837  0.7028  1.6436 -1.2483
  128OSM   H13C13690   1.302   5.655   5.660 -1.3341 -3.4524 -2.3367
  128OSM    C1213691   1.037   5.743   5.856 -0.6312 -0.4201  0.4582
  128OSM   H12A13692   0.996   5.646   5.880 -0.9748  0.0592  1.9245
  128OSM   H12B13693   0.958   5.815   5.838 -1.5552 -1.2315  1.1525
  128OSM    C1113694   1.088   5.796   5.993  0.8257  0.3949  0.1004
  128OSM   H11A13695   1.000   5.789   6.060 -0.7098 -1.5313 -1.9224
  128OSM   H11B13696   1.119   5.902   5.991  0.6563  0.5460  2.6014
  128OSM      P13697   1.179   5.571   6.114  0.0664  0.1067  0.0845
  128OSM    O1313698   1.039   5.528   6.118  0.3766  0.0705 -0.0884
  128OSM    O1413699   1.280   5.480   6.055  0.1740  0.2412  0.1642
  128OSM    O1113700   1.234   5.604   6.258  0.8477  0.0935  0.4664
  128OSM    O1213701   1.195   5.713   6.043  0.1184  0.4956 -0.1355
  128OSM    C1S13702   1.186   5.723   6.325 -0.9845 -0.2573 -0.4469
  128OSM    H1S13703   1.080   5.713   6.356 -0.8070 -1.7952 -0.2749
  128OSM    H1T13704   1.188   5.820   6.270 -1.9214  1.1118  1.7775
  128OSM     NF13705   1.204   5.829   6.553  0.1792 -0.4086 -0.0318
  128OSM    HNF13706   1.248   5.917   6.570  1.5909 -1.6055  3.5838
  128OSM    C2S13707   1.279   5.749   6.454  0.0639 -0.0457  0.1134
  128OSM    H2S13708   1.304   5.651   6.500 -0.9952  0.2975  1.5136
  128OSM    C3S13709   1.408   5.824   6.409  0.5081 -0.7427  0.4670
  128OSM    H3S13710   1.382   5.926   6.374 -1.1786 -0.2897  2.8006
  128OSM     O313711   1.467   5.762   6.292 -0.0695  0.3027 -0.2642
  128OSM    HO313712   1.406   5.689   6.279 -0.7435  0.7586  0.2596
  128OSM    C4S13713   1.499   5.846   6.529  0.0412  0.1673 -0.0688
  128OSM    H4S13714   1.449   5.910   6.603 -3.9005 -1.9646 -0.6566
  128OSM    C5S13715   1.623   5.800   6.554 -0.3811 -0.4574 -0.3033
  128OSM    H5S13716   1.672   5.756   6.465 -0.4655 -1.1681 -0.0054
  128OSM    C6S13717   1.709   5.838   6.671 -0.5776  1.0336  0.1674
  128OSM    H6S13718   1.807   5.882   6.645 -0.1260 -0.1604 -0.2344
  128OSM    H6T13719   1.738   5.742   6.721  0.9551  1.9777  1.1753
  128OSM    C7S13720   1.644   5.925   6.774  0.0022  0.5241 -0.5907
  128OSM    H7S13721   1.549   5.874   6.800  0.7554 -1.5753 -1.6911
  128OSM    H7T13722   1.614   6.026   6.737  0.8069  1.3907  1.0318
  128OSM    C8S13723   1.727   5.947   6.901 -0.5637 -0.3217 -0.4353
  128OSM    H8S13724   1.826   5.990   6.875 -0.4754  0.3429  0.9287
  128OSM    H8T13725   1.761   5.847   6.934  0.1558 -0.6699 -2.1026
  128OSM    C9S13726   1.648   6.020   7.015 -0.7047 -0.1181  0.2258
  128OSM    H9S13727   1.567   5.947   7.037 -0.1677 -2.0404 -3.3742
  128OSM    H9T13728   1.604   6.101   6.954 -0.5798 -1.2369 -1.4206
  128OSM   C10S13729   1.749   6.047   7.131  0.5057  0.3142  0.5604
  128OSM   H10S13730   1.822   6.125   7.099  0.8332  0.6937  2.1508
  128OSM   H10T13731   1.806   5.954   7.154  3.0996  1.9338  1.1800
  128OSM   C11S13732   1.679   6.094   7.261  0.2218  0.2070 -0.2289
  128OSM   H11S13733   1.618   6.008   7.295 -0.9152  0.3532 -1.7678
  128OSM   H11T13734   1.608   6.176   7.236  0.4177 -0.3541 -2.8218
  128OSM   C12S13735   1.770   6.141   7.376 -0.2010  0.0962 -0.2152
  128OSM   H12S13736   1.828   6.229   7.340 -0.2634 -0.4100 -1.6226
  128OSM   H12T13737   1.844   6.065   7.407 -0.1404 -0.5400 -1.8096
  128OSM   C13S13738   1.683   6.192   7.498  0.3783  0.4821 -0.3275
  128OSM   H13S13739   1.618   6.108   7.531  1.0641  0.5830  1.3469
  128OSM   H13T13740   1.611   6.271   7.466  0.3725  0.4384 -0.4216
  128OSM   C14S13741   1.764   6.252   7.612  0.0766  0.3382 -0.0657
  128OSM   H14S13742   1.846   6.319   7.578 -1.1636  1.8771 -0.1723
  128OSM   H14T13743   1.812   6.176   7.677 -1.1505 -0.7142 -0.3556
  128OSM   C15S13744   1.667   6.325   7.710 -0.6863 -0.3511 -0.2622
  128OSM   H15S13745   1.579   6.260   7.729 -3.1658  3.0848  0.8816
  128OSM   H15T13746   1.630   6.417   7.662  2.5186  1.4132  0.3573
  128OSM   C16S13747   1.739   6.358   7.846 -0.0024  0.3882  0.1305
  128OSM   H16S13748   1.812   6.442   7.842  1.4488 -0.8276  0.3213
  128OSM   H16T13749   1.783   6.262   7.877 -0.7845  0.6236  2.1106
  128OSM   C17S13750   1.632   6.391   7.955 -0.4152  0.5347 -0.6740
  128OSM   H17S13751   1.558   6.309   7.961 -1.2530  1.3597  4.0287
  128OSM   H17T13752   1.575   6.485   7.935 -0.9184  1.0935  2.8072
  128OSM   C18S13753   1.677   6.413   8.107 -0.2774  0.6061  0.9446
  128OSM   H18S13754   1.703   6.314   8.150  0.6381  0.6333  0.4817
  128OSM   H18T13755   1.599   6.450   8.177 -0.6027 -1.2654  1.6298
  128OSM   H18U13756   1.763   6.484   8.109 -0.3679  0.7289  0.4818
  128OSM    C1F13757   1.079   5.809   6.601 -0.2958  0.1518 -0.2875
  128OSM     OF13758   1.030   5.693   6.604 -0.4717 -0.8927  0.1959
  128OSM    C2F13759   1.006   5.920   6.671  0.1546  0.5197  0.8730
  128OSM    H2F13760   0.903   5.889   6.697  0.4398 -0.7459  0.5463
  128OSM    H2G13761   1.006   6.016   6.614  1.3494 -0.0968 -0.2244
  128OSM    C3F13762   1.074   5.963   6.797 -0.6261 -0.6129  0.8336
  128OSM    H3F13763   1.029   6.060   6.828  3.6285  1.4259  1.3412
  128OSM    H3G13764   1.182   5.986   6.784 -1.3137  2.6266 -0.0147
  128OSM    C4F13765   1.048   5.854   6.907 -0.3268 -0.4099 -0.2212
  128OSM    H4F13766   1.088   5.758   6.869 -0.6657 -0.8587  0.5298
  128OSM    H4G13767   0.938   5.835   6.913 -0.2141 -2.9028 -3.3109
  128OSM    C5F13768   1.100   5.903   7.039  0.1532 -0.5212 -0.9461
  128OSM    H5F13769   1.032   5.990   7.057 -1.9308 -2.1553 -0.5126
  128OSM    H5G13770   1.206   5.931   7.057 -0.4792  1.4569 -0.0222
  128OSM    C6F13771   1.069   5.804   7.152 -0.3377  0.0598 -0.0984
  128OSM    H6F13772   1.125   5.713   7.124  1.0704  0.6041  0.8738
  128OSM    H6G13773   0.959   5.786   7.150 -0.3003 -0.4060  1.1294
  128OSM    C7F13774   1.108   5.855   7.289 -0.3076 -0.1160 -0.1911
  128OSM    H7F13775   1.049   5.947   7.310 -0.6712 -0.4110  0.0892
  128OSM    H7G13776   1.218   5.866   7.292  0.0300 -1.6726 -3.3056
  128OSM    C8F13777   1.077   5.762   7.410  0.4672 -0.3868 -0.4306
  128OSM    H8F13778   1.125   5.664   7.391  3.2598  0.8781 -0.3485
  128OSM    H8G13779   0.967   5.744   7.406  0.2281  1.0262 -0.6567
  128OSM    C9F13780   1.127   5.817   7.546 -0.3411  0.5537  0.4598
  128OSM    H9F13781   1.231   5.812   7.580 -0.9353 -0.1351  2.3089
  128OSM   C10F13782   1.050   5.853   7.650  0.2168  0.1363 -0.3901
  128OSM   H10F13783   1.088   5.883   7.748  0.6263 -0.2147 -0.4382
  128OSM   C11F13784   0.898   5.846   7.651  0.5313  1.1106  0.0933
  128OSM   H11F13785   0.855   5.829   7.550 -0.4439  2.1391  0.3150
  128OSM   H11G13786   0.848   5.935   7.693 -0.0704  0.4223  0.8679
  128OSM   C12F13787   0.854   5.722   7.733  0.8623 -1.0497 -0.0476
  128OSM   H12F13788   0.888   5.627   7.687 -0.4001 -0.9157 -1.3459
  128OSM   H12G13789   0.743   5.730   7.740  1.0227  1.4692  0.6656
  128OSM   C13F13790   0.909   5.712   7.880 -0.2719  0.6911 -0.4274
  128OSM   H13F13791   0.870   5.804   7.929  0.0174  1.8230 -2.1946
  128OSM   H13G13792   1.020   5.719   7.878 -0.1579 -0.9009 -0.4877
  128OSM   C14F13793   0.864   5.579   7.947 -0.3276 -0.0545  0.4770
  128OSM   H14F13794   0.947   5.505   7.938  0.1852  0.7340 -1.7979
  128OSM   H14G13795   0.778   5.542   7.886  2.3034 -3.4227 -1.5436
  128OSM   C15F13796   0.830   5.579   8.092 -1.0264  0.2717 -0.5276
  128OSM   H15F13797   0.917   5.556   8.158 -1.8926 -3.8543 -0.5651
  128OSM   H15G13798   0.759   5.495   8.104  0.2180 -1.0358 -2.0554
  128OSM   C16F13799   0.760   5.700   8.139  0.6138  0.0964  0.3199
  128OSM   H16F13800   0.681   5.710   8.061  0.4098 -0.6765  0.4223
  128OSM   H16G13801   0.825   5.790   8.138  1.1507 -0.2678  1.1058
  128OSM   C17F13802   0.697   5.676   8.275  0.7599  0.3905 -0.4504
  128OSM   H17F13803   0.661   5.571   8.282 -0.6989  0.9632  1.6522
  128OSM   H17G13804   0.612   5.745   8.291 -1.1417 -2.0489  0.7853
  128OSM   C18F13805   0.799   5.702   8.384  0.0987 -0.4349  0.0341
  128OSM   H18F13806   0.749   5.681   8.481 -0.7908 -4.5032 -1.0949
  128OSM   H18G13807   0.827   5.809   8.395 -2.3395  0.2478  0.2101
  128OSM   H18H13808   0.893   5.645   8.372  1.6985  2.1721 -0.6664
  129OSM      N13809   5.676   2.697   6.158 -0.3548  0.4443  0.4141
  129OSM    C1513810   5.576   2.761   6.065  0.0610  0.3013 -0.0155
  129OSM   H15A13811   5.513   2.830   6.119 -0.9408  0.4289 -1.3199
  129OSM   H15B13812   5.519   2.689   6.009  0.7370 -1.2304  1.1715
  129OSM   H15C13813   5.631   2.823   5.997 -0.0448  0.0064 -0.3730
  129OSM    C1413814   5.790   2.653   6.063 -0.4518 -0.7809 -0.2953
  129OSM   H14A13815   5.811   2.733   5.993 -0.3725  1.9242  2.5862
  129OSM   H14B13816   5.753   2.573   6.001 -1.7433  0.9299 -1.8341
  129OSM   H14C13817   5.884   2.628   6.111  0.6051  0.2495 -1.7546
  129OSM    C1313818   5.720   2.816   6.233 -0.8052  0.5394 -0.3408
  129OSM   H13A13819   5.749   2.898   6.169  0.3749 -1.0455 -1.9193
  129OSM   H13B13820   5.807   2.792   6.293 -1.2445 -0.1829  0.0318
  129OSM   H13C13821   5.636   2.846   6.294 -0.1268  0.7832  0.4855
  129OSM    C1213822   5.611   2.592   6.248 -0.4054  0.1485 -0.0567
  129OSM   H12A13823   5.569   2.511   6.190 -1.2827  0.0809  0.6650
  129OSM   H12B13824   5.533   2.639   6.305  0.4453 -0.8185  2.0419
  129OSM    C1113825   5.714   2.528   6.337 -0.0118 -0.7275  0.4240
  129OSM   H11A13826   5.658   2.485   6.423  0.8873  1.9556  2.4614
  129OSM   H11B13827   5.785   2.607   6.367 -1.8182  1.0915  0.1524
  129OSM      P13828   5.927   2.372   6.309  0.1328 -0.2301  0.2777
  129OSM    O1313829   5.985   2.293   6.197  0.2868 -0.2608 -0.0895
  129OSM    O1413830   6.008   2.477   6.365 -0.1562 -0.4722  0.3787
  129OSM    O1113831   5.898   2.259   6.417 -0.3594 -0.0567 -0.5503
  129OSM    O1213832   5.780   2.423   6.264 -0.3601 -0.0934 -0.2360
  129OSM    C1S13833   5.784   2.188   6.440  0.4860  0.1542  0.2643
  129OSM    H1S13834   5.785   2.091   6.386 -0.3314  1.5758 -2.4909
  129OSM    H1T13835   5.694   2.246   6.408  1.5856  0.6973 -2.0205
  129OSM     NF13836   5.657   2.088   6.625 -0.6294  0.2390  0.6214
  129OSM    HNF13837   5.580   2.126   6.676 -0.5480 -0.5955  1.4069
  129OSM    C2S13838   5.766   2.175   6.590 -0.1318  0.6037 -0.0950
  129OSM    H2S13839   5.857   2.134   6.639 -0.9473 -0.2497  0.7385
  129OSM    C3S13840   5.740   2.305   6.657  0.1962 -0.2496 -0.3699
  129OSM    H3S13841   5.648   2.349   6.613 -0.9380 -2.3057 -0.2033
  129OSM     O313842   5.851   2.399   6.651  0.1484  0.1074  0.3445
  129OSM    HO313843   5.900   2.365   6.576  2.3141  1.1352  1.2148
  129OSM    C4S13844   5.695   2.299   6.799 -0.3884 -0.4120 -0.7251
  129OSM    H4S13845   5.595   2.254   6.805 -1.8452  2.1899 -3.1446
  129OSM    C5S13846   5.765   2.327   6.916  0.4188  0.1725  0.1795
  129OSM    H5S13847   5.868   2.366   6.906 -0.4185  2.2164 -1.0145
  129OSM    C6S13848   5.738   2.308   7.062 -0.2897  0.7008 -0.3197
  129OSM    H6S13849   5.751   2.402   7.120 -1.9004 -0.1207  1.4983
  129OSM    H6T13850   5.799   2.222   7.097 -1.0038  0.9000  1.5579
  129OSM    C7S13851   5.594   2.266   7.089 -0.0619  0.2736 -0.0073
  129OSM    H7S13852   5.576   2.157   7.088 -0.1497  0.2800  0.4703
  129OSM    H7T13853   5.527   2.307   7.011 -0.6028  0.1218  0.3666
  129OSM    C8S13854   5.542   2.309   7.226 -0.5629  0.4023 -0.3922
  129OSM    H8S13855   5.431   2.313   7.226 -0.6298 -0.9468 -1.1304
  129OSM    H8T13856   5.576   2.412   7.250  0.0787 -0.1430  1.1933
  129OSM    C9S13857   5.587   2.202   7.323 -0.5442  0.0503 -0.4887
  129OSM    H9S13858   5.684   2.161   7.287 -0.3165  0.2192 -0.0798
  129OSM    H9T13859   5.504   2.129   7.316 -0.9095  0.4240 -0.1033
  129OSM   C10S13860   5.605   2.251   7.465  0.3297 -0.6110  0.4721
  129OSM   H10S13861   5.545   2.342   7.490  1.6026  0.1683  0.8371
  129OSM   H10T13862   5.706   2.297   7.456  0.5941 -1.3447 -0.4218
  129OSM   C11S13863   5.622   2.156   7.575  0.1905 -0.7236  0.7653
  129OSM   H11S13864   5.722   2.188   7.614  0.1928 -1.6878  1.5971
  129OSM   H11T13865   5.627   2.056   7.528 -0.4144 -0.8075  0.8742
  129OSM   C12S13866   5.516   2.160   7.680  0.9725 -0.5073 -0.0750
  129OSM   H12S13867   5.420   2.131   7.633  0.2392  1.5466  0.0582
  129OSM   H12T13868   5.502   2.261   7.725  0.7928 -0.0732 -1.0886
  129OSM   C13S13869   5.551   2.066   7.787 -1.1354 -0.0630 -0.2142
  129OSM   H13S13870   5.637   2.109   7.841 -1.1167  0.4159 -0.6118
  129OSM   H13T13871   5.583   1.963   7.760  0.4956  0.2488  0.4070
  129OSM   C14S13872   5.441   2.064   7.888 -0.1507 -0.0388 -0.1413
  129OSM   H14S13873   5.355   2.011   7.842  0.1740  0.6156 -1.5765
  129OSM   H14T13874   5.413   2.169   7.909 -0.4191  0.9710 -4.5262
  129OSM   C15S13875   5.485   1.997   8.018  0.4302  0.4983 -1.4021
  129OSM   H15S13876   5.581   2.045   8.046 -0.1066  0.6461  0.2854
  129OSM   H15T13877   5.512   1.890   8.003  0.2104  0.1364  0.5096
  129OSM   C16S13878   5.384   2.007   8.130  0.0268  0.3088 -0.3128
  129OSM   H16S13879   5.285   2.018   8.080 -1.5838 -0.5694  2.4790
  129OSM   H16T13880   5.396   2.088   8.205 -0.0610 -0.7400  0.8533
  129OSM   C17S13881   5.375   1.868   8.197 -0.6800  0.0763 -0.4529
  129OSM   H17S13882   5.366   1.778   8.134 -1.4489 -2.3484  2.8194
  129OSM   H17T13883   5.287   1.873   8.265 -0.3725 -0.2946 -0.0188
  129OSM   C18S13884   5.501   1.839   8.285  0.7760 -0.1773  0.8335
  129OSM   H18S13885   5.588   1.831   8.217  0.3674 -0.5503  0.3440
  129OSM   H18T13886   5.493   1.744   8.343  1.0189 -0.3337  0.6137
  129OSM   H18U13887   5.506   1.915   8.366 -1.2518 -2.1705  3.0298
  129OSM    C1F13888   5.661   1.954   6.613  0.0800 -0.3529 -0.2441
  129OSM     OF13889   5.745   1.890   6.558  0.4428 -0.2299 -0.1654
  129OSM    C2F13890   5.551   1.883   6.685  0.3576  0.0234  0.4942
  129OSM    H2F13891   5.550   1.778   6.650  1.1593  0.4426 -0.8473
  129OSM    H2G13892   5.452   1.929   6.665 -0.1710 -0.8866  0.9483
  129OSM    C3F13893   5.595   1.866   6.836  0.1334  0.4586 -0.2138
  129OSM    H3F13894   5.505   1.831   6.891  0.2867 -2.1283 -1.4621
  129OSM    H3G13895   5.631   1.957   6.888  3.6367 -0.9000 -0.0131
  129OSM    C4F13896   5.695   1.748   6.845  0.1198 -0.4806 -0.1371
  129OSM    H4F13897   5.784   1.754   6.778  0.8105 -1.0967  0.6902
  129OSM    H4G13898   5.640   1.664   6.798 -1.7767  1.4244 -1.4380
  129OSM    C5F13899   5.715   1.709   6.994 -0.4110 -0.3375  1.4579
  129OSM    H5F13900   5.757   1.791   7.056  1.1550 -0.2230  0.3101
  129OSM    H5G13901   5.797   1.633   6.995  0.0412  0.1451  1.5059
  129OSM    C6F13902   5.604   1.633   7.068 -0.4704 -0.1217 -0.1537
  129OSM    H6F13903   5.557   1.566   6.992  2.0036 -1.7451 -0.3592
  129OSM    H6G13904   5.522   1.699   7.104  1.4825  0.8088  2.9022
  129OSM    C7F13905   5.653   1.536   7.175 -0.0497 -0.5742  0.3827
  129OSM    H7F13906   5.692   1.446   7.124  1.8947 -0.6682  1.9152
  129OSM    H7G13907   5.564   1.494   7.226  0.0321 -1.4243 -0.1514
  129OSM    C8F13908   5.751   1.591   7.283 -0.0910  0.2873  0.1815
  129OSM    H8F13909   5.844   1.629   7.237 -0.1739  2.0678  1.3996
  129OSM    H8G13910   5.771   1.502   7.346 -1.2288  0.1003  0.3052
  129OSM    C9F13911   5.693   1.710   7.358 -0.0220 -0.8522 -0.0793
  129OSM    H9F13912   5.659   1.799   7.303  1.8822 -0.3269 -0.4836
  129OSM   C10F13913   5.670   1.717   7.493 -0.4290 -0.1930  0.7287
  129OSM   H10F13914   5.621   1.809   7.528  0.3292 -0.3202  2.2265
  129OSM   C11F13915   5.695   1.607   7.597  0.7249 -0.5965 -0.1699
  129OSM   H11F13916   5.749   1.515   7.568 -0.7296 -1.4535 -0.2750
  129OSM   H11G13917   5.593   1.580   7.632  1.1215 -1.1113  0.6205
  129OSM   C12F13918   5.753   1.681   7.718 -0.2210 -0.2805 -0.0339
  129OSM   H12F13919   5.691   1.771   7.739 -1.2662 -1.2997  1.3528
  129OSM   H12G13920   5.852   1.724   7.691  0.3913 -0.4730  1.7854
  129OSM   C13F13921   5.756   1.594   7.847 -1.0594 -0.0247  0.2474
  129OSM   H13F13922   5.822   1.509   7.823 -0.0064  1.3223 -1.9921
  129OSM   H13G13923   5.650   1.565   7.862 -0.8766 -0.2463  1.1398
  129OSM   C14F13924   5.822   1.663   7.962 -0.1437  0.1201  0.5511
  129OSM   H14F13925   5.779   1.764   7.981 -1.6550 -0.7699  2.1741
  129OSM   H14G13926   5.932   1.672   7.950  0.0542 -1.7018  0.7437
  129OSM   C15F13927   5.821   1.575   8.095 -0.1868 -0.4142 -0.0418
  129OSM   H15F13928   5.879   1.617   8.180 -0.4112 -0.7225  0.2665
  129OSM   H15G13929   5.875   1.481   8.069  0.0680 -0.5077  0.7875
  129OSM   C16F13930   5.678   1.536   8.145  0.4170  0.4010  0.7254
  129OSM   H16F13931   5.648   1.446   8.088 -0.4788  0.4653  1.0725
  129OSM   H16G13932   5.609   1.620   8.119 -0.9944 -1.0090 -0.2709
  129OSM   C17F13933   5.669   1.493   8.293  0.4592  0.0250  0.2577
  129OSM   H17F13934   5.572   1.445   8.321  1.0487 -0.6690  1.1585
  129OSM   H17G13935   5.669   1.583   8.357  1.5469  0.6179 -0.5563
  129OSM   C18F13936   5.776   1.394   8.338  0.9756  0.0573  0.4978
  129OSM   H18F13937   5.784   1.303   8.275 -0.2029  0.4324 -0.2286
  129OSM   H18G13938   5.780   1.368   8.446  2.1437 -1.6590  0.0860
  129OSM   H18H13939   5.879   1.433   8.324  0.5792  0.5187 -1.4749
  130OSM      N13940   2.543   4.612   5.826 -0.1570  0.1249 -0.0435
  130OSM    C1513941   2.460   4.613   5.704 -0.9376 -0.2142 -0.3472
  130OSM   H15A13942   2.448   4.512   5.668  1.0971 -0.7797  0.4278
  130OSM   H15B13943   2.505   4.666   5.621 -1.1468  1.6295  0.6567
  130OSM   H15C13944   2.364   4.659   5.724  0.3708  2.0772  1.0326
  130OSM    C1413945   2.476   4.520   5.921 -0.0833  0.4944 -0.4653
  130OSM   H14A13946   2.518   4.515   6.021 -1.0425 -4.5641 -0.0149
  130OSM   H14B13947   2.471   4.423   5.874  1.1101  1.2298 -2.1898
  130OSM   H14C13948   2.372   4.547   5.938 -0.3484 -0.3650 -0.6451
  130OSM    C1313949   2.675   4.554   5.802 -0.2051  0.5586 -0.3183
  130OSM   H13A13950   2.662   4.470   5.736  0.6681  0.8843 -0.9311
  130OSM   H13B13951   2.725   4.526   5.894 -0.6058 -0.1577 -0.3147
  130OSM   H13C13952   2.741   4.612   5.739 -0.1765  0.9781  0.0869
  130OSM    C1213953   2.553   4.754   5.885  0.4536 -0.1654  0.0517
  130OSM   H12A13954   2.454   4.797   5.887  0.1614 -0.8489  0.4228
  130OSM   H12B13955   2.602   4.810   5.806 -1.8663  0.2499 -1.1864
  130OSM    C1113956   2.639   4.785   6.009  0.4858  0.2742 -0.0910
  130OSM   H11A13957   2.652   4.892   6.035  1.4888  0.0230  0.5507
  130OSM   H11B13958   2.743   4.752   5.987  0.2106  0.8659 -2.4854
  130OSM      P13959   2.684   4.638   6.217 -0.0571  0.0721  0.7261
  130OSM    O1313960   2.607   4.553   6.308 -0.3921  0.4218  0.3616
  130OSM    O1413961   2.800   4.575   6.145  0.5472 -0.3818 -0.0050
  130OSM    O1113962   2.759   4.758   6.301  0.1972  0.6237  0.2851
  130OSM    O1213963   2.588   4.707   6.124  0.0087  0.4882 -0.1231
  130OSM    C1S13964   2.695   4.821   6.409 -0.4095 -0.2728 -0.3181
  130OSM    H1S13965   2.592   4.850   6.382 -0.9557 -0.9307  0.9835
  130OSM    H1T13966   2.740   4.920   6.433  3.0786 -2.2077  2.1552
  130OSM     NF13967   2.629   4.820   6.646 -0.0654 -0.9443 -0.6109
  130OSM    HNF13968   2.688   4.873   6.705 -0.9275 -0.5882 -0.0481
  130OSM    C2S13969   2.698   4.744   6.543 -0.3921 -0.3982  0.1638
  130OSM    H2S13970   2.654   4.642   6.533  0.9852 -0.9830 -0.1977
  130OSM    C3S13971   2.852   4.717   6.569  0.3540 -0.0284  0.1426
  130OSM    H3S13972   2.910   4.811   6.585 -0.6012  0.4131  1.1000
  130OSM     O313973   2.927   4.647   6.468  0.2136  0.6088  0.1052
  130OSM    HO313974   2.874   4.657   6.389  0.0995  0.0530  0.1054
  130OSM    C4S13975   2.858   4.645   6.702  0.5255 -0.4260  0.1066
  130OSM    H4S13976   2.858   4.720   6.783 -1.0732  1.2931 -1.3836
  130OSM    C5S13977   2.882   4.519   6.735 -0.9302  0.3253 -0.4281
  130OSM    H5S13978   2.915   4.452   6.654 -1.2306  2.0007 -1.9852
  130OSM    C6S13979   2.892   4.462   6.875  0.0902 -0.0300 -0.5320
  130OSM    H6S13980   2.994   4.423   6.896 -0.5942 -0.3290  2.6420
  130OSM    H6T13981   2.823   4.376   6.864  1.6115 -1.4490  0.4620
  130OSM    C7S13982   2.851   4.556   6.995  0.3378  0.9825  0.1828
  130OSM    H7S13983   2.746   4.584   6.972  0.6735  0.6424 -1.9805
  130OSM    H7T13984   2.922   4.641   7.000  0.6856  0.6398  1.3932
  130OSM    C8S13985   2.836   4.488   7.132  0.2472 -0.1782 -0.0652
  130OSM    H8S13986   2.928   4.449   7.181  2.6757  1.5151 -2.8950
  130OSM    H8T13987   2.782   4.392   7.123  3.3779 -1.9386 -1.6525
  130OSM    C9S13988   2.766   4.589   7.237 -0.5139  0.4534  0.2775
  130OSM    H9S13989   2.675   4.625   7.183 -2.2719 -2.3288  1.1304
  130OSM    H9T13990   2.840   4.668   7.262 -0.0817 -0.4527  2.0294
  130OSM   C10S13991   2.716   4.524   7.367  0.6252 -0.1099 -0.2863
  130OSM   H10S13992   2.807   4.483   7.415  1.1781  0.6574 -0.6529
  130OSM   H10T13993   2.643   4.444   7.343  1.5697 -1.6549  1.6637
  130OSM   C11S13994   2.640   4.615   7.459 -0.6798 -0.3144 -0.8773
  130OSM   H11S13995   2.543   4.648   7.418 -0.8604 -0.8252 -0.8632
  130OSM   H11T13996   2.706   4.705   7.462 -0.3690 -0.5509  1.7573
  130OSM   C12S13997   2.637   4.565   7.609 -0.1914 -0.0005  0.5440
  130OSM   H12S13998   2.743   4.565   7.641  0.1091 -0.7890 -0.3952
  130OSM   H12T13999   2.610   4.457   7.615 -1.7158  0.0078 -3.3950
  130OSM   C13S14000   2.552   4.649   7.698  0.2332 -0.5403 -0.2326
  130OSM   H13S14001   2.444   4.629   7.685 -0.8307  3.4694  1.0615
  130OSM   H13T14002   2.568   4.753   7.661 -0.7018 -1.4747 -3.6499
  130OSM   C14S14003   2.598   4.655   7.846  0.5200 -0.0544  0.3502
  130OSM   H14S14004   2.704   4.689   7.847  0.5159  0.0138 -0.4412
  130OSM   H14T14005   2.592   4.555   7.894 -0.5643  0.0770  0.5126
  130OSM   C15S14006   2.521   4.749   7.933  0.1004 -0.3618  0.2090
  130OSM   H15S14007   2.413   4.727   7.944 -0.0559 -0.2537 -1.0407
  130OSM   H15T14008   2.519   4.847   7.880 -0.4734 -0.3257  0.2865
  130OSM   C16S14009   2.577   4.769   8.077  0.3270 -0.2118  0.4800
  130OSM   H16S14010   2.677   4.819   8.073 -0.1982  0.8664  0.2569
  130OSM   H16T14011   2.589   4.665   8.114 -0.2403 -0.7127 -0.7117
  130OSM   C17S14012   2.485   4.846   8.165 -0.3970  0.2567  1.1837
  130OSM   H17S14013   2.380   4.809   8.160 -0.9679  1.9243 -0.1447
  130OSM   H17T14014   2.477   4.947   8.119  0.0970 -0.4409 -0.5044
  130OSM   C18S14015   2.515   4.864   8.314 -0.0825 -0.8724  0.4366
  130OSM   H18S14016   2.415   4.881   8.359  1.0834  1.5112  2.3242
  130OSM   H18T14017   2.583   4.951   8.330  0.1357 -0.4936 -2.0258
  130OSM   H18U14018   2.575   4.776   8.345  0.5108 -1.4071 -1.9650
  130OSM    C1F14019   2.500   4.825   6.677 -0.7462 -1.2242 -0.0483
  130OSM     OF14020   2.431   4.770   6.597  0.2739 -0.2675 -0.2783
  130OSM    C2F14021   2.458   4.896   6.807  0.2543 -0.3919 -0.3362
  130OSM    H2F14022   2.487   5.003   6.797  2.0493 -0.8627 -0.5160
  130OSM    H2G14023   2.518   4.857   6.893 -0.7855 -1.1711  0.0555
  130OSM    C3F14024   2.306   4.892   6.828  0.1699  0.6824 -0.9992
  130OSM    H3F14025   2.270   4.787   6.837  0.8074  0.5631  0.4243
  130OSM    H3G14026   2.265   4.940   6.736  0.9245  1.2270 -1.0645
  130OSM    C4F14027   2.256   4.970   6.956 -0.4382 -0.6677  0.5661
  130OSM    H4F14028   2.148   4.957   6.977 -1.2990  1.4534 -1.9998
  130OSM    H4G14029   2.265   5.077   6.925 -2.2601 -0.9677 -1.2309
  130OSM    C5F14030   2.330   4.932   7.086 -0.5741 -1.0816  0.8769
  130OSM    H5F14031   2.432   4.970   7.065 -1.4447  0.0676 -1.5662
  130OSM    H5G14032   2.328   4.821   7.085 -1.2275 -1.0940 -1.6849
  130OSM    C6F14033   2.278   4.995   7.212 -0.4151  0.3091 -0.1407
  130OSM    H6F14034   2.169   4.976   7.221 -0.1744 -2.1150 -1.4381
  130OSM    H6G14035   2.291   5.105   7.207  5.3803  0.0191  0.7845
  130OSM    C7F14036   2.350   4.941   7.339 -0.1720  0.1680 -0.2426
  130OSM    H7F14037   2.459   4.961   7.329 -0.5108  1.2351 -2.0619
  130OSM    H7G14038   2.322   4.833   7.339 -0.9685  0.3617  0.4746
  130OSM    C8F14039   2.287   5.009   7.459  0.3920 -0.0540 -0.1149
  130OSM    H8F14040   2.178   4.990   7.448  0.6318 -0.9460 -1.0727
  130OSM    H8G14041   2.314   5.115   7.440 -2.4495  0.8737  0.5404
  130OSM    C9F14042   2.342   4.953   7.588 -0.6357  0.7948 -0.4070
  130OSM    H9F14043   2.452   4.948   7.593 -0.6375 -0.9927 -1.3103
  130OSM   C10F14044   2.280   4.915   7.694  0.0904  0.0055  0.1338
  130OSM   H10F14045   2.340   4.872   7.775  2.3542 -0.5779 -1.7287
  130OSM   C11F14046   2.130   4.921   7.714  0.1200  0.4100 -0.4253
  130OSM   H11F14047   2.083   4.836   7.660  2.3483 -1.4905  0.5012
  130OSM   H11G14048   2.088   5.017   7.675 -3.0617 -0.3895  0.7323
  130OSM   C12F14049   2.096   4.914   7.867 -0.5909  0.1284 -0.0461
  130OSM   H12F14050   2.144   4.825   7.913 -1.4321 -1.8682 -2.7822
  130OSM   H12G14051   1.988   4.896   7.884 -0.2812 -0.4921  1.3887
  130OSM   C13F14052   2.149   5.041   7.941 -0.7031  0.4599 -0.9451
  130OSM   H13F14053   2.102   5.129   7.893 -2.1795  0.1333 -0.1521
  130OSM   H13G14054   2.260   5.042   7.939 -0.6742  0.5623  0.3095
  130OSM   C14F14055   2.113   5.031   8.095  0.5641  0.4886  0.5720
  130OSM   H14F14056   2.147   4.928   8.120  0.8946  0.0152 -1.5918
  130OSM   H14G14057   2.004   5.023   8.111  0.4692 -2.0373 -0.7175
  130OSM   C15F14058   2.184   5.134   8.178 -0.4133  1.1386 -0.3836
  130OSM   H15F14059   2.181   5.236   8.134 -2.0170  0.7618 -1.2450
  130OSM   H15G14060   2.293   5.114   8.177 -0.7142 -0.8403  1.0437
  130OSM   C16F14061   2.129   5.123   8.327 -0.1570  0.3357  0.6984
  130OSM   H16F14062   2.123   5.020   8.368  1.0375 -0.2043 -0.3956
  130OSM   H16G14063   2.023   5.153   8.320 -0.6913 -1.0686  2.2603
  130OSM   C17F14064   2.188   5.210   8.429  0.2485 -0.8330  0.4328
  130OSM   H17F14065   2.286   5.167   8.458 -0.5859 -2.1167  1.5153
  130OSM   H17G14066   2.119   5.210   8.517  0.4816 -1.4317  0.6204
  130OSM   C18F14067   2.200   5.359   8.396  0.3080 -0.2041 -0.0547
  130OSM   H18F14068   2.224   5.420   8.486  4.4250 -2.6020  0.7433
  130OSM   H18G14069   2.108   5.393   8.344  0.6068  0.3446 -0.2235
  130OSM   H18H14070   2.294   5.364   8.338  1.1014  3.1370  1.3014
  131OSM      N14071   0.859   6.444   6.124 -0.0424  0.2905 -0.3069
  131OSM    C1514072   0.937   6.455   6.000  0.3092  0.1341 -0.2102
  131OSM   H15A14073   0.882   6.516   5.931 -0.5069  0.7992  1.0044
  131OSM   H15B14074   0.961   6.356   5.964 -0.2970 -0.6147  1.3645
  131OSM   H15C14075   1.023   6.520   5.996  0.4012  0.0047 -0.3295
  131OSM    C1414076   0.830   6.579   6.183  0.0155  0.0926 -0.0532
  131OSM   H14A14077   0.917   6.627   6.226  1.7611 -0.0537 -3.1492
  131OSM   H14B14078   0.765   6.564   6.268 -0.1582  1.3612  0.0510
  131OSM   H14C14079   0.783   6.641   6.109  0.6250 -0.5401 -0.9808
  131OSM    C1314080   0.733   6.379   6.069  0.3263  0.3247  0.3330
  131OSM   H13A14081   0.679   6.447   6.005  2.2410  0.5199 -1.1463
  131OSM   H13B14082   0.672   6.343   6.151 -1.0491  2.4074  0.2944
  131OSM   H13C14083   0.764   6.297   6.007  1.1313  2.5860 -2.4359
  131OSM    C1214084   0.934   6.346   6.217  0.4999  0.2442  0.4086
  131OSM   H12A14085   0.936   6.244   6.181 -0.1810 -0.6236  2.6730
  131OSM   H12B14086   0.874   6.335   6.306 -0.0723 -2.8629 -0.2440
  131OSM    C1114087   1.077   6.376   6.255 -0.4563 -0.1937  0.0506
  131OSM   H11A14088   1.107   6.329   6.351 -0.6529 -0.5831 -0.0791
  131OSM   H11B14089   1.086   6.485   6.276 -3.6166  0.0306  0.7454
  131OSM      P14090   1.211   6.182   6.151 -0.2238 -0.2434  0.3582
  131OSM    O1314091   1.089   6.101   6.151  0.1851  0.3832 -0.5246
  131OSM    O1414092   1.307   6.162   6.041 -0.6462  0.2353 -0.1614
  131OSM    O1114093   1.291   6.153   6.292  0.2871 -0.0900 -0.2315
  131OSM    O1214094   1.176   6.335   6.158 -0.6605  0.5754  0.2957
  131OSM    C1S14095   1.411   6.236   6.310  0.2197 -0.2091 -1.1987
  131OSM    H1S14096   1.422   6.320   6.238  2.3090  1.1985  0.6184
  131OSM    H1T14097   1.500   6.170   6.301  1.6504  1.4522  0.1359
  131OSM     NF14098   1.531   6.396   6.453  0.4202 -0.2269 -0.3758
  131OSM    HNF14099   1.610   6.367   6.508  0.4285 -2.1389 -1.2959
  131OSM    C2S14100   1.416   6.304   6.450 -0.1313  0.0422 -0.2795
  131OSM    H2S14101   1.325   6.368   6.457  0.0296  0.4142 -1.4397
  131OSM    C3S14102   1.412   6.204   6.574 -0.0231 -0.1171 -0.0695
  131OSM    H3S14103   1.500   6.138   6.562  0.9462  1.3065 -1.2516
  131OSM     O314104   1.304   6.111   6.569  0.3074 -0.7279  0.2306
  131OSM    HO314105   1.273   6.123   6.479 -0.4085 -1.0688  0.4225
  131OSM    C4S14106   1.414   6.273   6.707  0.2102  0.6086  0.0655
  131OSM    H4S14107   1.518   6.285   6.742 -0.2246  0.5626  1.4306
  131OSM    C5S14108   1.309   6.314   6.780  0.0366 -0.5482  0.3008
  131OSM    H5S14109   1.206   6.290   6.751 -0.8017  0.0166  2.6017
  131OSM    C6S14110   1.316   6.365   6.922 -0.0886  0.3287 -0.2775
  131OSM    H6S14111   1.232   6.436   6.943 -0.8134 -0.5325 -0.2256
  131OSM    H6T14112   1.404   6.430   6.943  0.7833  0.4312 -3.7578
  131OSM    C7S14113   1.296   6.248   7.025  0.6316 -0.5503 -0.3851
  131OSM    H7S14114   1.392   6.191   7.025 -0.0076 -1.6677  0.8794
  131OSM    H7T14115   1.209   6.184   6.999 -0.1993 -0.4119  1.8220
  131OSM    C8S14116   1.277   6.306   7.160 -0.1207 -0.3986 -0.4435
  131OSM    H8S14117   1.179   6.359   7.163 -1.4871 -2.4609 -3.3880
  131OSM    H8T14118   1.358   6.380   7.178 -0.4689 -0.0747 -0.2049
  131OSM    C9S14119   1.284   6.207   7.270  0.0310  0.2532 -0.0232
  131OSM    H9S14120   1.375   6.144   7.263 -1.0956 -1.5164  0.4863
  131OSM    H9T14121   1.201   6.134   7.259  0.6413 -0.0840 -3.1524
  131OSM   C10S14122   1.273   6.275   7.403 -0.1788  0.8456  0.2081
  131OSM   H10S14123   1.182   6.340   7.401 -2.2613 -1.8033  2.0304
  131OSM   H10T14124   1.370   6.323   7.425  0.6303 -0.7636  0.2544
  131OSM   C11S14125   1.237   6.166   7.509  0.3439 -0.5963 -0.7551
  131OSM   H11S14126   1.294   6.074   7.485 -1.7077 -2.2923  0.4417
  131OSM   H11T14127   1.127   6.146   7.505 -0.3459  1.7449  2.3659
  131OSM   C12S14128   1.278   6.196   7.655  0.1162  0.3153 -0.0783
  131OSM   H12S14129   1.362   6.268   7.650  1.5751 -1.3447 -0.2896
  131OSM   H12T14130   1.312   6.101   7.702 -1.4246 -0.1203  0.2136
  131OSM   C13S14131   1.157   6.252   7.729  0.0397  0.4266  0.3704
  131OSM   H13S14132   1.073   6.180   7.736  0.7541 -0.5825 -0.9978
  131OSM   H13T14133   1.128   6.338   7.665 -0.5659 -0.3058 -0.3728
  131OSM   C14S14134   1.201   6.297   7.871  0.1051  0.0121  0.0975
  131OSM   H14S14135   1.273   6.380   7.854 -1.4330  1.1227 -1.2704
  131OSM   H14T14136   1.226   6.208   7.932 -0.8900 -0.8016 -0.6483
  131OSM   C15S14137   1.099   6.368   7.953  0.4029 -0.5819 -1.4461
  131OSM   H15S14138   1.014   6.297   7.960  0.1270 -0.3531 -2.2992
  131OSM   H15T14139   1.064   6.455   7.893  0.0908  1.2833  1.2699
  131OSM   C16S14140   1.150   6.410   8.086  0.5871  0.5826 -0.5094
  131OSM   H16S14141   1.239   6.476   8.073  1.1230 -0.3207 -1.5949
  131OSM   H16T14142   1.187   6.327   8.150 -1.3208  0.3267  0.3283
  131OSM   C17S14143   1.047   6.491   8.168 -0.3765  0.3013  0.1226
  131OSM   H17S14144   0.961   6.422   8.181 -0.8219  0.2190 -2.7142
  131OSM   H17T14145   1.017   6.581   8.110 -0.5991  1.2330  1.5959
  131OSM   C18S14146   1.104   6.528   8.307 -0.5744 -0.3657  0.1687
  131OSM   H18S14147   1.022   6.574   8.367  0.3352  2.0800 -0.3696
  131OSM   H18T14148   1.180   6.608   8.298  0.8325 -1.4285  1.9543
  131OSM   H18U14149   1.143   6.433   8.351  1.3049 -0.0981 -0.8266
  131OSM    C1F14150   1.537   6.514   6.388 -0.3175  0.0550  0.1770
  131OSM     OF14151   1.439   6.551   6.328 -0.4999 -0.2697  0.2942
  131OSM    C2F14152   1.662   6.599   6.388 -0.2732  0.0939 -0.0086
  131OSM    H2F14153   1.686   6.622   6.282 -0.5269  2.4713  0.4006
  131OSM    H2G14154   1.747   6.538   6.426  1.2942  2.2029  0.0768
  131OSM    C3F14155   1.633   6.737   6.448  0.0486 -0.8257  0.1003
  131OSM    H3F14156   1.549   6.768   6.382  1.3470  0.5409 -0.9617
  131OSM    H3G14157   1.719   6.806   6.435  0.0010 -0.8758 -0.5071
  131OSM    C4F14158   1.595   6.736   6.599 -0.2922  0.0269 -0.3325
  131OSM    H4F14159   1.520   6.657   6.621 -0.0000  0.1013  1.0602
  131OSM    H4G14160   1.557   6.838   6.622  0.9538  0.6513 -0.9464
  131OSM    C5F14161   1.715   6.718   6.699 -0.0464  0.7471 -0.1315
  131OSM    H5F14162   1.782   6.807   6.695  0.6398  0.2488  0.1481
  131OSM    H5G14163   1.770   6.628   6.663  1.1393  1.0241  0.8969
  131OSM    C6F14164   1.678   6.705   6.847 -0.9318 -0.3516  0.2128
  131OSM    H6F14165   1.642   6.601   6.863 -1.0457 -0.5793 -1.3574
  131OSM    H6G14166   1.596   6.777   6.867 -0.9695  0.1720 -1.6424
  131OSM    C7F14167   1.800   6.744   6.941 -0.3572  0.3931  0.2340
  131OSM    H7F14168   1.829   6.850   6.921  0.0618  0.2868  0.2670
  131OSM    H7G14169   1.890   6.688   6.907  1.3949  2.8637  0.5552
  131OSM    C8F14170   1.786   6.728   7.090 -0.4568 -0.5652 -0.0151
  131OSM    H8F14171   1.718   6.810   7.122  1.0375  0.9007 -0.4616
  131OSM    H8G14172   1.873   6.755   7.152 -0.3263 -1.0223  0.0041
  131OSM    C9F14173   1.744   6.589   7.131  0.2915  0.6288 -0.4042
  131OSM    H9F14174   1.811   6.504   7.111 -2.9030 -2.0642 -0.4198
  131OSM   C10F14175   1.626   6.559   7.193 -0.5257  0.3779  0.2660
  131OSM   H10F14176   1.600   6.454   7.212  3.8814 -0.8802  0.4259
  131OSM   C11F14177   1.515   6.659   7.224 -0.4671  1.0161 -0.3396
  131OSM   H11F14178   1.424   6.599   7.205  1.0958 -1.7778  0.4304
  131OSM   H11G14179   1.523   6.743   7.151 -3.1831  0.4252 -1.4419
  131OSM   C12F14180   1.504   6.701   7.371  0.0922 -0.4990  0.5020
  131OSM   H12F14181   1.418   6.771   7.378  0.3851 -0.1355  0.5223
  131OSM   H12G14182   1.595   6.758   7.400  0.0841  0.2758 -0.8931
  131OSM   C13F14183   1.475   6.579   7.461  0.1061  0.0202 -0.0347
  131OSM   H13F14184   1.551   6.500   7.447 -0.2626 -0.3944  0.2538
  131OSM   H13G14185   1.375   6.550   7.421  0.3404 -0.6883 -0.1152
  131OSM   C14F14186   1.463   6.607   7.609 -0.1560 -0.3426 -0.0716
  131OSM   H14F14187   1.563   6.645   7.639 -0.0272  1.2302 -2.2510
  131OSM   H14G14188   1.427   6.515   7.660  2.7657 -1.6488 -0.1369
  131OSM   C15F14189   1.376   6.721   7.651  0.3433 -0.0245 -0.5342
  131OSM   H15F14190   1.282   6.722   7.591  0.8579  1.9987 -1.3879
  131OSM   H15G14191   1.423   6.817   7.619 -0.5113  1.4918  2.3535
  131OSM   C16F14192   1.334   6.729   7.799  0.3690 -0.5096 -0.0588
  131OSM   H16F14193   1.275   6.639   7.824 -1.6004  0.1304 -2.1125
  131OSM   H16G14194   1.267   6.816   7.816 -0.5620 -1.3718  0.7660
  131OSM   C17F14195   1.457   6.753   7.886 -0.1702  0.1507 -0.5557
  131OSM   H17F14196   1.514   6.845   7.862  0.8510 -0.5302 -0.8148
  131OSM   H17G14197   1.531   6.671   7.874 -1.0225 -0.5417 -1.2739
  131OSM   C18F14198   1.416   6.748   8.032  0.2469 -0.4726 -0.4079
  131OSM   H18F14199   1.503   6.783   8.091 -0.8850 -1.3764  1.9177
  131OSM   H18G14200   1.387   6.643   8.054 -1.1318 -0.3582 -1.5187
  131OSM   H18H14201   1.332   6.809   8.072  0.9284  1.1605 -1.3632
  132OSM      N14202   6.474   1.631   5.795 -0.5699  0.2983  0.5707
  132OSM    C1514203   6.489   1.578   5.651 -0.0773 -0.2576  0.5268
  132OSM   H15A14204   6.439   1.483   5.637 -0.6133  0.0756  0.1387
  132OSM   H15B14205   6.590   1.564   5.615 -0.4383  0.9810 -1.0910
  132OSM   H15C14206   6.455   1.652   5.580  0.3877  1.4846  2.0278
  132OSM    C1414207   6.555   1.755   5.802 -0.3674  0.0424 -0.1694
  132OSM   H14A14208   6.582   1.789   5.901  1.9226  2.7776 -1.5646
  132OSM   H14B14209   6.509   1.841   5.754  1.3937  0.9102 -0.3840
  132OSM   H14C14210   6.654   1.734   5.764  0.8087 -0.6423  2.9711
  132OSM    C1314211   6.334   1.669   5.813  0.2887 -0.3981 -0.0256
  132OSM   H13A14212   6.301   1.733   5.733  1.5652  1.8215  1.1560
  132OSM   H13B14213   6.325   1.719   5.908 -0.7514  0.3902 -0.5142
  132OSM   H13C14214   6.272   1.581   5.800  0.1857 -0.4448  0.7582
  132OSM    C1214215   6.519   1.533   5.893  0.9443  0.5851  0.5352
  132OSM   H12A14216   6.621   1.499   5.886  0.8133 -0.9955  3.8994
  132OSM   H12B14217   6.458   1.444   5.890  1.1481  0.1696  4.0248
  132OSM    C1114218   6.503   1.572   6.033 -0.1313  0.4570 -1.0372
  132OSM   H11A14219   6.537   1.677   6.039 -2.1272  1.2711 -2.8001
  132OSM   H11B14220   6.570   1.510   6.097 -1.3144  0.3182  0.1143
  132OSM      P14221   6.304   1.422   6.109  0.5428 -0.0411  0.3365
  132OSM    O1314222   6.177   1.442   6.179  0.2252  1.0540 -0.4422
  132OSM    O1414223   6.295   1.346   5.979 -0.8406  0.2004  0.0646
  132OSM    O1114224   6.411   1.346   6.196 -0.1737 -0.6549  0.4926
  132OSM    O1214225   6.369   1.568   6.091  0.2686 -0.3204  0.8338
  132OSM    C1S14226   6.463   1.408   6.315 -0.8850  0.0546  0.0310
  132OSM    H1S14227   6.451   1.519   6.312  2.9301  0.7082  1.9039
  132OSM    H1T14228   6.569   1.381   6.332 -0.3763  0.5635 -2.0254
  132OSM     NF14229   6.423   1.440   6.543  0.0239  0.4237 -0.1094
  132OSM    HNF14230   6.479   1.400   6.615  1.1550  2.5281  0.2657
  132OSM    C2S14231   6.385   1.355   6.436 -0.8693 -0.2954 -0.2053
  132OSM    H2S14232   6.275   1.369   6.431 -1.1594 -1.0215  2.5684
  132OSM    C3S14233   6.425   1.202   6.453  0.1496  0.2387 -0.4943
  132OSM    H3S14234   6.536   1.197   6.449  0.1581  0.2089 -0.2905
  132OSM     O314235   6.364   1.134   6.341  0.0584  0.4462  0.5487
  132OSM    HO314236   6.343   1.200   6.274 -2.5066 -0.5253  0.2659
  132OSM    C4S14237   6.371   1.149   6.585 -0.5493  0.0061  0.0738
  132OSM    H4S14238   6.456   1.122   6.649  0.5042  0.0141 -1.2855
  132OSM    C5S14239   6.246   1.114   6.629 -0.2990 -0.2104  0.2295
  132OSM    H5S14240   6.168   1.112   6.551  0.0124 -0.7565 -0.0722
  132OSM    C6S14241   6.198   1.073   6.769  0.3269  0.4318 -0.5040
  132OSM    H6S14242   6.169   0.966   6.770 -1.1788  0.8157 -1.2655
  132OSM    H6T14243   6.118   1.141   6.804  0.7696 -0.7342  3.1177
  132OSM    C7S14244   6.309   1.100   6.871 -0.2283 -0.1414  0.0111
  132OSM    H7S14245   6.357   1.199   6.858 -0.0094 -0.0429  1.3527
  132OSM    H7T14246   6.381   1.016   6.857 -1.1213 -1.2348  1.5975
  132OSM    C8S14247   6.255   1.082   7.008  0.1651 -0.0774 -0.1492
  132OSM    H8S14248   6.239   0.973   7.024 -2.6623  0.1598 -0.6964
  132OSM    H8T14249   6.150   1.121   7.005  0.4424  0.8641 -4.0390
  132OSM    C9S14250   6.316   1.149   7.136  0.9616  0.0801 -0.6627
  132OSM    H9S14251   6.314   1.260   7.127 -0.1073  0.1666  0.2896
  132OSM    H9T14252   6.417   1.106   7.149 -0.1279 -2.0546  1.8998
  132OSM   C10S14253   6.253   1.111   7.271  0.2566 -0.2331 -0.8495
  132OSM   H10S14254   6.144   1.089   7.264  0.0366  0.3397  0.4621
  132OSM   H10T14255   6.282   1.196   7.336 -2.4482 -0.2948  0.5816
  132OSM   C11S14256   6.324   0.997   7.347 -0.2051  0.7433  0.0327
  132OSM   H11S14257   6.434   1.003   7.363  0.3299 -3.8757 -0.6849
  132OSM   H11T14258   6.302   0.901   7.296 -2.7622  1.4642 -0.3239
  132OSM   C12S14259   6.265   0.978   7.490  0.3001  0.0429 -0.3635
  132OSM   H12S14260   6.301   0.877   7.518 -0.7137 -0.2389 -0.0276
  132OSM   H12T14261   6.155   0.968   7.478 -0.0227  0.4952  1.7372
  132OSM   C13S14262   6.310   1.086   7.588 -0.0553 -0.3015 -0.0307
  132OSM   H13S14263   6.278   1.189   7.562 -2.0639 -0.4578  1.5472
  132OSM   H13T14264   6.420   1.077   7.590 -0.0345 -0.2007 -0.5335
  132OSM   C14S14265   6.234   1.060   7.728 -0.4086 -0.1201  0.0181
  132OSM   H14S14266   6.134   1.025   7.693  0.4223 -0.0620 -2.5921
  132OSM   H14T14267   6.228   1.159   7.777 -2.6648 -0.0221 -0.3480
  132OSM   C15S14268   6.307   0.959   7.814  0.1136  0.8682 -0.3434
  132OSM   H15S14269   6.412   0.986   7.837  0.7873 -0.8334 -1.2123
  132OSM   H15T14270   6.326   0.860   7.767 -1.5712 -0.0004  0.7187
  132OSM   C16S14271   6.227   0.922   7.942 -0.0787  0.2514  0.1920
  132OSM   H16S14272   6.136   0.871   7.904 -0.7674  1.2075  0.5273
  132OSM   H16T14273   6.194   1.012   7.997 -0.3686 -0.7691  1.7456
  132OSM   C17S14274   6.303   0.824   8.041 -0.0059 -0.2510  0.1802
  132OSM   H17S14275   6.394   0.880   8.073  0.4673 -0.0145 -1.4865
  132OSM   H17T14276   6.334   0.727   7.995  1.0130 -0.0768  0.4669
  132OSM   C18S14277   6.211   0.796   8.159 -0.3951 -0.5626  0.0390
  132OSM   H18S14278   6.175   0.889   8.209 -2.0488 -0.4035 -1.3542
  132OSM   H18T14279   6.261   0.727   8.231 -0.5217  0.5169  1.1941
  132OSM   H18U14280   6.128   0.728   8.128 -0.7302  0.6703 -1.8962
  132OSM    C1F14281   6.405   1.567   6.561 -0.0954 -0.7788  0.0104
  132OSM     OF14282   6.335   1.639   6.494  0.0695 -0.4484 -0.5136
  132OSM    C2F14283   6.473   1.620   6.683  0.0232 -0.6867  0.7311
  132OSM    H2F14284   6.580   1.592   6.670  0.0269 -0.6688  0.7213
  132OSM    H2G14285   6.443   1.556   6.768  0.0916 -0.1477  1.1705
  132OSM    C3F14286   6.444   1.766   6.711  0.0421  0.0376 -0.6834
  132OSM    H3F14287   6.335   1.787   6.724 -0.0874 -1.6916  1.8105
  132OSM    H3G14288   6.485   1.815   6.621 -0.9111  0.3020 -0.9934
  132OSM    C4F14289   6.510   1.814   6.838 -0.3440  0.6090  0.3495
  132OSM    H4F14290   6.501   1.924   6.846 -0.7488  0.6909 -1.0203
  132OSM    H4G14291   6.620   1.806   6.823 -0.7006 -0.8140 -2.1294
  132OSM    C5F14292   6.481   1.739   6.973 -0.1436  0.3573  1.1884
  132OSM    H5F14293   6.514   1.634   6.964 -0.4352  0.3271  0.2822
  132OSM    H5G14294   6.371   1.736   6.990  0.0708 -2.2262  2.5810
  132OSM    C6F14295   6.556   1.801   7.093 -0.5474 -0.0309 -0.7933
  132OSM    H6F14296   6.656   1.832   7.056 -0.7288  1.4147 -0.1569
  132OSM    H6G14297   6.575   1.720   7.167  1.2989  2.4666  1.7097
  132OSM    C7F14298   6.490   1.934   7.149 -0.2244  0.1165  0.2025
  132OSM    H7F14299   6.400   1.906   7.207 -1.1064  0.1058 -1.1083
  132OSM    H7G14300   6.458   2.003   7.067 -0.6852 -0.1072  0.1906
  132OSM    C8F14301   6.600   2.001   7.242  0.4897  0.8034 -0.2046
  132OSM    H8F14302   6.566   2.103   7.267 -1.7476  0.2488 -0.6763
  132OSM    H8G14303   6.690   2.010   7.178 -1.0398  2.3364 -2.3010
  132OSM    C9F14304   6.609   1.924   7.370 -0.2426  0.1648  0.8294
  132OSM    H9F14305   6.654   1.825   7.353  2.4392  1.3025  0.8215
  132OSM   C10F14306   6.566   1.957   7.493 -0.5838 -0.0515  0.4484
  132OSM   H10F14307   6.583   1.883   7.572  1.7099 -0.5547 -0.4112
  132OSM   C11F14308   6.508   2.092   7.533  0.5039 -0.8693 -0.0393
  132OSM   H11F14309   6.402   2.065   7.554 -0.7177  2.1938 -1.5906
  132OSM   H11G14310   6.513   2.161   7.446 -0.4116 -0.6542  0.0681
  132OSM   C12F14311   6.560   2.168   7.658  0.0242 -0.2484 -0.2542
  132OSM   H12F14312   6.616   2.258   7.626  1.1235 -1.0656 -0.7162
  132OSM   H12G14313   6.637   2.111   7.714 -0.8828  0.0247  1.3164
  132OSM   C13F14314   6.451   2.208   7.756  0.2187  0.1241 -0.4585
  132OSM   H13F14315   6.390   2.116   7.768  0.4563  0.1380  1.0793
  132OSM   H13G14316   6.392   2.288   7.706  1.7658  0.8101 -1.2601
  132OSM   C14F14317   6.506   2.253   7.892 -0.0086 -0.1513  1.2137
  132OSM   H14F14318   6.419   2.290   7.950  0.7705  1.6127  1.3164
  132OSM   H14G14319   6.590   2.325   7.883 -1.1874  0.9881 -2.0229
  132OSM   C15F14320   6.551   2.128   7.970  0.0414  0.0601 -0.0164
  132OSM   H15F14321   6.641   2.080   7.926 -0.0730  1.1937 -1.5865
  132OSM   H15G14322   6.465   2.058   7.956 -0.6270  1.0953 -1.3877
  132OSM   C16F14323   6.568   2.164   8.115  0.9637 -0.5239 -0.4074
  132OSM   H16F14324   6.471   2.182   8.167  1.1912  0.5292 -0.3432
  132OSM   H16G14325   6.638   2.248   8.131 -1.1973  1.4327 -0.8203
  132OSM   C17F14326   6.619   2.044   8.198  0.3447  0.4505  0.4673
  132OSM   H17F14327   6.724   2.023   8.172  0.2126 -0.0517  0.3237
  132OSM   H17G14328   6.559   1.952   8.181  1.2315  0.0444 -0.5208
  132OSM   C18F14329   6.598   2.071   8.347 -0.9255 -0.7816 -0.0066
  132OSM   H18F14330   6.679   2.139   8.381  0.5473 -1.7805 -1.3888
  132OSM   H18G14331   6.605   1.981   8.412  2.9761 -0.9169 -0.3482
  132OSM   H18H14332   6.504   2.128   8.363 -0.5918  0.2832 -1.6435
  133OSM      N14333   6.541   0.969   6.034 -0.3067  0.3368  0.1714
  133OSM    C1514334   6.588   0.911   5.911  0.0539 -0.2033  0.2434
  133OSM   H15A14335   6.603   0.804   5.915  1.1786 -0.1080 -0.9175
  133OSM   H15B14336   6.680   0.958   5.879  0.1755 -0.6163 -0.0185
  133OSM   H15C14337   6.513   0.924   5.834 -0.7342 -0.1206  1.0097
  133OSM    C1414338   6.515   1.111   6.008 -0.4695 -0.0629  0.1864
  133OSM   H14A14339   6.506   1.169   6.098 -1.0682  1.8674 -1.0633
  133OSM   H14B14340   6.427   1.128   5.947 -0.0184  2.7760  0.1715
  133OSM   H14C14341   6.593   1.154   5.947 -0.5579 -0.4253 -0.1867
  133OSM    C1314342   6.413   0.910   6.072 -0.0600 -0.1158 -0.0253
  133OSM   H13A14343   6.365   0.909   5.975  1.2433  2.5004 -0.7822
  133OSM   H13B14344   6.372   0.974   6.148  2.4202 -1.4374  2.6109
  133OSM   H13C14345   6.419   0.809   6.110 -1.6908  0.0862  0.8688
  133OSM    C1214346   6.637   0.964   6.153 -0.9534 -0.3625  0.5648
  133OSM   H12A14347   6.648   0.859   6.177  0.9243 -0.2271  0.3827
  133OSM   H12B14348   6.594   1.028   6.228 -2.1859 -0.5014  0.0104
  133OSM    C1114349   6.785   1.018   6.126  0.0581 -0.0357 -0.7187
  133OSM   H11A14350   6.840   0.967   6.044  0.0356 -0.9556 -0.1773
  133OSM   H11B14351   6.843   0.986   6.215  1.2813  0.2785 -1.3756
  133OSM      P14352   6.835   1.256   6.220  0.2998 -0.6235  0.2960
  133OSM    O1314353   6.981   1.250   6.230  0.2902 -0.1396 -0.5376
  133OSM    O1414354   6.775   1.390   6.202  0.2166  0.7655  0.5059
  133OSM    O1114355   6.771   1.180   6.346 -0.6550  0.3516  0.2792
  133OSM    O1214356   6.794   1.157   6.109 -0.4123 -0.5357  0.1387
  133OSM    C1S14357   6.827   1.215   6.473 -0.7142  0.5071 -0.6356
  133OSM    H1S14358   6.810   1.323   6.495  1.3377  0.7066  0.1758
  133OSM    H1T14359   6.936   1.197   6.485 -0.7710  0.9935  0.8001
  133OSM     NF14360   6.794   1.189   6.721 -0.7455  0.1253  0.0064
  133OSM    HNF14361   6.843   1.134   6.788  0.3158  0.6540 -0.3119
  133OSM    C2S14362   6.766   1.126   6.593  0.4056 -0.1369 -0.2175
  133OSM    H2S14363   6.657   1.117   6.574  0.3214  0.5066 -0.0574
  133OSM    C3S14364   6.812   0.974   6.592 -0.2016 -0.6480  0.3500
  133OSM    H3S14365   6.919   0.976   6.621  0.0109 -1.3329 -0.3445
  133OSM     O314366   6.806   0.903   6.465 -0.4011  0.7722 -0.8042
  133OSM    HO314367   6.814   0.976   6.402 -1.5499  0.2154 -1.6321
  133OSM    C4S14368   6.736   0.890   6.697 -0.1212  0.0675 -0.5202
  133OSM    H4S14369   6.798   0.867   6.785  1.0095  1.0456 -1.0249
  133OSM    C5S14370   6.608   0.847   6.688 -0.0229 -0.2632  0.2173
  133OSM    H5S14371   6.548   0.866   6.598  0.3242 -1.0057 -0.1836
  133OSM    C6S14372   6.536   0.765   6.803  0.1617 -0.5360  0.5365
  133OSM    H6S14373   6.529   0.656   6.784 -1.1729 -0.4569  0.4876
  133OSM    H6T14374   6.431   0.797   6.815 -0.5245 -2.4189 -0.1545
  133OSM    C7S14375   6.592   0.774   6.948 -0.6229  0.1096 -0.2889
  133OSM    H7S14376   6.617   0.879   6.974  0.1380  0.0970 -0.9191
  133OSM    H7T14377   6.684   0.712   6.948 -1.5483 -1.3048  0.7661
  133OSM    C8S14378   6.485   0.725   7.047 -0.4829 -0.3605  0.0805
  133OSM    H8S14379   6.462   0.620   7.021  0.1554 -0.7692  1.1052
  133OSM    H8T14380   6.397   0.793   7.049  1.2646  2.0391  0.0943
  133OSM    C9S14381   6.550   0.731   7.179  0.2276  0.3208 -0.5196
  133OSM    H9S14382   6.573   0.838   7.202 -1.2532  0.4834  0.3849
  133OSM    H9T14383   6.650   0.685   7.181  0.1547  0.1831  0.7889
  133OSM   C10S14384   6.474   0.667   7.301 -0.2438  0.7295 -0.3778
  133OSM   H10S14385   6.461   0.558   7.286 -0.1552  0.7556 -0.6523
  133OSM   H10T14386   6.374   0.707   7.329  0.2874  2.0251 -0.2586
  133OSM   C11S14387   6.550   0.688   7.428  0.2819  0.1636 -0.5581
  133OSM   H11S14388   6.561   0.796   7.451  0.4085 -0.1122  0.7673
  133OSM   H11T14389   6.652   0.648   7.410  0.6247  1.3039 -1.2638
  133OSM   C12S14390   6.490   0.629   7.557 -0.3250  0.1982 -0.7365
  133OSM   H12S14391   6.467   0.521   7.545  1.3496 -0.0672 -1.8949
  133OSM   H12T14392   6.411   0.698   7.595 -0.8824  0.1787 -1.8133
  133OSM   C13S14393   6.608   0.629   7.666  0.0658  0.7065  0.1999
  133OSM   H13S14394   6.665   0.723   7.646  1.1703  0.1162  0.5123
  133OSM   H13T14395   6.671   0.538   7.662 -0.0407  0.6316  0.2174
  133OSM   C14S14396   6.563   0.638   7.808 -0.0976 -0.0456 -1.3947
  133OSM   H14S14397   6.492   0.555   7.826 -0.2683  0.6006  1.3305
  133OSM   H14T14398   6.511   0.734   7.828 -0.0377  0.0824 -1.8341
  133OSM   C15S14399   6.683   0.642   7.903  1.0412  0.3039  0.2831
  133OSM   H15S14400   6.763   0.712   7.869  1.2597 -0.7605 -1.5148
  133OSM   H15T14401   6.738   0.546   7.895 -2.3534 -1.6841 -0.9511
  133OSM   C16S14402   6.645   0.672   8.047 -0.2600 -0.5749  0.7015
  133OSM   H16S14403   6.550   0.619   8.069 -1.5601  0.5738 -1.7521
  133OSM   H16T14404   6.623   0.780   8.057 -1.3806 -0.5486 -1.3943
  133OSM   C17S14405   6.759   0.650   8.143  1.1211  0.3776  0.3509
  133OSM   H17S14406   6.843   0.721   8.129 -0.4410  3.1102  3.4534
  133OSM   H17T14407   6.795   0.547   8.121  0.8990  0.4400 -0.3216
  133OSM   C18S14408   6.724   0.658   8.295 -0.1228  0.1763 -0.3130
  133OSM   H18S14409   6.614   0.650   8.309  0.0645  0.5744  1.7453
  133OSM   H18T14410   6.766   0.755   8.331 -1.0981  0.0392  1.3094
  133OSM   H18U14411   6.770   0.571   8.346 -1.1614 -0.1331  0.1146
  133OSM    C1F14412   6.747   1.306   6.754 -0.6113  0.0676  0.2222
  133OSM     OF14413   6.652   1.355   6.701  0.3469 -0.1089  0.4496
  133OSM    C2F14414   6.796   1.364   6.884  0.1345  0.3945  0.6238
  133OSM    H2F14415   6.835   1.468   6.873 -0.4270  0.4886 -0.7804
  133OSM    H2G14416   6.888   1.314   6.920 -0.1357  0.1426  0.9594
  133OSM    C3F14417   6.685   1.351   6.993 -0.8841 -0.1630 -0.6802
  133OSM    H3F14418   6.668   1.241   7.000 -0.1105 -0.3336 -1.3921
  133OSM    H3G14419   6.584   1.390   6.965 -0.2107  3.2547  1.0747
  133OSM    C4F14420   6.727   1.422   7.122 -0.5727  0.6015  0.2817
  133OSM    H4F14421   6.760   1.524   7.096  0.1113  0.4047  0.3745
  133OSM    H4G14422   6.821   1.374   7.156  0.4560  0.2925 -2.6876
  133OSM    C5F14423   6.634   1.413   7.236  0.4321 -0.4016 -0.2464
  133OSM    H5F14424   6.596   1.309   7.241 -1.8013  0.2565 -1.9637
  133OSM    H5G14425   6.543   1.474   7.225  1.9764  2.4855  1.7693
  133OSM    C6F14426   6.702   1.434   7.372 -0.0389 -0.2935  0.0345
  133OSM    H6F14427   6.752   1.533   7.378  1.2283 -0.8899 -0.3825
  133OSM    H6G14428   6.781   1.356   7.384 -2.3749 -3.4063 -2.8282
  133OSM    C7F14429   6.596   1.439   7.490  0.7977  0.4567 -0.3700
  133OSM    H7F14430   6.526   1.353   7.490  0.4734  0.7159 -0.9165
  133OSM    H7G14431   6.530   1.527   7.477  0.7242  0.3216 -0.9212
  133OSM    C8F14432   6.665   1.444   7.625 -0.0212 -0.0384 -0.1938
  133OSM    H8F14433   6.733   1.358   7.640 -1.3790 -0.6993  2.9686
  133OSM    H8G14434   6.594   1.422   7.707 -0.4277 -1.0243 -0.7941
  133OSM    C9F14435   6.738   1.568   7.647 -0.0966 -0.5129 -0.2519
  133OSM    H9F14436   6.790   1.596   7.555 -0.7713 -0.6606 -0.6806
  133OSM   C10F14437   6.740   1.660   7.748  0.3183 -0.1129 -0.2959
  133OSM   H10F14438   6.793   1.755   7.735  0.2919 -0.1466 -0.6566
  133OSM   C11F14439   6.651   1.658   7.877 -0.0958  0.1408 -0.7964
  133OSM   H11F14440   6.562   1.596   7.855  0.4966 -1.7021  1.5617
  133OSM   H11G14441   6.627   1.762   7.907  0.0420 -0.2462  0.7814
  133OSM   C12F14442   6.724   1.596   7.992 -0.3190  0.8066 -0.1006
  133OSM   H12F14443   6.816   1.658   8.001 -0.8836  1.5283  0.9104
  133OSM   H12G14444   6.750   1.491   7.966 -1.3948  0.2714  0.9076
  133OSM   C13F14445   6.637   1.605   8.119  0.6317 -0.6262 -0.0983
  133OSM   H13F14446   6.557   1.529   8.115  1.2845 -1.3159 -0.4522
  133OSM   H13G14447   6.589   1.705   8.115  1.4056 -0.2643 -0.8470
  133OSM   C14F14448   6.701   1.577   8.253 -0.0481 -0.1940  0.6207
  133OSM   H14F14449   6.799   1.625   8.275 -0.8273  1.4395  0.6282
  133OSM   H14G14450   6.734   1.471   8.242 -1.9192 -0.8456  0.8090
  133OSM   C15F14451   6.604   1.576   8.370 -0.2833  0.4653 -0.3807
  133OSM   H15F14452   6.546   1.483   8.386 -0.8803  0.5744 -1.7694
  133OSM   H15G14453   6.522   1.649   8.359 -0.4892  0.1395 -1.1071
  133OSM   C16F14454   6.679   1.611   8.504  0.4862  0.4670  1.1199
  133OSM   H16F14455   6.604   1.635   8.582 -1.1472  0.0635 -0.2571
  133OSM   H16G14456   6.732   1.707   8.489 -2.9075  2.2323 -0.8156
  133OSM   C17F14457   6.786   1.506   8.547  0.2902  0.5870  0.1806
  133OSM   H17F14458   6.883   1.527   8.498  0.2616 -0.2027 -0.2248
  133OSM   H17G14459   6.744   1.407   8.517  0.2823  0.8352 -0.6311
  133OSM   C18F14460   6.825   1.502   8.693 -0.1099 -0.3286  0.4852
  133OSM   H18F14461   6.857   1.606   8.718 -0.1969  0.0480 -0.8606
  133OSM   H18G14462   6.904   1.431   8.723 -0.1870 -1.1225 -1.0596
  133OSM   H18H14463   6.733   1.497   8.755 -0.0612  4.1207  1.2799
  134OSM      N14464   3.900   4.752   6.259 -0.0907 -0.9157  0.6887
  134OSM    C1514465   3.846   4.883   6.311 -0.6598 -0.4570  0.0391
  134OSM   H15A14466   3.762   4.867   6.378 -1.9219  0.7104 -1.2130
  134OSM   H15B14467   3.816   4.937   6.223 -0.8994  0.2812  0.5619
  134OSM   H15C14468   3.923   4.939   6.363 -1.5004  1.1126 -0.3430
  134OSM    C1414469   3.919   4.659   6.376 -0.1194  0.2696  0.1736
  134OSM   H14A14470   3.957   4.562   6.348 -0.1599  0.2356  0.2342
  134OSM   H14B14471   3.821   4.646   6.418 -0.5519  2.7656  0.0803
  134OSM   H14C14472   3.987   4.706   6.445  1.2585 -1.2493 -0.0849
  134OSM    C1314473   3.799   4.687   6.168 -0.2715  0.1719 -0.9488
  134OSM   H13A14474   3.841   4.597   6.125  1.8322  0.1141  1.0216
  134OSM   H13B14475   3.782   4.748   6.080  0.1907  0.6669 -0.7034
  134OSM   H13C14476   3.701   4.676   6.212 -0.1038 -1.9984 -1.0386
  134OSM    C1214477   4.030   4.772   6.172 -0.0610 -0.4603 -0.6594
  134OSM   H12A14478   3.996   4.832   6.089 -0.9630  2.2767  1.5147
  134OSM   H12B14479   4.062   4.680   6.127  0.1006 -0.2206 -1.0362
  134OSM    C1114480   4.150   4.850   6.236 -0.1376 -0.1007 -0.3895
  134OSM   H11A14481   4.218   4.864   6.149 -0.3214  1.1413 -0.3521
  134OSM   H11B14482   4.195   4.794   6.322  2.9055  0.6474 -1.3700
  134OSM      P14483   4.181   5.072   6.382 -0.3502 -0.0761  0.2928
  134OSM    O1314484   4.286   5.137   6.309  0.2918 -0.5541  0.3791
  134OSM    O1414485   4.075   5.148   6.452  0.0607 -0.0779 -0.5757
  134OSM    O1114486   4.236   4.963   6.478 -0.6752 -0.4615  0.2761
  134OSM    O1214487   4.108   4.982   6.276 -0.0138  0.5737 -0.3625
  134OSM    C1S14488   4.302   4.998   6.601  0.0150 -0.4874  0.8518
  134OSM    H1S14489   4.328   5.105   6.615  0.3925 -0.6588  1.4904
  134OSM    H1T14490   4.397   4.943   6.621  0.3087 -0.4341 -0.3242
  134OSM     NF14491   4.275   4.999   6.858 -0.1458  0.2171 -0.7160
  134OSM    HNF14492   4.308   4.919   6.906 -0.0425  0.1319 -0.9270
  134OSM    C2S14493   4.209   4.966   6.733  0.3872  0.2441 -0.4712
  134OSM    H2S14494   4.116   5.024   6.718  0.7931  0.9408 -0.3553
  134OSM    C3S14495   4.172   4.814   6.722 -0.0106  0.5648  0.9984
  134OSM    H3S14496   4.265   4.753   6.728 -1.0392 -1.6302 -2.2740
  134OSM     O314497   4.120   4.765   6.593 -0.3240 -0.2924  0.0978
  134OSM    HO314498   4.159   4.830   6.534 -0.0767  0.4925  1.0907
  134OSM    C4S14499   4.092   4.771   6.837  0.0546 -0.4968  0.4535
  134OSM    H4S14500   4.157   4.746   6.922 -1.7103 -0.8934  1.7361
  134OSM    C5S14501   3.960   4.752   6.866 -0.1570 -0.3348 -0.8258
  134OSM    H5S14502   3.885   4.752   6.785  0.3848  0.6466 -1.3393
  134OSM    C6S14503   3.911   4.717   7.002  0.3346  0.3375 -0.0643
  134OSM    H6S14504   3.863   4.617   7.004 -0.4355  0.6874 -0.6367
  134OSM    H6T14505   3.822   4.782   7.007 -2.3484 -2.6481 -3.2336
  134OSM    C7S14506   3.995   4.736   7.126  0.1621 -0.0241 -0.6440
  134OSM    H7S14507   4.041   4.837   7.123 -0.4990  0.2833 -0.6585
  134OSM    H7T14508   4.066   4.650   7.123 -0.4263 -0.4991 -1.3706
  134OSM    C8S14509   3.918   4.724   7.254  0.2360  0.0202  0.0900
  134OSM    H8S14510   3.854   4.635   7.236  0.7217 -0.2141 -0.5366
  134OSM    H8T14511   3.855   4.814   7.268 -1.4964 -1.4412  2.4590
  134OSM    C9S14512   4.004   4.709   7.379  0.1067 -0.3046 -0.7861
  134OSM    H9S14513   4.089   4.781   7.383 -0.1243 -0.0256 -0.7965
  134OSM    H9T14514   4.052   4.610   7.384 -2.1887 -1.5257 -1.3134
  134OSM   C10S14515   3.917   4.733   7.509 -0.6645 -0.2709  0.1081
  134OSM   H10S14516   3.840   4.654   7.502 -0.0882 -0.7273 -1.5248
  134OSM   H10T14517   3.863   4.830   7.515 -0.3585 -0.1646  1.2214
  134OSM   C11S14518   3.988   4.716   7.638  0.2335  0.1375 -0.7341
  134OSM   H11S14519   4.062   4.796   7.661  1.2283 -0.7558 -0.7894
  134OSM   H11T14520   4.042   4.619   7.636  0.7466  0.3991  0.0194
  134OSM   C12S14521   3.881   4.701   7.746 -0.5705 -0.2452  0.0861
  134OSM   H12S14522   3.809   4.623   7.716  0.0605  0.1091 -2.6426
  134OSM   H12T14523   3.824   4.796   7.757 -1.6531 -0.6914 -1.5177
  134OSM   C13S14524   3.935   4.665   7.885  0.3275 -0.2628 -0.5851
  134OSM   H13S14525   3.972   4.562   7.904 -0.2902 -0.0745  1.8941
  134OSM   H13T14526   3.851   4.685   7.954  1.2286  1.0728  0.1784
  134OSM   C14S14527   4.060   4.751   7.920  0.4940  0.1280 -0.1088
  134OSM   H14S14528   4.037   4.854   7.886 -0.4480  0.1189  0.4601
  134OSM   H14T14529   4.140   4.718   7.851 -0.0776  0.4133 -0.9240
  134OSM   C15S14530   4.113   4.734   8.062  1.3255  0.8194 -0.2916
  134OSM   H15S14531   4.102   4.629   8.099  0.1566  1.1569  0.4027
  134OSM   H15T14532   4.052   4.796   8.131 -0.7559 -0.5855 -0.7533
  134OSM   C16S14533   4.262   4.786   8.067  0.3510  0.0975  0.2291
  134OSM   H16S14534   4.261   4.896   8.050  0.5332 -0.0039 -0.4761
  134OSM   H16T14535   4.317   4.732   7.988 -0.8478 -0.6801 -0.0932
  134OSM   C17S14536   4.320   4.768   8.206 -0.1322  0.2012 -0.2284
  134OSM   H17S14537   4.241   4.807   8.274 -2.4217 -1.7464 -1.6093
  134OSM   H17T14538   4.412   4.831   8.205  0.2219 -0.3000  0.1033
  134OSM   C18S14539   4.354   4.623   8.244  0.3381 -0.3779 -0.4784
  134OSM   H18S14540   4.276   4.547   8.220 -1.4569  1.1071  0.3740
  134OSM   H18T14541   4.388   4.619   8.349 -0.2851  1.6502 -0.1591
  134OSM   H18U14542   4.436   4.601   8.173  0.0942 -1.3601 -0.4726
  134OSM    C1F14543   4.290   5.133   6.891 -0.6052  0.6221 -0.1261
  134OSM     OF14544   4.270   5.227   6.818  0.1593 -0.5126 -0.5495
  134OSM    C2F14545   4.320   5.144   7.037 -0.0925 -0.0522 -0.6052
  134OSM    H2F14546   4.429   5.127   7.050  0.0516  0.4361 -1.1391
  134OSM    H2G14547   4.267   5.062   7.090  2.0450 -0.5223  0.9438
  134OSM    C3F14548   4.302   5.287   7.098 -0.5254  0.6807  1.6533
  134OSM    H3F14549   4.192   5.296   7.111 -0.6509  1.9128  0.0345
  134OSM    H3G14550   4.353   5.365   7.038 -0.4971 -0.2546  0.4237
  134OSM    C4F14551   4.374   5.306   7.227  0.7047 -0.3492 -1.1363
  134OSM    H4F14552   4.353   5.405   7.273  0.7151 -0.7574 -0.2344
  134OSM    H4G14553   4.482   5.284   7.214  0.4253 -1.8707 -1.1538
  134OSM    C5F14554   4.313   5.207   7.339 -0.3846 -0.3745  0.0535
  134OSM    H5F14555   4.308   5.100   7.309 -0.6129 -0.4800  0.4698
  134OSM    H5G14556   4.205   5.226   7.351 -0.6800 -2.6624  1.5629
  134OSM    C6F14557   4.373   5.238   7.479  0.1075  0.0066  1.0668
  134OSM    H6F14558   4.376   5.345   7.511  1.8644 -0.3514  2.1805
  134OSM    H6G14559   4.477   5.210   7.456 -0.1262  0.1031 -0.1717
  134OSM    C7F14560   4.310   5.148   7.587  0.9387  0.0178 -0.9169
  134OSM    H7F14561   4.284   5.043   7.558 -0.7076  0.2408 -0.3588
  134OSM    H7G14562   4.210   5.193   7.601  0.3174 -1.2755 -1.0365
  134OSM    C8F14563   4.382   5.138   7.721 -0.4229  0.6131  0.3101
  134OSM    H8F14564   4.488   5.117   7.696 -0.8174  0.5906 -1.4427
  134OSM    H8G14565   4.349   5.058   7.791 -1.8984  0.8071 -0.1419
  134OSM    C9F14566   4.388   5.272   7.799 -0.3464  0.0750  0.5653
  134OSM    H9F14567   4.453   5.348   7.754  0.8380 -0.7152  0.8868
  134OSM   C10F14568   4.333   5.302   7.916  0.0480  0.2206 -0.8162
  134OSM   H10F14569   4.356   5.401   7.958  0.0122 -0.5041  1.0342
  134OSM   C11F14570   4.246   5.210   8.003  0.0868 -0.1492 -0.3489
  134OSM   H11F14571   4.242   5.108   7.959 -1.5878 -0.3293  0.1689
  134OSM   H11G14572   4.138   5.236   7.998  0.0330 -0.4424 -0.7495
  134OSM   C12F14573   4.295   5.200   8.146  0.0298  1.0204  0.1417
  134OSM   H12F14574   4.403   5.175   8.157  0.0350  1.4090  1.0133
  134OSM   H12G14575   4.240   5.117   8.194  0.7759 -0.0490 -0.8027
  134OSM   C13F14576   4.276   5.329   8.229 -0.4050  0.3877  0.0223
  134OSM   H13F14577   4.166   5.344   8.224 -0.4428  0.1001 -0.0137
  134OSM   H13G14578   4.324   5.413   8.174 -0.3740  0.9645  0.9084
  134OSM   C14F14579   4.323   5.307   8.373 -0.2694  0.2074  0.1328
  134OSM   H14F14580   4.433   5.316   8.374 -0.1156 -1.3954  1.8940
  134OSM   H14G14581   4.294   5.203   8.397  1.2239 -0.4314 -0.7262
  134OSM   C15F14582   4.260   5.408   8.465 -0.6041 -0.2337 -0.6460
  134OSM   H15F14583   4.292   5.508   8.430  0.5445 -0.5434 -0.5276
  134OSM   H15G14584   4.308   5.394   8.564 -1.2979 -0.1574 -0.2892
  134OSM   C16F14585   4.116   5.425   8.469  0.7834 -0.3316 -0.3330
  134OSM   H16F14586   4.075   5.445   8.368  1.4619 -1.7049 -0.9103
  134OSM   H16G14587   4.103   5.521   8.522 -1.2595  0.8467 -2.7604
  134OSM   C17F14588   4.055   5.298   8.537  0.1574  0.1106 -0.2616
  134OSM   H17F14589   4.106   5.291   8.635 -0.5174  0.1057  0.0947
  134OSM   H17G14590   4.087   5.205   8.486 -1.7140 -0.7873  0.0938
  134OSM   C18F14591   3.902   5.305   8.566 -0.4270  0.2999 -0.4826
  134OSM   H18F14592   3.846   5.300   8.470 -1.9231  1.2790  0.3022
  134OSM   H18G14593   3.884   5.404   8.612 -2.1794 -0.6351  0.9774
  134OSM   H18H14594   3.870   5.220   8.631  2.6059  0.2022  1.0966
  135OSM      N14595   3.646   5.525   6.148 -0.1162  0.4581  0.6269
  135OSM    C1514596   3.776   5.511   6.072  0.7334  0.1653 -1.2773
  135OSM   H15A14597   3.835   5.449   6.138 -1.6849  0.8097  1.7674
  135OSM   H15B14598   3.824   5.608   6.078 -1.0837  1.2517 -2.9528
  135OSM   H15C14599   3.768   5.470   5.973  1.9588 -2.3019 -0.4456
  135OSM    C1414600   3.675   5.527   6.296 -0.3785  0.1816 -0.3929
  135OSM   H14A14601   3.759   5.591   6.316 -2.0465  2.2508  0.4335
  135OSM   H14B14602   3.704   5.428   6.326 -1.8004 -0.3214 -0.5916
  135OSM   H14C14603   3.597   5.561   6.363 -0.8685  1.3051 -1.4849
  135OSM    C1314604   3.584   5.652   6.099  0.2702 -0.3369 -0.0258
  135OSM   H13A14605   3.582   5.656   5.991  1.4418 -1.5514 -0.1198
  135OSM   H13B14606   3.643   5.739   6.122  0.0393  0.9686 -3.6574
  135OSM   H13C14607   3.487   5.670   6.144  1.5862 -1.1816  3.5006
  135OSM    C1214608   3.553   5.403   6.117  0.0124  0.4023 -0.6707
  135OSM   H12A14609   3.522   5.410   6.014  2.2686 -1.0130 -1.5271
  135OSM   H12B14610   3.460   5.416   6.171  1.4350  1.9198  1.5216
  135OSM    C1114611   3.597   5.254   6.134  0.3148 -0.3702  0.1946
  135OSM   H11A14612   3.695   5.247   6.082  0.6688  0.4930  0.7410
  135OSM   H11B14613   3.527   5.193   6.071  1.1866 -0.1563 -1.0282
  135OSM      P14614   3.507   5.121   6.335 -0.2364 -0.7094  0.4727
  135OSM    O1314615   3.376   5.196   6.342 -0.4610 -0.0819 -0.0580
  135OSM    O1414616   3.504   4.994   6.253  0.2603 -0.0978  0.0700
  135OSM    O1114617   3.564   5.107   6.482 -0.9971  0.3329  0.3292
  135OSM    O1214618   3.612   5.214   6.268 -0.1799 -0.3043 -0.3184
  135OSM    C1S14619   3.660   5.204   6.522  0.2925  0.1436  0.4482
  135OSM    H1S14620   3.620   5.304   6.495  1.4477 -0.2961 -3.4556
  135OSM    H1T14621   3.757   5.186   6.473 -0.4774 -1.3458 -0.6051
  135OSM     NF14622   3.752   5.333   6.712  0.2058  0.3183 -0.2009
  135OSM    HNF14623   3.850   5.326   6.730  0.0796  3.2050  2.5342
  135OSM    C2S14624   3.684   5.209   6.673 -0.4498 -0.0978 -0.1695
  135OSM    H2S14625   3.586   5.200   6.723 -0.6692 -1.0836 -0.7549
  135OSM    C3S14626   3.756   5.081   6.727 -0.7052 -0.1453  0.5488
  135OSM    H3S14627   3.853   5.083   6.674  0.5222  1.6546  2.6640
  135OSM     O314628   3.692   4.963   6.686  0.4548  0.2690  0.0257
  135OSM    HO314629   3.639   5.001   6.615  2.9044  0.7529 -1.6384
  135OSM    C4S14630   3.780   5.076   6.874  0.8259 -0.3767  0.0208
  135OSM    H4S14631   3.694   5.049   6.937  0.0498  0.0474 -0.8398
  135OSM    C5S14632   3.894   5.108   6.928 -0.7730  0.5441 -0.4140
  135OSM    H5S14633   3.976   5.136   6.860 -1.4216 -0.0321 -1.4601
  135OSM    C6S14634   3.941   5.120   7.069  0.0757 -0.1010  0.4253
  135OSM    H6S14635   3.985   5.222   7.077 -3.5938  1.7098 -0.3483
  135OSM    H6T14636   4.015   5.044   7.102 -0.0949  1.0576  3.9694
  135OSM    C7S14637   3.825   5.116   7.170  0.3434  0.0835 -0.1661
  135OSM    H7S14638   3.762   5.025   7.183  0.4408 -0.4508 -2.8136
  135OSM    H7T14639   3.754   5.198   7.148  1.0741  0.6024 -0.6278
  135OSM    C8S14640   3.888   5.146   7.308  0.4756  0.5747  1.0636
  135OSM    H8S14641   3.933   5.246   7.320  1.5565  0.4160 -1.1625
  135OSM    H8T14642   3.972   5.074   7.323  1.4400  1.0462 -1.5660
  135OSM    C9S14643   3.786   5.121   7.421  0.7299 -0.8335 -0.7124
  135OSM    H9S14644   3.738   5.022   7.406  2.2640 -1.8163  0.4987
  135OSM    H9T14645   3.706   5.195   7.401  0.5594 -1.2985 -1.8150
  135OSM   C10S14646   3.839   5.134   7.568 -0.0417  0.4360  0.1778
  135OSM   H10S14647   3.866   5.240   7.586 -2.3051  1.0213  0.4367
  135OSM   H10T14648   3.929   5.076   7.596 -0.3057  0.1278  0.4017
  135OSM   C11S14649   3.726   5.092   7.665  0.2710  0.1001  0.1954
  135OSM   H11S14650   3.687   4.997   7.623  2.6122 -0.0314 -1.9279
  135OSM   H11T14651   3.654   5.175   7.647  3.3024  2.5958 -1.3920
  135OSM   C12S14652   3.765   5.078   7.808  0.1028 -0.2517  0.2576
  135OSM   H12S14653   3.808   5.170   7.853  1.2925 -0.5993 -0.1387
  135OSM   H12T14654   3.843   5.001   7.826  0.5512  0.3269  0.8529
  135OSM   C13S14655   3.644   5.038   7.886  0.3200 -0.1679 -0.0048
  135OSM   H13S14656   3.615   4.936   7.852  0.5330  0.1153 -1.0850
  135OSM   H13T14657   3.561   5.104   7.850  1.4204  1.2387 -0.0292
  135OSM   C14S14658   3.654   5.046   8.043  1.1544  0.3693  0.0237
  135OSM   H14S14659   3.564   5.090   8.092  3.2583  0.3903  4.2195
  135OSM   H14T14660   3.737   5.117   8.060  3.4138 -1.7387 -1.4598
  135OSM   C15S14661   3.679   4.908   8.108 -0.2501 -0.3288  0.3632
  135OSM   H15S14662   3.778   4.870   8.075  0.1620  1.6977 -0.9362
  135OSM   H15T14663   3.601   4.845   8.061  0.7875 -0.7230 -0.8831
  135OSM   C16S14664   3.664   4.902   8.261 -0.1600  0.0806  0.2653
  135OSM   H16S14665   3.646   4.800   8.300  1.2930 -0.6289 -0.8661
  135OSM   H16T14666   3.569   4.958   8.275  0.2468  1.3955 -1.8552
  135OSM   C17S14667   3.788   4.967   8.320 -0.2011 -0.6696 -0.9077
  135OSM   H17S14668   3.775   5.074   8.291 -1.4118 -0.6089 -0.1938
  135OSM   H17T14669   3.883   4.926   8.281  0.1450 -1.1886  0.4175
  135OSM   C18S14670   3.782   4.955   8.476  0.6568  1.4268 -0.7553
  135OSM   H18S14671   3.774   4.849   8.507 -0.3230  1.3216 -1.3316
  135OSM   H18T14672   3.689   5.008   8.506 -0.1749 -0.5511  0.3242
  135OSM   H18U14673   3.881   4.980   8.521  0.7090 -0.9620  0.6588
  135OSM    C1F14674   3.705   5.451   6.705 -0.3104 -0.2930 -0.3440
  135OSM     OF14675   3.583   5.468   6.686 -0.2515  0.3695 -0.7510
  135OSM    C2F14676   3.806   5.563   6.724  0.0614  0.3396  0.6657
  135OSM    H2F14677   3.786   5.637   6.644  0.5788 -0.2375 -0.0126
  135OSM    H2G14678   3.909   5.525   6.707 -0.3567  0.2462 -2.1351
  135OSM    C3F14679   3.791   5.629   6.861  0.0493 -0.1588 -0.4331
  135OSM    H3F14680   3.681   5.636   6.873 -0.3036 -2.4718 -1.5749
  135OSM    H3G14681   3.843   5.727   6.857 -0.9911  0.5765  2.0986
  135OSM    C4F14682   3.851   5.544   6.972  0.3788  0.0884  0.2767
  135OSM    H4F14683   3.959   5.541   6.948  0.4029  0.2600  0.3642
  135OSM    H4G14684   3.819   5.437   6.971  1.8547 -0.3882 -1.8578
  135OSM    C5F14685   3.828   5.612   7.108 -0.6991 -0.6408 -0.6138
  135OSM    H5F14686   3.720   5.600   7.130 -0.6151  0.9126  0.9437
  135OSM    H5G14687   3.860   5.719   7.113 -2.0301 -0.2732  2.6210
  135OSM    C6F14688   3.887   5.541   7.229 -0.5195  0.5841 -0.6081
  135OSM    H6F14689   3.996   5.557   7.213 -0.0454 -0.8968  0.8215
  135OSM    H6G14690   3.866   5.432   7.233 -0.0469  0.5090  2.3020
  135OSM    C7F14691   3.834   5.604   7.358 -0.4671 -0.3127  0.0093
  135OSM    H7F14692   3.725   5.615   7.340 -0.3719  0.2663 -0.2349
  135OSM    H7G14693   3.868   5.709   7.366  0.1207 -0.5508  0.9004
  135OSM    C8F14694   3.864   5.515   7.485 -0.5168 -0.3921 -0.0157
  135OSM    H8F14695   3.826   5.413   7.461  1.8831 -1.2560 -0.4589
  135OSM    H8G14696   3.806   5.558   7.569 -0.9969 -4.1751  1.7824
  135OSM    C9F14697   4.012   5.508   7.514 -0.0045 -0.2754 -0.2231
  135OSM    H9F14698   4.075   5.549   7.434  1.2750 -0.4421  0.6748
  135OSM   C10F14699   4.074   5.464   7.627 -0.3168 -0.1570 -0.6090
  135OSM   H10F14700   4.184   5.465   7.622 -0.3307  1.2204 -1.0756
  135OSM   C11F14701   4.007   5.414   7.754  0.2406  0.9829  0.1719
  135OSM   H11F14702   4.039   5.311   7.782 -2.0372 -1.0249 -3.6947
  135OSM   H11G14703   3.900   5.389   7.735  1.0461 -0.8144 -2.6899
  135OSM   C12F14704   4.017   5.509   7.869 -0.3992  0.3504  0.4379
  135OSM   H12F14705   3.995   5.611   7.830  0.7368  1.3553  2.2738
  135OSM   H12G14706   4.120   5.502   7.908  0.3738  0.8175 -1.4370
  135OSM   C13F14707   3.919   5.490   7.987 -0.1116 -0.3399 -0.2463
  135OSM   H13F14708   3.912   5.381   8.006  0.2234 -0.4177 -0.5494
  135OSM   H13G14709   3.814   5.524   7.975  0.0267  1.9028  3.2824
  135OSM   C14F14710   3.984   5.555   8.118 -0.2179  0.6563  0.2696
  135OSM   H14F14711   4.094   5.542   8.119 -0.3238 -0.6778 -1.0417
  135OSM   H14G14712   3.928   5.512   8.203  0.1590 -2.3261 -0.8354
  135OSM   C15F14713   3.953   5.701   8.118  0.3002  0.1431  0.3581
  135OSM   H15F14714   3.842   5.708   8.107  0.4274  0.2204 -1.1139
  135OSM   H15G14715   4.002   5.757   8.036 -0.4521  0.0265 -0.1753
  135OSM   C16F14716   3.995   5.760   8.249 -0.0128  0.2674 -0.5578
  135OSM   H16F14717   4.102   5.738   8.269 -0.3395 -1.0293 -0.1129
  135OSM   H16G14718   3.946   5.711   8.336 -1.6159 -0.8877 -2.0353
  135OSM   C17F14719   3.971   5.910   8.260  0.9802  0.0349 -0.4725
  135OSM   H17F14720   3.863   5.930   8.250  0.0394 -2.6805  2.4983
  135OSM   H17G14721   4.027   5.968   8.183 -0.0878  0.2076 -1.1303
  135OSM   C18F14722   4.014   5.969   8.402 -0.0697 -0.7296 -0.1731
  135OSM   H18F14723   3.983   6.075   8.403 -2.3059 -1.3180 -1.1095
  135OSM   H18G14724   4.124   5.964   8.414 -0.1332 -1.7021  0.0942
  135OSM   H18H14725   3.976   5.912   8.490  3.1348 -0.5906  1.4447
  136OSM      N14726   6.396   6.260   5.872 -0.3894 -0.7441  0.3723
  136OSM    C1514727   6.361   6.248   6.017 -0.0334  0.2533 -0.4314
  136OSM   H15A14728   6.257   6.226   6.038  0.4234 -2.1500 -0.4120
  136OSM   H15B14729   6.386   6.341   6.065 -1.0943 -0.4526  1.6312
  136OSM   H15C14730   6.426   6.170   6.053 -1.5084 -0.8401 -0.0354
  136OSM    C1414731   6.364   6.127   5.802  0.1027  0.3714  0.5992
  136OSM   H14A14732   6.259   6.102   5.798  0.8298 -2.9632 -1.5871
  136OSM   H14B14733   6.426   6.046   5.837 -0.7879 -0.4944  0.2075
  136OSM   H14C14734   6.382   6.138   5.696  0.2579  0.2268  0.6100
  136OSM    C1314735   6.305   6.364   5.807  0.1678 -0.1568 -0.1426
  136OSM   H13A14736   6.271   6.439   5.878  0.6372  0.7566 -0.8599
  136OSM   H13B14737   6.213   6.313   5.784 -0.0647 -0.9577  2.2403
  136OSM   H13C14738   6.339   6.428   5.727 -0.4119 -0.0784 -0.3324
  136OSM    C1214739   6.545   6.298   5.847  0.2380  0.3602 -0.5399
  136OSM   H12A14740   6.546   6.392   5.900  1.1922  0.7760 -1.2693
  136OSM   H12B14741   6.554   6.317   5.741 -0.4298  1.5575 -0.3907
  136OSM    C1114742   6.652   6.199   5.906  0.0876  0.4091  0.7404
  136OSM   H11A14743   6.752   6.228   5.865 -1.6097  1.7685 -2.8933
  136OSM   H11B14744   6.626   6.107   5.850 -1.2382  1.7932 -1.0348
  136OSM      P14745   6.726   6.291   6.130  0.0093  0.3743 -0.4066
  136OSM    O1314746   6.873   6.254   6.126 -0.5125  0.5216  0.3803
  136OSM    O1414747   6.687   6.424   6.070  0.1206  0.4428  0.4982
  136OSM    O1114748   6.662   6.271   6.275 -0.4946  0.0593  0.3879
  136OSM    O1214749   6.647   6.177   6.049  0.3871  1.0378  0.6196
  136OSM    C1S14750   6.673   6.144   6.336 -0.0348 -0.0708  0.5830
  136OSM    H1S14751   6.770   6.092   6.320  0.3907  0.0418  2.5667
  136OSM    H1T14752   6.587   6.076   6.320  1.0268 -1.2708 -0.1788
  136OSM     NF14753   6.706   6.041   6.565 -0.2125  0.4031  0.2230
  136OSM    HNF14754   6.629   5.998   6.612 -0.4330 -0.4812 -0.9144
  136OSM    C2S14755   6.674   6.167   6.495 -0.3159  0.2871 -0.2204
  136OSM    H2S14756   6.750   6.245   6.515  1.4188 -1.0152 -1.5073
  136OSM    C3S14757   6.538   6.238   6.544 -0.5271  0.6707  0.1454
  136OSM    H3S14758   6.455   6.167   6.526 -0.2609  0.1500  0.9257
  136OSM     O314759   6.511   6.373   6.490 -0.1416  0.6907  0.5541
  136OSM    HO314760   6.574   6.384   6.418 -2.3227  1.8881 -1.3079
  136OSM    C4S14761   6.553   6.251   6.698 -0.4805  0.2401  0.6644
  136OSM    H4S14762   6.486   6.185   6.756 -0.1284 -1.1831 -0.4820
  136OSM    C5S14763   6.624   6.342   6.766 -0.1470 -0.7758  0.1090
  136OSM    H5S14764   6.672   6.425   6.711 -0.8842  2.1558  3.5221
  136OSM    C6S14765   6.625   6.371   6.914  0.1925  0.3850 -0.1772
  136OSM    H6S14766   6.612   6.481   6.922  0.3706  0.3555  0.5921
  136OSM    H6T14767   6.722   6.332   6.950  0.7610  1.0033 -1.0005
  136OSM    C7S14768   6.512   6.317   7.001 -0.1914  0.1531 -0.2286
  136OSM    H7S14769   6.516   6.206   7.007  2.9408  0.2497  4.4728
  136OSM    H7T14770   6.413   6.344   6.958 -0.5364 -0.2469  0.2891
  136OSM    C8S14771   6.536   6.384   7.142 -0.1780 -0.1783 -0.1188
  136OSM    H8S14772   6.525   6.494   7.144  1.7205  0.1061  3.3905
  136OSM    H8T14773   6.637   6.368   7.185 -1.4002 -2.2692  2.2200
  136OSM    C9S14774   6.437   6.328   7.248 -0.3725 -0.1983 -0.3539
  136OSM    H9S14775   6.444   6.217   7.254 -0.7331 -0.1536  2.6465
  136OSM    H9T14776   6.334   6.347   7.213 -0.4828 -0.5222 -0.2051
  136OSM   C10S14777   6.470   6.394   7.385  0.7484 -0.1363 -0.2470
  136OSM   H10S14778   6.444   6.500   7.363 -0.8856 -0.6935 -1.1236
  136OSM   H10T14779   6.578   6.380   7.407  0.8226 -0.6466 -0.9128
  136OSM   C11S14780   6.370   6.360   7.499  0.4567  0.0454 -0.8447
  136OSM   H11S14781   6.359   6.250   7.510  1.5386 -0.0472 -0.4882
  136OSM   H11T14782   6.272   6.403   7.469  0.1312  0.3861  0.6503
  136OSM   C12S14783   6.406   6.411   7.643 -0.1707 -0.6252 -0.6222
  136OSM   H12S14784   6.445   6.516   7.638  0.6651 -0.8420  0.7710
  136OSM   H12T14785   6.491   6.351   7.683 -1.5025 -3.2246 -1.4845
  136OSM   C13S14786   6.283   6.405   7.737  0.4751  0.2840  0.5413
  136OSM   H13S14787   6.229   6.312   7.711 -0.9867  0.1552  3.5488
  136OSM   H13T14788   6.212   6.487   7.714 -2.4902 -1.8139  1.6949
  136OSM   C14S14789   6.315   6.409   7.883 -0.3309 -0.0541 -0.3786
  136OSM   H14S14790   6.397   6.337   7.903  0.7660 -0.0879 -4.1462
  136OSM   H14T14791   6.224   6.377   7.938 -0.3548  1.5066  0.5563
  136OSM   C15S14792   6.363   6.542   7.938 -0.4366 -0.6047  0.0408
  136OSM   H15S14793   6.275   6.608   7.951  0.0891  0.2561 -0.6714
  136OSM   H15T14794   6.433   6.579   7.860  0.1630 -0.8264  0.4637
  136OSM   C16S14795   6.451   6.529   8.060  0.0185 -0.4956  0.1709
  136OSM   H16S14796   6.518   6.614   8.086  1.0061 -1.3371  0.4648
  136OSM   H16T14797   6.507   6.434   8.052 -1.3784 -1.3024 -0.3016
  136OSM   C17S14798   6.359   6.502   8.174  0.2387  0.8115 -0.0452
  136OSM   H17S14799   6.421   6.477   8.264  0.6535  2.9828  0.3341
  136OSM   H17T14800   6.288   6.421   8.147  0.5705  0.0420  1.2749
  136OSM   C18S14801   6.273   6.629   8.214  0.5259  0.6173 -0.0821
  136OSM   H18S14802   6.347   6.706   8.243  2.2915 -0.6771 -0.9020
  136OSM   H18T14803   6.207   6.600   8.299 -2.6270 -1.0156 -2.8502
  136OSM   H18U14804   6.197   6.647   8.135 -2.2330 -0.8310  2.0576
  136OSM    C1F14805   6.826   5.982   6.568 -0.0983  0.0062  0.3658
  136OSM     OF14806   6.926   6.029   6.513  0.7319  0.6016  0.3578
  136OSM    C2F14807   6.826   5.849   6.632 -0.5958  0.1777 -0.1817
  136OSM    H2F14808   6.860   5.772   6.559  0.1444  0.8139 -0.5230
  136OSM    H2G14809   6.724   5.815   6.661 -0.0676 -0.6130  0.8185
  136OSM    C3F14810   6.922   5.831   6.756  0.0027 -0.0118 -0.3123
  136OSM    H3F14811   7.027   5.855   6.728  0.2546  0.1319  0.7130
  136OSM    H3G14812   6.917   5.721   6.775 -0.7608  0.3175  1.5436
  136OSM    C4F14813   6.890   5.937   6.869 -0.3284  0.6331  0.6196
  136OSM    H4F14814   6.865   6.038   6.830  2.4384  1.6722  1.2693
  136OSM    H4G14815   6.982   5.958   6.928  0.3303  0.7277 -0.4145
  136OSM    C5F14816   6.770   5.901   6.961  0.2479  0.3621  0.4298
  136OSM    H5F14817   6.775   5.792   6.982  0.7770  0.4847  1.0068
  136OSM    H5G14818   6.683   5.918   6.895 -0.0061 -0.4047  0.5542
  136OSM    C6F14819   6.761   5.991   7.081  0.0390 -0.1786  0.0275
  136OSM    H6F14820   6.762   6.097   7.051 -2.6126  0.2280  1.1175
  136OSM    H6G14821   6.856   5.965   7.134 -0.7712 -1.9601  0.6970
  136OSM    C7F14822   6.647   5.963   7.182 -0.7303 -0.1820 -0.5238
  136OSM    H7F14823   6.632   5.853   7.188 -0.9493 -0.1271 -0.0518
  136OSM    H7G14824   6.558   6.015   7.139 -0.7313 -1.5768 -2.3357
  136OSM    C8F14825   6.693   6.012   7.320  0.2059 -0.0332  0.7166
  136OSM    H8F14826   6.696   6.123   7.328 -0.4476 -0.0918  2.0168
  136OSM    H8G14827   6.794   5.973   7.344 -0.5274 -0.9884  2.4137
  136OSM    C9F14828   6.585   5.966   7.412 -0.4791  0.6165 -0.4308
  136OSM    H9F14829   6.488   5.952   7.361  0.6537 -2.7771 -1.9556
  136OSM   C10F14830   6.604   5.933   7.541  0.0805  0.2141 -0.1750
  136OSM   H10F14831   6.519   5.902   7.603 -1.1174  0.7120 -1.5256
  136OSM   C11F14832   6.736   5.956   7.605 -0.0584  1.1506 -0.4311
  136OSM   H11F14833   6.788   6.040   7.554  0.2677 -0.2825 -2.6213
  136OSM   H11G14834   6.803   5.867   7.592  0.0958  1.1460  0.3258
  136OSM   C12F14835   6.723   5.984   7.753  0.1024  0.4098  0.0349
  136OSM   H12F14836   6.827   5.982   7.791  0.1687 -2.6203 -0.0081
  136OSM   H12G14837   6.673   5.888   7.780  2.4432 -0.5999  1.1314
  136OSM   C13F14838   6.636   6.108   7.794 -0.4261  0.5695 -0.0692
  136OSM   H13F14839   6.541   6.104   7.736  0.7429 -1.5822 -2.0496
  136OSM   H13G14840   6.691   6.201   7.772  0.7582 -0.5968 -2.4668
  136OSM   C14F14841   6.606   6.089   7.946 -0.1276 -0.6724 -0.0390
  136OSM   H14F14842   6.558   5.989   7.944  0.7164 -1.1073 -2.8550
  136OSM   H14G14843   6.528   6.163   7.974  1.2812 -0.0080  2.5122
  136OSM   C15F14844   6.728   6.098   8.040 -0.1570  0.3217  0.7019
  136OSM   H15F14845   6.807   6.169   8.009 -1.2126  1.1344 -0.1829
  136OSM   H15G14846   6.775   5.998   8.028  1.0661  0.8862  0.6785
  136OSM   C16F14847   6.702   6.109   8.195 -0.3379 -0.2299 -0.1132
  136OSM   H16F14848   6.796   6.100   8.254 -0.8154 -2.7399  0.3868
  136OSM   H16G14849   6.639   6.020   8.219  0.1691 -0.7083 -0.5082
  136OSM   C17F14850   6.616   6.228   8.244 -0.3912 -0.6243  0.4886
  136OSM   H17F14851   6.519   6.230   8.189 -0.2977  0.2818  0.3381
  136OSM   H17G14852   6.663   6.321   8.207  0.0872 -0.4100  1.5965
  136OSM   C18F14853   6.611   6.232   8.399  0.4753 -0.0025  0.3784
  136OSM   H18F14854   6.705   6.284   8.426 -0.2040  0.7000  1.4796
  136OSM   H18G14855   6.601   6.132   8.446  0.6082  0.8517  2.3330
  136OSM   H18H14856   6.532   6.297   8.442  0.7495  0.0939  0.7418
  137OSM      N14857   5.132   3.880   6.245 -0.2495  0.4144 -0.4361
  137OSM    C1514858   5.251   3.809   6.305 -0.1193  0.2369 -1.0464
  137OSM   H15A14859   5.251   3.797   6.412 -0.8841  0.4432 -1.0179
  137OSM   H15B14860   5.345   3.856   6.278  0.1967 -0.1702 -0.6866
  137OSM   H15C14861   5.256   3.707   6.268  0.8915 -0.8451  1.7563
  137OSM    C1414862   5.127   4.016   6.301 -0.0605  0.7274 -0.4015
  137OSM   H14A14863   5.095   4.015   6.404 -0.2230  1.1045 -0.4458
  137OSM   H14B14864   5.052   4.071   6.246 -2.5310 -1.2262  0.8184
  137OSM   H14C14865   5.218   4.073   6.285 -0.1555  0.9025 -0.3230
  137OSM    C1314866   5.168   3.893   6.098 -0.0558  0.4199  0.0289
  137OSM   H13A14867   5.263   3.942   6.092 -0.1960  0.7931  0.8155
  137OSM   H13B14868   5.087   3.948   6.053 -1.2447  1.5978  3.3370
  137OSM   H13C14869   5.168   3.797   6.047  0.1075 -0.5467  1.7789
  137OSM    C1214870   5.003   3.799   6.268  0.1496 -0.6357  0.1455
  137OSM   H12A14871   4.983   3.795   6.374  2.1351  0.2337  0.6018
  137OSM   H12B14872   5.025   3.697   6.242  0.5534 -0.7737  1.0199
  137OSM    C1114873   4.878   3.835   6.183 -0.4836  0.0285 -0.3132
  137OSM   H11A14874   4.800   3.757   6.195  0.8980 -1.1838  1.3154
  137OSM   H11B14875   4.907   3.834   6.076 -0.0102 -1.5111 -0.2051
  137OSM      P14876   4.748   3.966   6.345 -0.1437  0.2487  0.3453
  137OSM    O1314877   4.783   4.088   6.428  0.2236 -0.2671  0.7014
  137OSM    O1414878   4.616   3.944   6.302  0.0916 -0.0208 -0.1076
  137OSM    O1114879   4.783   3.844   6.434  0.1217  0.3564  0.3725
  137OSM    O1214880   4.849   3.966   6.229 -0.1362 -0.3853  0.3015
  137OSM    C1S14881   4.845   3.849   6.559  0.4743 -0.2620  0.0661
  137OSM    H1S14882   4.830   3.946   6.611 -1.6744 -0.7900  0.5503
  137OSM    H1T14883   4.953   3.826   6.555  0.8326  1.2107  0.6501
  137OSM     NF14884   4.843   3.749   6.789  0.7434 -0.4494  0.0890
  137OSM    HNF14885   4.872   3.657   6.813 -0.9775 -1.0806 -0.0708
  137OSM    C2S14886   4.772   3.758   6.659  0.6066  0.0188 -0.5939
  137OSM    H2S14887   4.679   3.811   6.688  0.8119  0.6671 -1.0826
  137OSM    C3S14888   4.731   3.615   6.592 -0.0814 -0.3693 -1.0190
  137OSM    H3S14889   4.834   3.580   6.567  0.6019  0.3422  0.6325
  137OSM     O314890   4.656   3.623   6.467  0.3049 -0.5250  0.1065
  137OSM    HO314891   4.655   3.717   6.445  0.0014 -0.6237 -0.3001
  137OSM    C4S14892   4.659   3.521   6.700  0.7894 -0.8154  0.5273
  137OSM    H4S14893   4.714   3.435   6.742  1.9269 -0.5437 -0.3412
  137OSM    C5S14894   4.525   3.520   6.715 -0.0379 -0.9057 -0.3189
  137OSM    H5S14895   4.466   3.584   6.648 -0.8535 -0.7423  0.5268
  137OSM    C6S14896   4.446   3.443   6.818  0.4755  0.3123  0.4594
  137OSM    H6S14897   4.401   3.359   6.762  4.5760 -2.0979  0.3632
  137OSM    H6T14898   4.365   3.509   6.855 -0.2652  0.4671 -1.3416
  137OSM    C7S14899   4.525   3.370   6.942 -0.2305  0.1175  0.0950
  137OSM    H7S14900   4.582   3.448   6.997  1.3586  1.5823 -3.2598
  137OSM    H7T14901   4.597   3.292   6.909 -0.5538 -1.6822  3.3067
  137OSM    C8S14902   4.423   3.301   7.033  0.5377 -0.1114 -0.4980
  137OSM    H8S14903   4.374   3.225   6.969 -0.6154  0.2059 -0.0153
  137OSM    H8T14904   4.349   3.378   7.063 -2.5503 -2.9430 -0.2609
  137OSM    C9S14905   4.498   3.240   7.153 -0.1545  0.1761 -0.4874
  137OSM    H9S14906   4.592   3.194   7.115  0.3746  1.2730 -0.5554
  137OSM    H9T14907   4.424   3.161   7.175 -0.3343  0.3378 -0.5070
  137OSM   C10S14908   4.522   3.330   7.275  0.0842  0.0407 -0.5759
  137OSM   H10S14909   4.432   3.386   7.309  2.4037  2.1273  2.8572
  137OSM   H10T14910   4.596   3.409   7.250 -1.5740  1.7583 -0.3300
  137OSM   C11S14911   4.570   3.246   7.397  0.3269 -0.5398 -0.1384
  137OSM   H11S14912   4.657   3.182   7.369 -0.9895 -2.8598  0.8419
  137OSM   H11T14913   4.490   3.178   7.434 -0.9405  0.9548 -0.0466
  137OSM   C12S14914   4.604   3.326   7.521  0.6693 -0.3913  1.1484
  137OSM   H12S14915   4.544   3.419   7.518  1.3983  0.0829 -0.9040
  137OSM   H12T14916   4.712   3.354   7.512  0.2468  0.6925 -1.8693
  137OSM   C13S14917   4.571   3.260   7.657  0.0164  0.4905 -0.4859
  137OSM   H13S14918   4.593   3.151   7.658 -2.5266 -0.0707  1.1371
  137OSM   H13T14919   4.464   3.274   7.684  0.6376  0.3288  2.3822
  137OSM   C14S14920   4.640   3.327   7.780  0.2123 -0.3555 -0.3781
  137OSM   H14S14921   4.612   3.434   7.773  1.7353  0.2212  1.3925
  137OSM   H14T14922   4.751   3.325   7.787  0.2150  0.0113 -0.2854
  137OSM   C15S14923   4.585   3.277   7.914 -0.2838  0.4237 -0.1870
  137OSM   H15S14924   4.626   3.174   7.921 -1.5794 -0.1132 -0.1559
  137OSM   H15T14925   4.476   3.270   7.893 -0.4114  2.8982 -0.6659
  137OSM   C16S14926   4.601   3.371   8.036 -0.3620  0.0118  0.2729
  137OSM   H16S14927   4.556   3.467   8.003 -0.0254  0.4908  1.1748
  137OSM   H16T14928   4.711   3.387   8.047 -0.5369  0.5237  1.3862
  137OSM   C17S14929   4.527   3.326   8.160 -0.3139 -0.0023 -0.0671
  137OSM   H17S14930   4.550   3.220   8.184 -0.2403 -0.4364 -1.9279
  137OSM   H17T14931   4.417   3.338   8.145 -0.1073  0.9283 -0.9336
  137OSM   C18S14932   4.559   3.418   8.279  0.0597 -0.1246  0.0534
  137OSM   H18S14933   4.559   3.522   8.239  1.0112  0.3629  1.2641
  137OSM   H18T14934   4.660   3.407   8.324 -0.1024 -2.4063 -0.0194
  137OSM   H18U14935   4.485   3.405   8.361  0.0988 -0.5108  0.0297
  137OSM    C1F14936   4.868   3.847   6.881 -0.0001  0.7555  0.2468
  137OSM     OF14937   4.862   3.965   6.856  0.1186  0.4359  0.2673
  137OSM    C2F14938   4.903   3.791   7.023  0.0606 -0.2938 -0.0461
  137OSM    H2F14939   4.986   3.719   7.004 -0.8418 -0.5413 -3.9683
  137OSM    H2G14940   4.812   3.743   7.062 -1.5075  3.4421  1.3945
  137OSM    C3F14941   4.945   3.910   7.116 -0.1326 -0.0326  0.5285
  137OSM    H3F14942   4.861   3.982   7.120 -0.3373 -0.2736  0.6665
  137OSM    H3G14943   5.033   3.961   7.073 -0.0813 -1.3602 -1.0386
  137OSM    C4F14944   4.977   3.875   7.264 -0.1371 -0.3717  0.0279
  137OSM    H4F14945   5.070   3.819   7.287  0.0167  0.6479  2.1711
  137OSM    H4G14946   4.897   3.814   7.312 -0.0972 -1.5701 -1.3616
  137OSM    C5F14947   4.986   4.005   7.354  0.1868 -0.0090 -0.1684
  137OSM    H5F14948   4.923   4.085   7.312  2.1492  1.5599 -0.2767
  137OSM    H5G14949   5.082   4.048   7.318 -0.3125  1.0245 -0.2978
  137OSM    C6F14950   4.988   4.001   7.508  0.3354  0.3013 -0.4625
  137OSM    H6F14951   4.888   3.973   7.547  0.2924 -0.6958 -1.2490
  137OSM    H6G14952   5.005   4.101   7.553 -0.6773  0.0506  0.5190
  137OSM    C7F14953   5.093   3.895   7.546 -0.2101 -0.4872 -0.1460
  137OSM    H7F14954   5.187   3.946   7.513 -0.1957 -1.5512 -1.8668
  137OSM    H7G14955   5.074   3.794   7.505 -0.5647 -0.4516 -0.0713
  137OSM    C8F14956   5.111   3.903   7.700  0.2975 -0.0346  0.0533
  137OSM    H8F14957   5.024   3.856   7.750 -1.9818  1.3798 -2.2867
  137OSM    H8G14958   5.105   4.003   7.748 -0.1824 -1.0250  2.1493
  137OSM    C9F14959   5.241   3.836   7.735  0.3935 -0.0471  1.2502
  137OSM    H9F14960   5.252   3.754   7.662  0.6644  0.5957  0.5502
  137OSM   C10F14961   5.328   3.863   7.825 -0.3386  0.2523  0.2468
  137OSM   H10F14962   5.422   3.806   7.820 -1.3300 -1.4884  0.4735
  137OSM   C11F14963   5.319   3.973   7.925  0.2515 -0.7066  0.1108
  137OSM   H11F14964   5.214   4.012   7.923  0.3241 -0.5214 -0.0693
  137OSM   H11G14965   5.391   4.052   7.897  0.0627 -0.2548  0.8712
  137OSM   C12F14966   5.353   3.931   8.066 -0.4526 -0.6612  0.0414
  137OSM   H12F14967   5.353   4.027   8.123 -0.0144 -0.1629 -0.7709
  137OSM   H12G14968   5.459   3.898   8.059 -0.6699 -1.1481 -1.4257
  137OSM   C13F14969   5.283   3.809   8.119 -0.5075  0.7116  0.0399
  137OSM   H13F14970   5.317   3.721   8.059  1.3055  1.4671 -0.1120
  137OSM   H13G14971   5.173   3.808   8.112 -0.4673  1.4513 -0.8851
  137OSM   C14F14972   5.322   3.782   8.265  0.4086 -0.1487 -0.2271
  137OSM   H14F14973   5.229   3.743   8.310 -0.6963  2.4420 -0.0855
  137OSM   H14G14974   5.343   3.878   8.317  0.1555 -0.8256  1.1623
  137OSM   C15F14975   5.450   3.694   8.279 -0.8141 -0.6573 -0.1394
  137OSM   H15F14976   5.537   3.732   8.221 -2.4713  1.3070 -1.5132
  137OSM   H15G14977   5.423   3.588   8.259 -0.6865 -0.8841  0.8475
  137OSM   C16F14978   5.507   3.693   8.420  0.6242  0.3064 -0.4281
  137OSM   H16F14979   5.419   3.686   8.488  1.2882 -2.2118  0.2886
  137OSM   H16G14980   5.567   3.787   8.422  2.4166 -0.7922  1.8463
  137OSM   C17F14981   5.595   3.578   8.470  0.3311 -0.4576  0.0793
  137OSM   H17F14982   5.594   3.579   8.581 -1.4246  0.0038  0.0918
  137OSM   H17G14983   5.699   3.582   8.431 -0.6029  1.3735 -2.5067
  137OSM   C18F14984   5.546   3.438   8.435 -0.2743  0.3634 -0.4939
  137OSM   H18F14985   5.557   3.420   8.326 -2.6612  0.1091 -0.7410
  137OSM   H18G14986   5.440   3.442   8.468 -0.6158  4.1172 -1.5227
  137OSM   H18H14987   5.609   3.366   8.491  1.4193  1.0992 -1.3625
  138OSM      N14988   5.268   5.315   5.904 -0.3166 -0.3352  0.8374
  138OSM    C1514989   5.281   5.176   5.967  0.4874  0.8544  0.5475
  138OSM   H15A14990   5.185   5.134   5.992  0.1039  1.0841 -0.5266
  138OSM   H15B14991   5.337   5.184   6.060  0.1776  0.2961  0.7875
  138OSM   H15C14992   5.327   5.096   5.911 -0.2312  1.2243 -0.5865
  138OSM    C1414993   5.401   5.369   5.864 -0.1648 -0.1781 -0.1542
  138OSM   H14A14994   5.392   5.467   5.820 -1.8342 -0.3727 -0.3046
  138OSM   H14B14995   5.437   5.302   5.788  0.5943  0.2539 -0.1846
  138OSM   H14C14996   5.471   5.373   5.946 -0.3073 -0.6482 -0.0072
  138OSM    C1314997   5.185   5.301   5.778 -0.0793  0.0376 -0.4477
  138OSM   H13A14998   5.223   5.222   5.715  0.9722  1.4823 -1.7083
  138OSM   H13B14999   5.208   5.391   5.722  2.0364  1.2141  2.0572
  138OSM   H13C15000   5.080   5.288   5.799 -0.4229 -0.1417 -2.1377
  138OSM    C1215001   5.198   5.401   5.996  0.5617 -0.5021 -0.3448
  138OSM   H12A15002   5.100   5.361   6.015  0.2426 -0.4569 -1.7807
  138OSM   H12B15003   5.183   5.494   5.942  3.2654  1.0521  1.3253
  138OSM    C1115004   5.249   5.420   6.132  0.2753 -0.3254  0.0976
  138OSM   H11A15005   5.199   5.501   6.188  0.0818  0.2647 -0.9042
  138OSM   H11B15006   5.359   5.435   6.131  0.4033 -0.9954  1.5542
  138OSM      P15007   5.105   5.235   6.262 -0.4460 -0.1985 -0.1300
  138OSM    O1315008   5.021   5.335   6.326 -0.4046  0.1741 -0.0939
  138OSM    O1415009   5.053   5.148   6.154  0.6570  0.3780  0.1192
  138OSM    O1115010   5.151   5.142   6.380  0.4640  0.0408 -0.0511
  138OSM    O1215011   5.233   5.303   6.211  0.1824 -0.1199  0.7272
  138OSM    C1S15012   5.191   5.195   6.510 -0.1815  0.0590 -0.3029
  138OSM    H1S15013   5.158   5.295   6.546  0.7786  0.4788 -0.5414
  138OSM    H1T15014   5.302   5.196   6.516 -0.2506  0.4147  1.3985
  138OSM     NF15015   5.186   5.155   6.751 -0.1832 -0.3927  0.0007
  138OSM    HNF15016   5.255   5.102   6.799 -1.1471 -2.2405 -0.5735
  138OSM    C2S15017   5.145   5.103   6.627 -0.9584  0.2344  0.4153
  138OSM    H2S15018   5.035   5.101   6.617 -0.8980 -0.2001 -0.2797
  138OSM    C3S15019   5.198   4.956   6.604  0.2089  0.1624  0.8166
  138OSM    H3S15020   5.309   4.962   6.607  0.1034  2.6322  1.6583
  138OSM     O315021   5.165   4.911   6.470 -0.4246  0.3271  0.1468
  138OSM    HO315022   5.138   4.991   6.423 -0.8896  1.4390  2.1552
  138OSM    C4S15023   5.142   4.867   6.705  0.5933  0.2694 -0.4372
  138OSM    H4S15024   5.036   4.841   6.698  0.7020 -0.5702  0.6981
  138OSM    C5S15025   5.213   4.808   6.807  0.2827  0.2591 -0.4820
  138OSM    H5S15026   5.320   4.834   6.812  0.1948  1.4448 -3.2858
  138OSM    C6S15027   5.148   4.709   6.907  0.1535  0.0663 -0.3308
  138OSM    H6S15028   5.191   4.610   6.880  0.4074  0.1626 -0.2755
  138OSM    H6T15029   5.041   4.698   6.879  0.2090 -0.2064 -0.4424
  138OSM    C7S15030   5.167   4.733   7.051  0.1317  0.3455 -0.4790
  138OSM    H7S15031   5.276   4.745   7.066  0.1682  0.8680 -1.0743
  138OSM    H7T15032   5.150   4.641   7.110  2.0343  0.2747  0.0068
  138OSM    C8S15033   5.091   4.852   7.104  0.2544  0.2401 -0.7935
  138OSM    H8S15034   4.984   4.831   7.086 -0.2335  0.5744  1.4971
  138OSM    H8T15035   5.115   4.937   7.037  0.0866 -0.3907 -1.6715
  138OSM    C9S15036   5.126   4.897   7.250  0.5712 -0.2406  0.7098
  138OSM    H9S15037   5.156   4.802   7.299  0.6800 -0.8461 -0.4707
  138OSM    H9T15038   5.035   4.927   7.305 -0.7101 -0.4243 -1.2020
  138OSM   C10S15039   5.230   5.005   7.261 -0.1780 -0.6366  0.2193
  138OSM   H10S15040   5.207   5.073   7.176 -0.5507  0.2907  1.0348
  138OSM   H10T15041   5.330   4.964   7.237  0.4376  0.9910 -0.1509
  138OSM   C11S15042   5.229   5.081   7.402 -1.2104  0.2643  0.1988
  138OSM   H11S15043   5.127   5.117   7.424 -0.5009  0.7364  3.1414
  138OSM   H11T15044   5.298   5.168   7.390 -0.7513 -0.1616 -0.3037
  138OSM   C12S15045   5.277   4.989   7.514  1.3561  0.0543 -0.1027
  138OSM   H12S15046   5.370   4.932   7.494  1.2578 -0.4031  0.6818
  138OSM   H12T15047   5.202   4.908   7.524  0.2238  1.0382 -0.4378
  138OSM   C13S15048   5.308   5.061   7.651 -0.1556 -0.9662  0.4527
  138OSM   H13S15049   5.209   5.097   7.688  0.0962 -0.2157  0.4154
  138OSM   H13T15050   5.376   5.147   7.636 -1.3724  0.5773  3.1347
  138OSM   C14S15051   5.358   4.959   7.756  0.3553  0.2532 -0.3389
  138OSM   H14S15052   5.450   4.913   7.712  0.4046 -1.4034  1.3819
  138OSM   H14T15053   5.292   4.870   7.759  1.0579 -0.4316 -2.8039
  138OSM   C15S15054   5.386   5.023   7.890 -0.3248 -0.3996 -1.0310
  138OSM   H15S15055   5.293   5.073   7.927 -0.0762 -1.5936  1.3931
  138OSM   H15T15056   5.466   5.100   7.882 -2.7777  2.6548  1.3071
  138OSM   C16S15057   5.423   4.908   7.993  0.0923 -0.2309  0.3443
  138OSM   H16S15058   5.476   4.828   7.937  0.1598 -1.3269  1.9066
  138OSM   H16T15059   5.336   4.854   8.036 -0.2751 -1.6252 -2.0209
  138OSM   C17S15060   5.517   4.956   8.101 -0.7456 -0.2988 -0.1662
  138OSM   H17S15061   5.465   5.040   8.153 -0.3225  0.4546 -0.9482
  138OSM   H17T15062   5.607   4.992   8.048 -1.6342  0.2621 -1.3424
  138OSM   C18S15063   5.570   4.845   8.205  0.2653 -0.4993 -0.5377
  138OSM   H18S15064   5.640   4.891   8.279 -0.2670 -0.2939 -0.1522
  138OSM   H18T15065   5.620   4.764   8.149  0.7074 -1.9450  1.8258
  138OSM   H18U15066   5.484   4.790   8.249 -1.0778  2.2102  0.4869
  138OSM    C1F15067   5.157   5.276   6.803 -0.4711  0.6177  1.6291
  138OSM     OF15068   5.071   5.344   6.758  0.0244 -0.0871 -0.0304
  138OSM    C2F15069   5.233   5.306   6.933  0.2609 -0.5320 -0.6012
  138OSM    H2F15070   5.343   5.296   6.921  0.4118 -0.5361  0.6054
  138OSM    H2G15071   5.197   5.240   7.015 -0.2516 -0.0075 -0.3952
  138OSM    C3F15072   5.201   5.448   6.980  0.0250 -0.6869  0.3519
  138OSM    H3F15073   5.091   5.455   6.990 -0.1533 -0.5147 -1.3685
  138OSM    H3G15074   5.242   5.508   6.896 -0.1006 -0.3929  0.4980
  138OSM    C4F15075   5.286   5.495   7.100 -0.8315  0.7965  0.1660
  138OSM    H4F15076   5.291   5.605   7.111 -0.7613  1.1002 -2.2516
  138OSM    H4G15077   5.392   5.474   7.073 -1.1631  0.5170 -0.9632
  138OSM    C5F15078   5.261   5.420   7.228  0.0820 -0.4011 -0.6768
  138OSM    H5F15079   5.278   5.311   7.218  0.7477 -0.1693 -2.2463
  138OSM    H5G15080   5.156   5.449   7.253  1.3689  2.2080  2.4228
  138OSM    C6F15081   5.336   5.485   7.352 -0.2240  0.1731 -0.0152
  138OSM    H6F15082   5.381   5.583   7.326 -0.6898  0.9866  2.0625
  138OSM    H6G15083   5.412   5.411   7.386  0.6367  0.6235 -0.9234
  138OSM    C7F15084   5.240   5.507   7.473  0.3034 -0.1737  0.7558
  138OSM    H7F15085   5.174   5.420   7.493 -1.0142  0.5373 -0.3382
  138OSM    H7G15086   5.175   5.589   7.437  0.3688 -0.5092 -0.1394
  138OSM    C8F15087   5.331   5.544   7.590 -0.3482  0.1001  0.2331
  138OSM    H8F15088   5.269   5.608   7.656 -2.4254 -1.0370 -0.4897
  138OSM    H8G15089   5.401   5.623   7.555 -1.2055  0.4020 -0.8924
  138OSM    C9F15090   5.409   5.435   7.658  0.3030 -0.2588 -0.2162
  138OSM    H9F15091   5.498   5.401   7.603  1.0028  0.6218  0.3466
  138OSM   C10F15092   5.391   5.395   7.784 -0.2482 -0.0223 -0.3220
  138OSM   H10F15093   5.434   5.304   7.829 -2.2478 -0.4914  0.7500
  138OSM   C11F15094   5.281   5.443   7.868 -0.5937  0.3262  0.2570
  138OSM   H11F15095   5.218   5.363   7.913 -0.4101 -0.2515 -0.5040
  138OSM   H11G15096   5.204   5.496   7.807 -0.7248  0.2296  0.3363
  138OSM   C12F15097   5.338   5.525   7.989  0.3656  0.1710 -0.4665
  138OSM   H12F15098   5.378   5.619   7.944  2.4467  0.5803  2.0228
  138OSM   H12G15099   5.421   5.474   8.042  1.4210  1.7046 -0.5562
  138OSM   C13F15100   5.220   5.545   8.088  0.0885 -0.8599  0.7195
  138OSM   H13F15101   5.192   5.445   8.129  1.0930 -0.7021  1.8391
  138OSM   H13G15102   5.136   5.584   8.026 -0.2519 -0.6230  1.3114
  138OSM   C14F15103   5.264   5.630   8.201 -0.4405 -0.2213 -0.4740
  138OSM   H14F15104   5.345   5.696   8.162 -1.8220  0.9726 -1.4496
  138OSM   H14G15105   5.304   5.573   8.287 -0.1676 -0.3972 -0.7141
  138OSM   C15F15106   5.136   5.711   8.252 -0.1307 -0.1788 -0.1953
  138OSM   H15F15107   5.102   5.781   8.173 -1.9600 -2.0112 -1.1082
  138OSM   H15G15108   5.188   5.772   8.329 -0.3589 -1.9175  1.4055
  138OSM   C16F15109   5.017   5.632   8.301  0.7365  0.5368 -0.5361
  138OSM   H16F15110   4.975   5.558   8.229  0.4998 -1.7411  1.7975
  138OSM   H16G15111   4.939   5.708   8.322  0.2310  0.7887 -2.9745
  138OSM   C17F15112   5.053   5.562   8.434  0.0990 -0.4513  0.2861
  138OSM   H17F15113   5.100   5.636   8.502  2.1059 -0.4753 -0.9864
  138OSM   H17G15114   5.119   5.477   8.407 -0.0393 -0.0762 -1.3043
  138OSM   C18F15115   4.930   5.503   8.507 -0.1225 -0.3617  0.4008
  138OSM   H18F15116   4.967   5.450   8.597 -0.7924 -1.7932 -0.1439
  138OSM   H18G15117   4.877   5.434   8.438 -2.1731  1.3371  0.1436
  138OSM   H18H15118   4.860   5.587   8.530 -0.2149  0.4242 -2.3897
  139OSM      N15119   3.150   6.224   6.001  0.5131  0.6105 -0.3442
  139OSM    C1515120   3.040   6.124   5.989  0.2931 -0.1139  0.5027
  139OSM   H15A15121   2.948   6.151   6.040 -0.9399 -2.2343 -0.4939
  139OSM   H15B15122   3.066   6.028   6.031  1.2924 -0.8842 -1.7265
  139OSM   H15C15123   3.016   6.115   5.884  1.0144  1.2580  0.1938
  139OSM    C1415124   3.196   6.236   6.141  0.7765 -1.0942 -0.4237
  139OSM   H14A15125   3.247   6.329   6.162 -1.6405 -0.0282  1.2536
  139OSM   H14B15126   3.264   6.165   6.184  2.1578  1.0667  1.1532
  139OSM   H14C15127   3.105   6.260   6.195  1.6652 -0.0587  0.6523
  139OSM    C1315128   3.273   6.184   5.923  0.1750 -0.1854 -0.1512
  139OSM   H13A15129   3.341   6.264   5.899 -0.5824  0.1528 -1.2506
  139OSM   H13B15130   3.244   6.149   5.825 -1.5300  1.2505 -0.2041
  139OSM   H13C15131   3.323   6.103   5.975 -0.0399 -0.6750 -0.6917
  139OSM    C1215132   3.093   6.357   5.942  0.3822 -1.1113  0.3025
  139OSM   H12A15133   3.063   6.343   5.839 -1.3111  1.5567  0.3504
  139OSM   H12B15134   3.182   6.417   5.926 -1.4077  1.2415 -1.6039
  139OSM    C1115135   2.981   6.431   6.020 -0.2761 -0.0255  0.2102
  139OSM   H11A15136   2.891   6.366   6.021  1.1335 -2.1144 -1.0513
  139OSM   H11B15137   2.956   6.522   5.960  0.0017 -1.6643 -2.5462
  139OSM      P15138   3.048   6.629   6.190 -0.1596 -0.3018  0.2903
  139OSM    O1315139   3.182   6.666   6.139 -0.4750 -0.5507  0.5691
  139OSM    O1415140   2.932   6.709   6.142  0.1150  0.3461  0.1883
  139OSM    O1115141   3.052   6.625   6.349  0.1865  0.3642  0.2823
  139OSM    O1215142   3.031   6.474   6.153 -0.6234  0.0351  0.2218
  139OSM    C1S15143   2.934   6.609   6.419 -0.7638 -0.1061 -0.6759
  139OSM    H1S15144   2.871   6.533   6.367  2.4768 -2.7473 -1.0990
  139OSM    H1T15145   2.883   6.707   6.423  0.0227  0.2521  1.5688
  139OSM     NF15146   2.840   6.547   6.619  0.2303  0.1105 -0.1781
  139OSM    HNF15147   2.803   6.620   6.675  1.2259  1.8227 -1.6682
  139OSM    C2S15148   2.969   6.563   6.558  0.2913 -0.6878 -0.4505
  139OSM    H2S15149   3.026   6.467   6.563  1.9939  0.3425  1.3348
  139OSM    C3S15150   3.056   6.676   6.627 -0.0209 -1.4094  0.4285
  139OSM    H3S15151   2.994   6.767   6.612 -0.0501 -1.7116 -1.5249
  139OSM     O315152   3.187   6.703   6.561 -0.3976 -0.0018 -0.0267
  139OSM    HO315153   3.160   6.685   6.471  0.4390 -1.1352 -0.0673
  139OSM    C4S15154   3.082   6.648   6.770 -0.1815 -0.4228  0.3852
  139OSM    H4S15155   3.007   6.687   6.840 -1.3379 -1.3589 -0.2915
  139OSM    C5S15156   3.175   6.563   6.813  0.1737 -0.2782 -0.5924
  139OSM    H5S15157   3.246   6.524   6.738 -2.5929 -1.2579 -2.8820
  139OSM    C6S15158   3.210   6.521   6.948 -0.3696 -0.0354  0.3872
  139OSM    H6S15159   3.313   6.556   6.968 -0.8275  0.6150  1.7025
  139OSM    H6T15160   3.192   6.413   6.964  0.0184  0.2564  3.3643
  139OSM    C7S15161   3.124   6.595   7.054  0.6861 -0.9518  0.5023
  139OSM    H7S15162   3.017   6.565   7.043  0.7163 -0.9405  0.1701
  139OSM    H7T15163   3.127   6.705   7.036 -1.7943 -0.8936  0.0628
  139OSM    C8S15164   3.187   6.571   7.187  0.6137 -0.1819  0.2284
  139OSM    H8S15165   3.282   6.628   7.189  0.2285  0.4600  0.6551
  139OSM    H8T15166   3.213   6.463   7.195  1.6219  0.0028 -0.4072
  139OSM    C9S15167   3.097   6.615   7.307 -0.4374 -0.1835  0.2234
  139OSM    H9S15168   2.996   6.575   7.285  0.1321 -1.6557  0.1561
  139OSM    H9T15169   3.096   6.726   7.306 -0.7708 -0.1592  1.7722
  139OSM   C10S15170   3.152   6.578   7.441  0.2932  0.9859  0.0815
  139OSM   H10S15171   3.259   6.610   7.442  1.0764 -1.3698 -1.0850
  139OSM   H10T15172   3.153   6.467   7.453  0.7566  1.0178  0.4026
  139OSM   C11S15173   3.091   6.646   7.558 -0.5034  0.3243 -0.9781
  139OSM   H11S15174   2.980   6.639   7.560 -0.3890 -2.6550 -0.8785
  139OSM   H11T15175   3.124   6.752   7.558 -0.3146  0.2836  0.5753
  139OSM   C12S15176   3.138   6.570   7.683 -0.5653  0.2787 -0.2377
  139OSM   H12S15177   3.246   6.591   7.696 -0.1971 -2.2669  1.6869
  139OSM   H12T15178   3.105   6.464   7.676 -3.4556  0.9801  1.0300
  139OSM   C13S15179   3.066   6.611   7.817 -0.1478  0.2825 -0.2331
  139OSM   H13S15180   2.957   6.599   7.796 -0.1470 -2.2114  0.8434
  139OSM   H13T15181   3.097   6.718   7.819 -1.1519  0.5696  0.6725
  139OSM   C14S15182   3.110   6.549   7.948  0.0260  0.0249 -0.1779
  139OSM   H14S15183   3.064   6.612   8.028  1.0882 -0.1494  0.5846
  139OSM   H14T15184   3.219   6.568   7.961 -0.4558  1.3094  2.9334
  139OSM   C15S15185   3.081   6.400   7.970  0.3804 -0.0263  0.1663
  139OSM   H15S15186   3.117   6.339   7.884 -0.5461  0.4960 -0.6120
  139OSM   H15T15187   2.972   6.379   7.978  0.8239 -3.3547 -0.9642
  139OSM   C16S15188   3.148   6.343   8.098 -0.2219 -0.2145  0.6849
  139OSM   H16S15189   3.253   6.379   8.107 -0.0174 -0.7215  0.3969
  139OSM   H16T15190   3.152   6.232   8.099  3.1578 -0.2162 -0.8546
  139OSM   C17S15191   3.085   6.386   8.226  0.1450  0.3637 -0.2260
  139OSM   H17S15192   2.976   6.365   8.232  0.3116 -1.3870 -2.0992
  139OSM   H17T15193   3.102   6.494   8.244 -0.7889  0.3818  0.6239
  139OSM   C18S15194   3.157   6.325   8.351 -0.1544  0.1603  0.2563
  139OSM   H18S15195   3.096   6.359   8.437  0.2142 -2.4267  1.6476
  139OSM   H18T15196   3.258   6.366   8.373  0.6142 -2.6051  2.4222
  139OSM   H18U15197   3.163   6.214   8.347 -1.3452  0.1051 -0.9513
  139OSM    C1F15198   2.763   6.438   6.590  0.1965 -0.1648 -0.0940
  139OSM     OF15199   2.805   6.350   6.523  0.0238  0.6315 -1.0896
  139OSM    C2F15200   2.623   6.431   6.638 -0.3851  0.0712  0.3940
  139OSM    H2F15201   2.561   6.484   6.562  1.6213  0.5172 -1.0280
  139OSM    H2G15202   2.627   6.487   6.734 -0.9889 -1.0937  1.1236
  139OSM    C3F15203   2.573   6.290   6.661  0.1720  0.1497  0.3480
  139OSM    H3F15204   2.586   6.227   6.570 -1.0930 -2.5544  1.9038
  139OSM    H3G15205   2.463   6.296   6.669 -0.3098 -4.0054 -0.6522
  139OSM    C4F15206   2.648   6.215   6.781 -0.1406  0.3295 -0.5912
  139OSM    H4F15207   2.751   6.187   6.751 -0.7288 -1.8137 -0.7489
  139OSM    H4G15208   2.599   6.116   6.783 -1.5788  1.0151  0.9304
  139OSM    C5F15209   2.645   6.297   6.919  0.5128 -0.6554  0.3070
  139OSM    H5F15210   2.553   6.358   6.926  2.1716  2.1069 -0.4464
  139OSM    H5G15211   2.729   6.369   6.907 -0.9930  1.0370 -0.5792
  139OSM    C6F15212   2.674   6.208   7.042  0.0646  0.1241  0.5363
  139OSM    H6F15213   2.739   6.122   7.012 -0.3275  0.1255 -0.3573
  139OSM    H6G15214   2.576   6.158   7.062 -0.7258  2.0841  1.8900
  139OSM    C7F15215   2.726   6.283   7.167 -0.1295 -0.3352 -0.0102
  139OSM    H7F15216   2.653   6.360   7.197 -0.1389  0.1908 -1.3344
  139OSM    H7G15217   2.819   6.335   7.134  0.6322 -0.3279  1.9975
  139OSM    C8F15218   2.761   6.183   7.288  0.2922  0.1224 -0.1306
  139OSM    H8F15219   2.830   6.110   7.240 -0.6848 -1.6315  1.0235
  139OSM    H8G15220   2.669   6.126   7.314 -0.0370  0.3542 -0.7835
  139OSM    C9F15221   2.829   6.247   7.408  0.0401  0.0806 -0.3907
  139OSM    H9F15222   2.928   6.288   7.381 -1.8680  2.3285 -5.2656
  139OSM   C10F15223   2.790   6.251   7.534 -0.4693 -0.1881 -0.0959
  139OSM   H10F15224   2.849   6.299   7.613 -1.0023 -2.0147  1.4790
  139OSM   C11F15225   2.655   6.200   7.578  0.5806  0.5109  0.6211
  139OSM   H11F15226   2.638   6.091   7.562 -0.3378  0.4709  1.8119
  139OSM   H11G15227   2.573   6.243   7.517  0.8601 -0.6392 -0.6373
  139OSM   C12F15228   2.612   6.217   7.724  0.7533 -0.6762 -1.0029
  139OSM   H12F15229   2.501   6.216   7.730  0.7278  1.1250 -0.4350
  139OSM   H12G15230   2.639   6.319   7.761  2.5842 -1.8070  1.0473
  139OSM   C13F15231   2.674   6.141   7.832 -0.0173  0.2693 -0.1666
  139OSM   H13F15232   2.781   6.139   7.802  0.3903  0.4945  1.2337
  139OSM   H13G15233   2.639   6.035   7.825 -2.8859  1.1866 -1.0989
  139OSM   C14F15234   2.646   6.187   7.976  0.4966 -1.0690  0.6139
  139OSM   H14F15235   2.535   6.177   7.976  0.4041 -0.0921  0.6118
  139OSM   H14G15236   2.671   6.295   7.981  0.2114 -0.9614 -0.1172
  139OSM   C15F15237   2.707   6.105   8.090  0.9474 -0.1429 -0.1398
  139OSM   H15F15238   2.818   6.116   8.091  0.9542 -0.1162  1.8131
  139OSM   H15G15239   2.679   6.002   8.059  1.1828  0.0060 -0.8806
  139OSM   C16F15240   2.648   6.129   8.231  0.4679 -0.2708  0.4309
  139OSM   H16F15241   2.661   6.237   8.255 -1.5444 -0.0659  0.7497
  139OSM   H16G15242   2.719   6.072   8.295  1.3998 -1.7308 -1.7924
  139OSM   C17F15243   2.516   6.058   8.256  0.4504 -0.0694  0.5265
  139OSM   H17F15244   2.528   5.950   8.231 -1.3893 -0.4611  1.1706
  139OSM   H17G15245   2.442   6.100   8.184  0.2833 -2.4942 -0.8337
  139OSM   C18F15246   2.472   6.064   8.400  0.2640  0.8533  0.4779
  139OSM   H18F15247   2.452   6.168   8.435 -0.9125  0.9994 -0.5459
  139OSM   H18G15248   2.555   6.024   8.462  1.5626  2.3728 -0.1909
  139OSM   H18H15249   2.385   6.001   8.428 -0.6464  1.6639 -0.4182
  140OSM      N15250   3.135   1.535   5.917 -0.1242  1.1114 -0.2558
  140OSM    C1515251   3.233   1.421   5.961 -0.0570 -0.0756  0.0976
  140OSM   H15A15252   3.175   1.330   5.967 -2.7293  1.5570  0.6535
  140OSM   H15B15253   3.280   1.436   6.057 -0.7246 -0.7954  0.5478
  140OSM   H15C15254   3.310   1.411   5.885 -0.8900 -0.8755 -0.6627
  140OSM    C1415255   3.197   1.663   5.910 -0.0043  0.1062  0.5536
  140OSM   H14A15256   3.269   1.657   5.830  1.2513  0.6080  1.5977
  140OSM   H14B15257   3.256   1.697   5.994 -0.1533 -0.6506  0.9712
  140OSM   H14C15258   3.122   1.738   5.893  0.6160  0.5635 -0.2450
  140OSM    C1315259   3.073   1.476   5.785  0.8090  0.4914 -0.1033
  140OSM   H13A15260   3.020   1.555   5.734  1.9602  0.5493 -1.2723
  140OSM   H13B15261   2.994   1.403   5.797  0.4553  0.2276 -3.0917
  140OSM   H13C15262   3.158   1.446   5.725  1.6042 -0.0994  1.2694
  140OSM    C1215263   3.026   1.541   6.027  0.5223 -0.5406  0.0268
  140OSM   H12A15264   2.972   1.447   6.024  0.8989 -0.7391 -2.1577
  140OSM   H12B15265   2.960   1.613   5.982  0.5077 -1.9332 -2.3526
  140OSM    C1115266   3.066   1.586   6.170  0.4667 -0.2336 -0.5397
  140OSM   H11A15267   2.971   1.598   6.227 -0.4483 -0.2049 -2.0212
  140OSM   H11B15268   3.110   1.688   6.169  0.3307 -0.1485 -2.4042
  140OSM      P15269   3.112   1.375   6.322 -0.2359  0.1157 -0.0675
  140OSM    O1315270   2.992   1.306   6.262 -0.1096 -0.4756  0.1170
  140OSM    O1415271   3.229   1.291   6.349 -0.3530  0.7352 -0.1338
  140OSM    O1115272   3.070   1.445   6.454 -0.1918 -0.0273  0.3719
  140OSM    O1215273   3.152   1.488   6.229 -0.3204  0.3490 -0.0352
  140OSM    C1S15274   3.132   1.571   6.498  0.3426 -0.3017  0.0132
  140OSM    H1S15275   3.060   1.652   6.472 -2.2283 -1.8645  1.7822
  140OSM    H1T15276   3.236   1.584   6.461  0.4976 -0.7033  0.2992
  140OSM     NF15277   3.210   1.711   6.690  0.7479 -0.0761 -0.0181
  140OSM    HNF15278   3.309   1.715   6.704  0.7068  0.6661  0.0751
  140OSM    C2S15279   3.155   1.580   6.657 -0.8481  0.3747  0.1625
  140OSM    H2S15280   3.056   1.568   6.705  0.0120 -2.6146  1.4470
  140OSM    C3S15281   3.241   1.456   6.707 -0.2522 -0.1063  0.2685
  140OSM    H3S15282   3.336   1.453   6.651 -1.4258  0.3815 -1.8551
  140OSM     O315283   3.193   1.331   6.679 -0.3027 -0.3163  0.5452
  140OSM    HO315284   3.123   1.346   6.616 -0.5354  0.2211  0.9247
  140OSM    C4S15285   3.271   1.474   6.850  0.3841  0.4606 -0.6034
  140OSM    H4S15286   3.351   1.548   6.868  0.8816  0.4281 -2.4663
  140OSM    C5S15287   3.208   1.403   6.950 -0.0445  0.0194  0.2777
  140OSM    H5S15288   3.128   1.330   6.932  0.9901 -0.5518 -2.3939
  140OSM    C6S15289   3.234   1.407   7.097  0.1852  0.0740 -0.6641
  140OSM    H6S15290   3.315   1.481   7.114  1.3125 -0.9709 -1.3404
  140OSM    H6T15291   3.266   1.307   7.133 -0.1829 -0.0878 -0.7761
  140OSM    C7S15292   3.103   1.434   7.170 -0.2269  0.7366  0.6623
  140OSM    H7S15293   3.018   1.379   7.124  1.7883 -1.8531 -0.1717
  140OSM    H7T15294   3.076   1.542   7.159 -4.1059 -0.1045  0.5216
  140OSM    C8S15295   3.107   1.372   7.309 -0.4938  0.1330  0.4222
  140OSM    H8S15296   3.181   1.423   7.375 -0.6216 -0.5273  1.0874
  140OSM    H8T15297   3.155   1.272   7.302 -0.2985  0.0093  2.6811
  140OSM    C9S15298   2.973   1.366   7.381  0.0053  0.3884 -0.4424
  140OSM    H9S15299   2.944   1.260   7.398 -1.7334  1.0935  1.4731
  140OSM    H9T15300   2.895   1.415   7.319 -0.4606 -2.7562 -2.5836
  140OSM   C10S15301   2.980   1.437   7.514  0.3623  0.3618  0.0925
  140OSM   H10S15302   2.879   1.467   7.549  0.8079  2.6246 -0.4050
  140OSM   H10T15303   3.038   1.532   7.514  0.3948  0.3768  1.9454
  140OSM   C11S15304   3.039   1.370   7.636  0.2080 -0.1126  0.0727
  140OSM   H11S15305   3.149   1.357   7.636  0.1688 -0.4558 -0.0082
  140OSM   H11T15306   2.986   1.273   7.645 -0.8144  0.5646  1.6451
  140OSM   C12S15307   3.009   1.447   7.766 -0.2600  0.2643 -0.6147
  140OSM   H12S15308   2.901   1.473   7.772 -0.6106 -1.1724 -0.3398
  140OSM   H12T15309   3.054   1.548   7.769 -0.4192  0.3202  1.6156
  140OSM   C13S15310   3.046   1.364   7.887  0.0314  0.4763  0.3773
  140OSM   H13S15311   3.135   1.298   7.876 -0.3214 -0.3380  2.0928
  140OSM   H13T15312   2.966   1.300   7.930 -0.3951  0.3549 -0.5719
  140OSM   C14S15313   3.072   1.447   8.007 -0.2706  0.5234 -0.6134
  140OSM   H14S15314   3.093   1.377   8.090  1.8697  2.0986  0.2640
  140OSM   H14T15315   2.984   1.514   8.026 -2.9290 -2.4728 -1.4792
  140OSM   C15S15316   3.206   1.515   7.987 -0.0325  0.3961  0.0900
  140OSM   H15S15317   3.197   1.588   7.904 -3.0865 -1.7088 -1.6580
  140OSM   H15T15318   3.276   1.437   7.952 -1.6549 -1.4754  0.7921
  140OSM   C16S15319   3.254   1.585   8.110 -0.4938 -0.1201  0.5117
  140OSM   H16S15320   3.292   1.519   8.191  0.4218  1.0209  1.0410
  140OSM   H16T15321   3.176   1.649   8.156  0.0055  0.6001  0.3695
  140OSM   C17S15322   3.384   1.669   8.072  0.3856  0.0365 -1.5410
  140OSM   H17S15323   3.353   1.745   7.997 -0.6261  0.3214 -0.8469
  140OSM   H17T15324   3.454   1.611   8.008  0.5124  1.3066 -2.6192
  140OSM   C18S15325   3.463   1.710   8.201 -0.4242  1.0216  0.0670
  140OSM   H18S15326   3.385   1.751   8.268 -0.3970  0.5261  0.4109
  140OSM   H18T15327   3.546   1.781   8.182  0.9334  0.4024  2.9800
  140OSM   H18U15328   3.502   1.620   8.255 -2.1323  0.1796 -0.0293
  140OSM    C1F15329   3.137   1.826   6.672 -0.0952  1.1342  0.0615
  140OSM     OF15330   3.014   1.824   6.664  0.0517  0.1061 -0.0270
  140OSM    C2F15331   3.219   1.949   6.651 -0.3355 -0.7834  0.8645
  140OSM    H2F15332   3.194   2.001   6.556 -0.9016  1.8894  2.3664
  140OSM    H2G15333   3.326   1.920   6.647 -0.5963 -2.2266  2.9035
  140OSM    C3F15334   3.187   2.063   6.743 -0.6187  0.6642 -0.3129
  140OSM    H3F15335   3.079   2.085   6.758 -0.7337 -0.0917  0.0208
  140OSM    H3G15336   3.239   2.152   6.703  2.9399 -1.7747 -1.6254
  140OSM    C4F15337   3.247   2.029   6.884 -0.2512 -0.2924  0.3965
  140OSM    H4F15338   3.301   2.116   6.929 -0.5896  1.2277 -1.9759
  140OSM    H4G15339   3.313   1.941   6.870 -0.6605 -0.4206 -0.8098
  140OSM    C5F15340   3.146   1.989   6.990 -0.1139  1.0986 -0.0082
  140OSM    H5F15341   3.092   1.902   6.947  0.4593  0.3574  0.7447
  140OSM    H5G15342   3.063   2.063   6.988  0.7738  2.1141 -0.1587
  140OSM    C6F15343   3.186   1.956   7.134 -0.0669 -0.0118 -0.8079
  140OSM    H6F15344   3.096   1.942   7.198 -0.3797 -0.5879 -1.3737
  140OSM    H6G15345   3.261   2.023   7.182  1.9839 -3.1821  0.7304
  140OSM    C7F15346   3.252   1.816   7.141 -0.4556 -0.5509  0.0612
  140OSM    H7F15347   3.337   1.812   7.068 -0.3598 -2.7773  0.2308
  140OSM    H7G15348   3.176   1.755   7.088 -3.3364  0.8037  2.3936
  140OSM    C8F15349   3.307   1.761   7.272  0.1196  0.3173 -0.2581
  140OSM    H8F15350   3.401   1.817   7.287 -1.0635  1.5586  3.9758
  140OSM    H8G15351   3.328   1.653   7.254  0.1074  0.2049  0.3888
  140OSM    C9F15352   3.225   1.762   7.398 -0.0215  0.4460 -0.5876
  140OSM    H9F15353   3.140   1.693   7.389  0.3028  0.2310 -2.4472
  140OSM   C10F15354   3.247   1.849   7.502  1.1965 -0.5266  0.0301
  140OSM   H10F15355   3.176   1.850   7.586  1.1403  0.6758 -0.0041
  140OSM   C11F15356   3.352   1.960   7.511 -0.2955 -0.6903 -0.8832
  140OSM   H11F15357   3.323   2.048   7.573  3.4294 -0.9014  1.5202
  140OSM   H11G15358   3.377   1.998   7.410  1.1630  1.2718  0.1314
  140OSM   C12F15359   3.483   1.902   7.563 -0.1142  0.0207 -0.5462
  140OSM   H12F15360   3.550   1.988   7.582  0.4234 -0.1187 -1.7234
  140OSM   H12G15361   3.534   1.842   7.483  1.2072  0.1172  0.1943
  140OSM   C13F15362   3.474   1.822   7.693  0.9976  0.4666  0.8164
  140OSM   H13F15363   3.411   1.733   7.675  0.6946  0.6122  1.1615
  140OSM   H13G15364   3.421   1.875   7.774  0.7608  2.1329 -0.3582
  140OSM   C14F15365   3.604   1.772   7.750  0.0931  0.9216 -0.8364
  140OSM   H14F15366   3.661   1.692   7.700 -0.1406 -0.5592  1.1588
  140OSM   H14G15367   3.575   1.726   7.847  0.8512 -1.3760 -1.6576
  140OSM   C15F15368   3.698   1.885   7.785  0.6910 -0.2036 -0.3471
  140OSM   H15F15369   3.636   1.973   7.812 -0.4470 -1.6782  2.2049
  140OSM   H15G15370   3.751   1.923   7.696 -0.5043 -1.6823 -1.7502
  140OSM   C16F15371   3.802   1.844   7.882  0.0400  0.0562 -0.5484
  140OSM   H16F15372   3.858   1.756   7.843  0.3985  0.1789 -0.3172
  140OSM   H16G15373   3.757   1.828   7.982  2.7314 -0.7183  0.6302
  140OSM   C17F15374   3.905   1.956   7.891 -0.0094  0.4081  0.0107
  140OSM   H17F15375   3.849   2.050   7.910 -2.8508 -1.0626 -0.4182
  140OSM   H17G15376   3.955   1.968   7.793 -0.0346 -1.0051 -0.2038
  140OSM   C18F15377   4.017   1.930   7.994  0.1690 -0.0153 -0.4106
  140OSM   H18F15378   4.064   1.830   7.988  0.6872  0.1935  0.0930
  140OSM   H18G15379   3.975   1.948   8.096 -2.1201 -0.6325 -1.1874
  140OSM   H18H15380   4.093   2.010   7.980 -1.5300  1.4626 -1.6569
  141OSM      N15381   4.642   4.734   6.272 -0.2209  0.6779 -0.4674
  141OSM    C1515382   4.660   4.627   6.174 -0.3467 -0.0752  0.0232
  141OSM   H15A15383   4.618   4.539   6.221  0.7776  0.8450  2.9527
  141OSM   H15B15384   4.764   4.600   6.162 -0.5679 -1.9067  1.6832
  141OSM   H15C15385   4.605   4.649   6.084 -1.4135  0.9797  0.9097
  141OSM    C1415386   4.731   4.711   6.395  0.6854  0.0133  0.0549
  141OSM   H14A15387   4.836   4.710   6.370  0.5830  4.6050 -1.4136
  141OSM   H14B15388   4.704   4.617   6.441  1.9287 -1.3299 -1.8206
  141OSM   H14C15389   4.713   4.796   6.459 -2.6627 -0.0036 -0.7119
  141OSM    C1315390   4.681   4.862   6.201 -0.5997  0.4798  0.4707
  141OSM   H13A15391   4.669   4.950   6.262 -2.5884  0.8776 -0.3990
  141OSM   H13B15392   4.619   4.877   6.113 -0.3490  2.1555  0.5543
  141OSM   H13C15393   4.782   4.858   6.163 -0.1031  0.7095  1.7222
  141OSM    C1215394   4.500   4.738   6.325  0.5068  0.0220 -0.4464
  141OSM   H12A15395   4.435   4.697   6.250 -2.8274  0.7422  1.8037
  141OSM   H12B15396   4.479   4.843   6.336  0.4716  0.2633 -2.4459
  141OSM    C1115397   4.461   4.654   6.456 -0.6963  0.6804  0.1628
  141OSM   H11A15398   4.356   4.669   6.487 -0.5804  2.0951 -0.0300
  141OSM   H11B15399   4.507   4.710   6.540 -2.0575  0.8001  0.8571
  141OSM      P15400   4.414   4.399   6.410  0.4829 -0.3183 -0.1133
  141OSM    O1315401   4.272   4.450   6.397  0.5815 -0.4046  0.4103
  141OSM    O1415402   4.473   4.340   6.289  0.0417 -0.3774  0.0050
  141OSM    O1115403   4.427   4.295   6.537 -0.1309 -0.4940 -0.4210
  141OSM    O1215404   4.508   4.520   6.454  0.0575  0.7555  0.0729
  141OSM    C1S15405   4.543   4.257   6.616 -0.0682  0.1345 -0.1337
  141OSM    H1S15406   4.607   4.344   6.642 -0.7866  0.3496  0.9568
  141OSM    H1T15407   4.597   4.173   6.567  0.2067  1.4373 -2.2024
  141OSM     NF15408   4.609   4.182   6.842  0.8672  0.5307  0.6708
  141OSM    HNF15409   4.675   4.108   6.833  1.0336  0.6621  0.8051
  141OSM    C2S15410   4.494   4.194   6.747 -0.0033  0.1491 -0.2164
  141OSM    H2S15411   4.431   4.268   6.802  1.6982 -0.0356  2.1589
  141OSM    C3S15412   4.408   4.068   6.715 -0.1926  0.0334 -0.0727
  141OSM    H3S15413   4.469   4.011   6.642  0.3941 -0.8062  1.0461
  141OSM     O315414   4.288   4.104   6.649  0.1210 -0.9611  0.0098
  141OSM    HO315415   4.305   4.197   6.634  0.5945 -1.2267 -1.1616
  141OSM    C4S15416   4.382   4.001   6.842  0.1331  0.1661  0.1916
  141OSM    H4S15417   4.326   4.064   6.913 -0.8115  3.5275 -3.1905
  141OSM    C5S15418   4.423   3.872   6.856 -0.2049  0.6185  0.2023
  141OSM    H5S15419   4.486   3.828   6.778  0.3033 -0.4563  1.1983
  141OSM    C6S15420   4.388   3.793   6.975 -0.0092 -0.6571  0.3160
  141OSM    H6S15421   4.324   3.705   6.951  0.1381 -0.8355  0.5726
  141OSM    H6T15422   4.326   3.857   7.042 -0.0543 -0.1887 -0.1724
  141OSM    C7S15423   4.513   3.756   7.048 -1.3068  1.0399  0.1350
  141OSM    H7S15424   4.581   3.843   7.060 -0.0147  0.8647 -4.2571
  141OSM    H7T15425   4.578   3.682   6.995  1.0850  0.4312  3.5723
  141OSM    C8S15426   4.477   3.706   7.185 -0.7841  1.0859 -0.2520
  141OSM    H8S15427   4.447   3.599   7.180 -1.0325  1.1259  0.3116
  141OSM    H8T15428   4.394   3.765   7.230 -0.8223  0.4785  0.4949
  141OSM    C9S15429   4.594   3.722   7.281 -0.2652 -0.2494 -0.2052
  141OSM    H9S15430   4.632   3.826   7.270  0.6990 -0.6856 -1.2035
  141OSM    H9T15431   4.671   3.647   7.253 -0.0021  0.6960 -2.1810
  141OSM   C10S15432   4.545   3.703   7.425  0.2974 -0.3556  0.8698
  141OSM   H10S15433   4.489   3.607   7.428 -1.5469  0.6098 -0.6355
  141OSM   H10T15434   4.478   3.784   7.460 -1.1917 -0.6695 -1.0785
  141OSM   C11S15435   4.663   3.703   7.527 -0.5705  0.1392  0.6019
  141OSM   H11S15436   4.734   3.782   7.497  2.2147 -2.0512  1.0444
  141OSM   H11T15437   4.702   3.599   7.518 -2.7586 -0.6151 -1.3685
  141OSM   C12S15438   4.625   3.726   7.675 -0.3727  0.3116  0.8841
  141OSM   H12S15439   4.543   3.654   7.688  1.0878 -1.4576  0.6958
  141OSM   H12T15440   4.586   3.830   7.682 -0.5623  0.3841 -0.7720
  141OSM   C13S15441   4.737   3.695   7.779  0.1457  0.3712  1.1421
  141OSM   H13S15442   4.824   3.757   7.746 -1.4325  1.6310 -0.9146
  141OSM   H13T15443   4.750   3.585   7.774 -3.6187 -0.1430  0.4468
  141OSM   C14S15444   4.696   3.748   7.914 -0.3993 -0.1387 -0.6861
  141OSM   H14S15445   4.603   3.690   7.933  0.8892 -2.1490 -0.1402
  141OSM   H14T15446   4.675   3.857   7.914  2.4984  0.5074 -1.9292
  141OSM   C15S15447   4.799   3.714   8.021 -0.2551 -1.0548  0.2615
  141OSM   H15S15448   4.896   3.757   7.989 -0.5117 -0.0577  0.7968
  141OSM   H15T15449   4.820   3.605   8.025 -0.9287 -1.2828 -1.4791
  141OSM   C16S15450   4.753   3.765   8.155 -0.6662 -0.4786  0.0872
  141OSM   H16S15451   4.652   3.720   8.161 -0.4388 -1.0372 -0.1356
  141OSM   H16T15452   4.717   3.870   8.152  0.6872  0.0088  0.1347
  141OSM   C17S15453   4.851   3.739   8.273 -0.4219  0.1413  0.1195
  141OSM   H17S15454   4.929   3.818   8.270 -0.2076 -0.0716 -2.7804
  141OSM   H17T15455   4.910   3.645   8.272  1.2557  1.1146 -1.6626
  141OSM   C18S15456   4.796   3.762   8.416  0.2364  0.1910 -0.5994
  141OSM   H18S15457   4.715   3.691   8.441 -0.8265  0.6742 -2.5087
  141OSM   H18T15458   4.747   3.860   8.432  2.3758  0.7468  4.6414
  141OSM   H18U15459   4.884   3.759   8.485 -0.6472  3.1792  0.7994
  141OSM    C1F15460   4.658   4.301   6.889 -0.5027  0.0076  0.0266
  141OSM     OF15461   4.592   4.406   6.894 -0.5660  0.0836 -0.2916
  141OSM    C2F15462   4.798   4.304   6.946 -0.3473 -0.1734 -0.1281
  141OSM    H2F15463   4.877   4.340   6.878 -0.5012 -0.8130 -0.6511
  141OSM    H2G15464   4.834   4.204   6.976  0.2203 -0.8290 -2.7941
  141OSM    C3F15465   4.799   4.403   7.073 -0.0967  0.4304  0.0994
  141OSM    H3F15466   4.708   4.392   7.136 -0.7080 -1.1508 -0.9989
  141OSM    H3G15467   4.803   4.504   7.027  2.3593 -0.1152 -1.0752
  141OSM    C4F15468   4.924   4.389   7.155 -0.2129 -0.4690 -0.1196
  141OSM    H4F15469   5.012   4.393   7.087  1.2213 -2.5504  1.4840
  141OSM    H4G15470   4.924   4.291   7.208 -0.4193  0.0428  0.8568
  141OSM    C5F15471   4.936   4.507   7.250 -0.4313 -0.4409 -0.2092
  141OSM    H5F15472   4.847   4.501   7.316  0.5361 -2.7121  1.0133
  141OSM    H5G15473   4.922   4.598   7.189  0.9197  0.4790  0.8077
  141OSM    C6F15474   5.060   4.512   7.350 -0.2948  0.0455  0.1424
  141OSM    H6F15475   5.050   4.605   7.410 -2.3295 -0.0828  0.0580
  141OSM    H6G15476   5.157   4.520   7.297 -0.7631 -0.1587 -0.7607
  141OSM    C7F15477   5.083   4.394   7.448 -0.1489  0.4104 -0.1299
  141OSM    H7F15478   5.089   4.294   7.401 -2.3840 -1.8261  3.8384
  141OSM    H7G15479   5.003   4.383   7.523 -0.8888 -0.2620 -0.9920
  141OSM    C8F15480   5.212   4.398   7.532  0.0406  0.2806 -0.4448
  141OSM    H8F15481   5.295   4.385   7.459  0.7965  0.1161  0.4218
  141OSM    H8G15482   5.214   4.310   7.599  1.2957  1.4187  1.1044
  141OSM    C9F15483   5.256   4.524   7.606  0.1709  0.6841 -0.8773
  141OSM    H9F15484   5.245   4.612   7.541 -0.8064  0.8381 -0.5176
  141OSM   C10F15485   5.278   4.542   7.736 -0.3875 -0.6605  0.1920
  141OSM   H10F15486   5.308   4.642   7.772  0.4120  0.5466 -3.4267
  141OSM   C11F15487   5.277   4.435   7.839 -0.5476  0.1401 -0.6343
  141OSM   H11F15488   5.376   4.384   7.837 -0.2534  0.6266  0.6804
  141OSM   H11G15489   5.210   4.348   7.823 -0.0814 -0.8152  2.0225
  141OSM   C12F15490   5.266   4.501   7.974 -0.0908  0.0021  0.1894
  141OSM   H12F15491   5.185   4.577   7.969 -1.2455 -1.2799 -1.4783
  141OSM   H12G15492   5.358   4.558   8.001  0.8337 -1.2192 -0.2664
  141OSM   C13F15493   5.224   4.407   8.087 -0.5665 -0.0853  0.4798
  141OSM   H13F15494   5.147   4.343   8.039 -0.6222 -0.7081  1.3774
  141OSM   H13G15495   5.191   4.467   8.174 -0.3357 -0.2620  0.6888
  141OSM   C14F15496   5.334   4.312   8.130  0.0418 -0.1549  0.0644
  141OSM   H14F15497   5.361   4.247   8.044 -0.1462  1.7645 -1.5095
  141OSM   H14G15498   5.284   4.247   8.206  0.0189 -0.9464 -0.6186
  141OSM   C15F15499   5.446   4.377   8.215 -0.0125  0.6504 -0.5448
  141OSM   H15F15500   5.499   4.449   8.149 -0.5587  0.5691 -1.0818
  141OSM   H15G15501   5.513   4.294   8.247  0.8176  1.5637  0.1591
  141OSM   C16F15502   5.401   4.428   8.351  0.6087 -0.0666 -0.1518
  141OSM   H16F15503   5.361   4.337   8.402 -1.4591  0.9924  0.2105
  141OSM   H16G15504   5.321   4.504   8.338 -0.3589 -1.2625 -1.5059
  141OSM   C17F15505   5.497   4.496   8.444  0.3596 -0.1195 -0.3299
  141OSM   H17F15506   5.517   4.597   8.404 -2.5224 -0.1706 -2.1587
  141OSM   H17G15507   5.587   4.431   8.447 -0.5119 -1.3632 -0.4014
  141OSM   C18F15508   5.444   4.499   8.591  0.0054  0.4218 -0.0424
  141OSM   H18F15509   5.531   4.508   8.660 -1.2774 -0.6943  1.8193
  141OSM   H18G15510   5.380   4.414   8.624 -0.8945  1.4293  0.8889
  141OSM   H18H15511   5.381   4.590   8.594 -0.0266  0.4712 -1.4490
  142OSM      N15512   4.425   5.680   5.932  0.2842  0.0557  0.6033
  142OSM    C1515513   4.573   5.675   5.901 -0.1144 -0.6064 -0.2574
  142OSM   H15A15514   4.616   5.773   5.913 -2.9165  0.5935  0.7808
  142OSM   H15B15515   4.589   5.637   5.801  0.3578 -1.3812  0.1019
  142OSM   H15C15516   4.610   5.604   5.973 -1.0254 -0.4693  0.3656
  142OSM    C1415517   4.408   5.699   6.077  0.4418 -0.3024 -0.0701
  142OSM   H14A15518   4.436   5.797   6.110 -0.9153 -0.1016  0.5434
  142OSM   H14B15519   4.474   5.634   6.133  0.3828 -0.7446 -0.5028
  142OSM   H14C15520   4.307   5.671   6.101 -0.4549  2.3783 -0.4593
  142OSM    C1315521   4.351   5.779   5.853 -0.8150  0.5892  0.1906
  142OSM   H13A15522   4.248   5.766   5.880 -1.5565 -2.0561 -3.1723
  142OSM   H13B15523   4.365   5.762   5.747  1.2978 -0.5084  0.5735
  142OSM   H13C15524   4.386   5.878   5.878 -0.1088  0.4405 -0.1706
  142OSM    C1215525   4.364   5.543   5.900 -0.3674 -0.2764  0.1371
  142OSM   H12A15526   4.363   5.532   5.793 -1.3252 -2.5507  0.3208
  142OSM   H12B15527   4.259   5.551   5.925 -0.7048  1.3223 -1.5707
  142OSM    C1115528   4.434   5.415   5.947 -0.4251  0.0374  0.8075
  142OSM   H11A15529   4.538   5.408   5.908 -0.6358  2.4784 -0.3731
  142OSM   H11B15530   4.383   5.325   5.904  1.3004  0.2998 -2.0745
  142OSM      P15531   4.562   5.383   6.180 -0.0537 -0.4689  0.1200
  142OSM    O1315532   4.598   5.237   6.180  0.2850 -0.5003 -0.3956
  142OSM    O1415533   4.665   5.474   6.130 -0.7878 -0.4625 -0.0574
  142OSM    O1115534   4.505   5.440   6.324  0.3996  0.2428  0.9508
  142OSM    O1215535   4.439   5.407   6.088  0.8536  0.5739 -0.2655
  142OSM    C1S15536   4.532   5.385   6.448 -0.4455  0.2212 -0.5577
  142OSM    H1S15537   4.641   5.383   6.470 -0.6199  0.4599  0.3754
  142OSM    H1T15538   4.488   5.284   6.458  0.0363  0.1045  0.6220
  142OSM     NF15539   4.504   5.388   6.694 -0.2870 -0.3104 -0.0825
  142OSM    HNF15540   4.421   5.351   6.735  0.8458 -0.8960  1.7921
  142OSM    C2S15541   4.482   5.464   6.571 -0.1821 -0.0739 -0.4361
  142OSM    H2S15542   4.536   5.562   6.578 -0.6238  0.3018 -1.9220
  142OSM    C3S15543   4.333   5.502   6.544  0.6018  0.2690 -0.0406
  142OSM    H3S15544   4.274   5.410   6.523 -0.2239  0.7569  0.0991
  142OSM     O315545   4.306   5.587   6.435  0.5799 -0.6093  0.4865
  142OSM    HO315546   4.380   5.575   6.376 -0.3755 -1.7370 -0.5429
  142OSM    C4S15547   4.276   5.563   6.673  0.2819  0.0674 -0.5331
  142OSM    H4S15548   4.224   5.491   6.737  0.0523  1.7535  1.2540
  142OSM    C5S15549   4.294   5.688   6.716  0.2134  0.3342 -0.1340
  142OSM    H5S15550   4.351   5.764   6.660 -1.9150  0.5450 -2.1618
  142OSM    C6S15551   4.242   5.738   6.850  0.4918  0.4309  0.4367
  142OSM    H6S15552   4.137   5.768   6.832  0.3157 -0.5351 -0.2176
  142OSM    H6T15553   4.286   5.831   6.891  0.4858  0.0414  1.3570
  142OSM    C7S15554   4.265   5.627   6.959 -0.1095 -0.0491 -0.1288
  142OSM    H7S15555   4.371   5.602   6.938 -0.2328 -0.6033 -0.1027
  142OSM    H7T15556   4.205   5.536   6.940 -0.6818 -0.1442  1.8694
  142OSM    C8S15557   4.253   5.663   7.106 -0.1767  0.1534 -0.2040
  142OSM    H8S15558   4.243   5.574   7.172 -3.3479 -0.3780 -1.2198
  142OSM    H8T15559   4.156   5.717   7.117 -0.5510  0.2311 -3.0284
  142OSM    C9S15560   4.365   5.751   7.159  0.2359 -0.1328 -0.1335
  142OSM    H9S15561   4.376   5.836   7.088  0.3986  0.1978  0.2819
  142OSM    H9T15562   4.458   5.691   7.158  0.5027  0.2725 -1.0440
  142OSM   C10S15563   4.341   5.804   7.295  0.1845  0.0028 -0.3633
  142OSM   H10S15564   4.239   5.846   7.304 -1.1301 -2.8393 -0.8896
  142OSM   H10T15565   4.404   5.893   7.318  1.8457 -0.8759 -1.3781
  142OSM   C11S15566   4.356   5.699   7.416 -0.4514  1.0986  0.6361
  142OSM   H11S15567   4.462   5.668   7.409 -0.2341  1.4709  1.9958
  142OSM   H11T15568   4.275   5.623   7.412  0.6184 -0.0236 -0.3991
  142OSM   C12S15569   4.348   5.772   7.550  0.1475 -0.3385  0.8824
  142OSM   H12S15570   4.243   5.782   7.585  0.3129  2.5677  0.8083
  142OSM   H12T15571   4.390   5.873   7.537  1.0571 -0.5905  1.7197
  142OSM   C13S15572   4.440   5.701   7.654 -0.4475  0.7510 -0.2637
  142OSM   H13S15573   4.541   5.683   7.611 -0.5397 -0.1660 -0.1197
  142OSM   H13T15574   4.388   5.604   7.670 -1.4941  1.4627  0.7374
  142OSM   C14S15575   4.457   5.781   7.781  0.2133  1.0253  0.0986
  142OSM   H14S15576   4.355   5.808   7.816  0.4338  2.6099 -0.3884
  142OSM   H14T15577   4.507   5.878   7.765  0.7520  1.0354  1.6974
  142OSM   C15S15578   4.550   5.703   7.881  0.1129  0.5324 -0.3002
  142OSM   H15S15579   4.653   5.696   7.840  0.4358  0.5253  0.4909
  142OSM   H15T15580   4.510   5.601   7.901  2.0223  0.0923  1.7325
  142OSM   C16S15581   4.560   5.775   8.013 -0.0801 -0.1287  0.2400
  142OSM   H16S15582   4.459   5.768   8.061  0.0808 -2.7358  0.3389
  142OSM   H16T15583   4.588   5.881   7.992  2.0354 -1.1269 -2.5339
  142OSM   C17S15584   4.645   5.701   8.110  0.0046  0.5647 -0.1826
  142OSM   H17S15585   4.685   5.766   8.191 -1.5027  1.9616 -0.5243
  142OSM   H17T15586   4.722   5.648   8.049 -1.5761 -1.2871 -0.6586
  142OSM   C18S15587   4.568   5.588   8.193  0.9713  0.1810 -0.0112
  142OSM   H18S15588   4.635   5.532   8.261 -1.6056 -2.2088  0.7601
  142OSM   H18T15589   4.533   5.515   8.116 -2.8233  0.6502  1.0471
  142OSM   H18U15590   4.480   5.637   8.240 -0.0515  0.1977 -1.8374
  142OSM    C1F15591   4.623   5.353   6.743 -0.0429 -0.8223  0.3444
  142OSM     OF15592   4.728   5.386   6.680  0.5028  0.1014 -0.6387
  142OSM    C2F15593   4.628   5.290   6.869  0.3935  0.5543  0.1605
  142OSM    H2F15594   4.536   5.233   6.893  0.0006  0.5123 -1.3286
  142OSM    H2G15595   4.633   5.368   6.948  0.8782 -0.9609  1.6910
  142OSM    C3F15596   4.740   5.183   6.887 -0.4222 -0.2663 -0.5772
  142OSM    H3F15597   4.840   5.199   6.842 -0.1777 -1.0270 -0.3171
  142OSM    H3G15598   4.702   5.088   6.844  1.0061 -0.5581 -1.2380
  142OSM    C4F15599   4.761   5.161   7.041  0.3789 -0.0091  0.2249
  142OSM    H4F15600   4.796   5.058   7.063 -3.8565 -1.6345  0.2605
  142OSM    H4G15601   4.673   5.170   7.108  1.6902 -1.1293  2.1761
  142OSM    C5F15602   4.874   5.247   7.100 -0.3696  0.2427  0.1955
  142OSM    H5F15603   4.851   5.355   7.085 -0.6712 -0.0359 -1.5343
  142OSM    H5G15604   4.969   5.242   7.042 -0.6346  1.3767 -0.3644
  142OSM    C6F15605   4.903   5.226   7.251 -0.2055 -0.4239  0.3457
  142OSM    H6F15606   5.007   5.259   7.272 -0.9670  2.0208  0.6275
  142OSM    H6G15607   4.895   5.122   7.290  0.0622 -0.7080 -0.3466
  142OSM    C7F15608   4.812   5.309   7.344 -0.3402  0.2800  0.4287
  142OSM    H7F15609   4.712   5.262   7.326 -0.3602  0.7814 -0.9180
  142OSM    H7G15610   4.793   5.411   7.306 -0.1273 -1.0117 -3.6731
  142OSM    C8F15611   4.862   5.294   7.485 -0.1885 -0.2346 -0.0121
  142OSM    H8F15612   4.971   5.311   7.489 -0.1927  0.0350 -0.8597
  142OSM    H8G15613   4.850   5.189   7.522  0.5172  0.2935  1.8304
  142OSM    C9F15614   4.785   5.388   7.569  0.2084  0.2661 -0.0346
  142OSM    H9F15615   4.683   5.419   7.540 -0.6067 -0.9602  1.4206
  142OSM   C10F15616   4.828   5.434   7.692 -0.1861  0.1900  0.2704
  142OSM   H10F15617   4.764   5.512   7.736  1.2256  2.4276 -1.4076
  142OSM   C11F15618   4.958   5.407   7.764  0.1067 -0.0348  0.2716
  142OSM   H11F15619   5.005   5.507   7.770 -0.9497  0.5752 -1.0496
  142OSM   H11G15620   5.023   5.337   7.707 -0.5222  0.6904 -1.4025
  142OSM   C12F15621   4.924   5.329   7.885  0.6344 -0.0870 -0.2909
  142OSM   H12F15622   5.023   5.287   7.916  1.5304  2.0591 -0.0324
  142OSM   H12G15623   4.853   5.246   7.867  1.0700 -0.8913  1.5152
  142OSM   C13F15624   4.867   5.407   8.007  0.0600  0.1404 -0.5266
  142OSM   H13F15625   4.766   5.434   7.970  0.8858  3.9572 -0.4542
  142OSM   H13G15626   4.914   5.508   8.014 -0.3151  0.1812  2.8517
  142OSM   C14F15627   4.847   5.332   8.141 -0.5975 -0.1160 -0.3415
  142OSM   H14F15628   4.796   5.399   8.214  0.8254  2.2920 -1.4350
  142OSM   H14G15629   4.950   5.307   8.173 -0.7434 -3.2229 -2.0037
  142OSM   C15F15630   4.773   5.203   8.132  0.5359 -0.0721 -0.1503
  142OSM   H15F15631   4.832   5.135   8.068  2.5872 -0.0724  1.6160
  142OSM   H15G15632   4.676   5.236   8.088  1.0983  1.0961 -0.5654
  142OSM   C16F15633   4.731   5.145   8.270  0.3903 -0.1139  0.2053
  142OSM   H16F15634   4.679   5.229   8.320  0.9067  1.0509 -1.1445
  142OSM   H16G15635   4.824   5.128   8.328 -0.0578  0.7921  1.2313
  142OSM   C17F15636   4.649   5.022   8.270  0.0743  0.3791  0.5724
  142OSM   H17F15637   4.704   4.933   8.233  0.2601  0.1627  1.3571
  142OSM   H17G15638   4.561   5.028   8.202 -0.2485 -3.7489  0.3942
  142OSM   C18F15639   4.598   4.982   8.411  0.5537  0.1966  0.1466
  142OSM   H18F15640   4.684   4.957   8.477  0.8714  0.3376 -0.2078
  142OSM   H18G15641   4.523   4.900   8.410 -0.8345  1.3792  1.4961
  142OSM   H18H15642   4.555   5.075   8.454 -0.4490  1.0040 -2.4004
  143OSM      N15643   3.578   1.174   6.136 -1.1398  0.4072  0.1449
  143OSM    C1515644   3.596   1.302   6.070 -0.1372 -0.4957  0.5359
  143OSM   H15A15645   3.547   1.312   5.974  3.0434 -0.8337 -1.2529
  143OSM   H15B15646   3.700   1.326   6.051 -0.3220  0.0712  0.2185
  143OSM   H15C15647   3.579   1.386   6.135  3.1247 -0.3933  1.4132
  143OSM    C1415648   3.647   1.171   6.272  0.1437  0.2699  0.1455
  143OSM   H14A15649   3.616   1.255   6.332  0.7663  1.1059 -0.6746
  143OSM   H14B15650   3.754   1.183   6.263  0.2382  0.2079  1.1163
  143OSM   H14C15651   3.606   1.084   6.322 -1.9658  0.9068 -0.3639
  143OSM    C1315652   3.431   1.159   6.156  0.5632  0.5229 -0.3507
  143OSM   H13A15653   3.384   1.184   6.061  0.4941  1.2923 -0.1203
  143OSM   H13B15654   3.393   1.234   6.223 -2.0580 -0.8605 -0.1464
  143OSM   H13C15655   3.399   1.066   6.200  2.2127 -0.0153 -0.1996
  143OSM    C1215656   3.630   1.061   6.046 -0.0718  0.0744 -0.4205
  143OSM   H12A15657   3.736   1.063   6.065 -0.1930 -1.0580  0.4850
  143OSM   H12B15658   3.622   1.082   5.940 -0.2542  1.5352 -0.1465
  143OSM    C1115659   3.594   0.913   6.077 -0.5615 -0.6368 -0.8787
  143OSM   H11A15660   3.663   0.848   6.019  1.8430  0.6293  0.4177
  143OSM   H11B15661   3.495   0.884   6.034 -0.9662 -2.2581  0.9781
  143OSM      P15662   3.504   0.793   6.301  0.6860  0.3468 -0.2646
  143OSM    O1315663   3.377   0.863   6.310  0.5894  0.5039 -0.4303
  143OSM    O1415664   3.504   0.660   6.247 -0.9654 -0.3014 -0.6316
  143OSM    O1115665   3.566   0.790   6.453  0.1339 -0.1868  0.9609
  143OSM    O1215666   3.601   0.890   6.216 -0.4948 -0.6899 -0.4561
  143OSM    C1S15667   3.552   0.910   6.529  0.5917 -0.2675  0.0745
  143OSM    H1S15668   3.443   0.924   6.549  0.4685 -0.9376 -0.0965
  143OSM    H1T15669   3.592   1.006   6.489  1.0019 -0.3010  0.3962
  143OSM     NF15670   3.594   0.997   6.749  0.5348 -0.7455  0.3496
  143OSM    HNF15671   3.646   1.081   6.747 -2.0964  0.9812 -0.9326
  143OSM    C2S15672   3.623   0.886   6.661  0.1033 -0.3479 -0.4201
  143OSM    H2S15673   3.595   0.786   6.702  1.2771 -0.6012 -0.2106
  143OSM    C3S15674   3.778   0.867   6.632 -0.5638 -0.2212  0.2365
  143OSM    H3S15675   3.815   0.960   6.582 -1.8039 -0.1044 -0.4940
  143OSM     O315676   3.804   0.769   6.534 -0.0408  0.0618  0.2772
  143OSM    HO315677   3.721   0.754   6.489 -0.2866  0.5100  0.5664
  143OSM    C4S15678   3.854   0.823   6.751  0.7839  0.3357  0.1549
  143OSM    H4S15679   3.813   0.738   6.808  1.4271 -1.0096 -1.3290
  143OSM    C5S15680   3.946   0.900   6.808  0.2415  0.4438 -0.4966
  143OSM    H5S15681   3.966   1.000   6.768  1.0316  0.1003 -0.9744
  143OSM    C6S15682   4.018   0.862   6.941  0.5872  0.0806  0.3194
  143OSM    H6S15683   3.933   0.813   6.993  0.9760 -1.7144 -0.6542
  143OSM    H6T15684   4.053   0.954   6.993  1.8775 -1.1537  1.7404
  143OSM    C7S15685   4.124   0.756   6.916 -0.2373 -0.0446  0.3219
  143OSM    H7S15686   4.187   0.788   6.830 -0.0156  0.1623  0.5591
  143OSM    H7T15687   4.080   0.659   6.883 -0.3499 -0.0041  0.3566
  143OSM    C8S15688   4.209   0.718   7.040  0.5057 -0.2053  0.0738
  143OSM    H8S15689   4.271   0.805   7.072  1.7509 -1.1068  0.1642
  143OSM    H8T15690   4.271   0.633   7.007  2.5963  1.9876 -2.0707
  143OSM    C9S15691   4.104   0.674   7.150  0.5388 -1.2802 -0.0107
  143OSM    H9S15692   4.034   0.603   7.100 -2.0192  1.4809 -0.6356
  143OSM    H9T15693   4.046   0.762   7.184  0.2498 -1.3644 -0.2866
  143OSM   C10S15694   4.182   0.622   7.274  0.0494  0.0795 -0.6425
  143OSM   H10S15695   4.277   0.681   7.275 -0.6022  1.1799  0.6897
  143OSM   H10T15696   4.192   0.515   7.246  1.9926  0.4808 -1.6553
  143OSM   C11S15697   4.123   0.644   7.414 -0.0839  0.1163  0.5999
  143OSM   H11S15698   4.016   0.616   7.415  0.3032 -1.4836  2.2057
  143OSM   H11T15699   4.121   0.749   7.450 -0.4603  1.0602 -1.9659
  143OSM   C12S15700   4.185   0.571   7.537 -0.2207  0.4775 -0.2467
  143OSM   H12S15701   4.284   0.612   7.563 -0.2861 -0.3464  1.4704
  143OSM   H12T15702   4.189   0.462   7.513  1.5222  0.7091 -1.1445
  143OSM   C13S15703   4.099   0.607   7.662 -0.5642  0.5300  0.1048
  143OSM   H13S15704   4.000   0.559   7.650 -1.5692  2.2208  1.1650
  143OSM   H13T15705   4.071   0.714   7.652  0.6674  0.8041 -0.6937
  143OSM   C14S15706   4.164   0.586   7.799 -0.1129 -0.3856  0.0964
  143OSM   H14S15707   4.253   0.650   7.816 -0.7762 -0.0961  3.0660
  143OSM   H14T15708   4.203   0.482   7.807  1.6042 -0.0336 -2.4752
  143OSM   C15S15709   4.079   0.627   7.920  0.2571  0.4134  0.0550
  143OSM   H15S15710   3.989   0.561   7.921 -0.1825  1.0189  1.5564
  143OSM   H15T15711   4.041   0.729   7.896  0.5142  0.4395 -0.2440
  143OSM   C16S15712   4.149   0.613   8.054  0.2004  0.0606 -0.3555
  143OSM   H16S15713   4.221   0.697   8.063  1.3262 -1.0699  2.0703
  143OSM   H16T15714   4.197   0.513   8.060 -1.3270 -0.6964 -0.2686
  143OSM   C17S15715   4.057   0.635   8.180 -0.3028 -0.3308  0.4797
  143OSM   H17S15716   3.984   0.551   8.179 -0.8396  0.1310 -0.4993
  143OSM   H17T15717   4.012   0.736   8.170 -1.0787 -0.9093 -2.7596
  143OSM   C18S15718   4.143   0.639   8.315  0.1360  0.7205 -0.8128
  143OSM   H18S15719   4.206   0.547   8.321 -0.4415  0.3790  0.2485
  143OSM   H18T15720   4.087   0.633   8.411 -1.1068 -2.8804 -1.5982
  143OSM   H18U15721   4.209   0.727   8.306  0.6535  0.3775 -0.3963
  143OSM    C1F15722   3.482   1.010   6.819 -0.3699 -0.1260 -0.5237
  143OSM     OF15723   3.395   0.926   6.814  0.4354 -0.3279 -0.7875
  143OSM    C2F15724   3.472   1.128   6.911 -0.4693 -0.2803  0.6815
  143OSM    H2F15725   3.380   1.181   6.878  1.3073  1.6350 -1.5407
  143OSM    H2G15726   3.560   1.191   6.884 -0.5387  0.8232  2.7349
  143OSM    C3F15727   3.465   1.095   7.062  0.4053 -0.2607  0.6286
  143OSM    H3F15728   3.392   1.012   7.070  0.2798 -0.1547  0.5924
  143OSM    H3G15729   3.428   1.186   7.115 -2.0086 -1.9347  1.9886
  143OSM    C4F15730   3.600   1.057   7.114  0.1318 -0.0306 -0.2819
  143OSM    H4F15731   3.662   1.140   7.076 -0.4380 -0.3628 -2.0811
  143OSM    H4G15732   3.627   0.963   7.061  0.2356  0.2282 -0.6946
  143OSM    C5F15733   3.623   1.015   7.256  0.5175  0.2439  0.6501
  143OSM    H5F15734   3.597   0.907   7.262 -0.4036  0.4821  1.2235
  143OSM    H5G15735   3.569   1.071   7.335  0.7563  0.3668  0.7266
  143OSM    C6F15736   3.765   1.037   7.300  0.5015  0.3000  0.1907
  143OSM    H6F15737   3.759   1.129   7.362  0.0070  0.4038 -0.0098
  143OSM    H6G15738   3.833   1.057   7.215 -1.2173 -0.0408 -1.3385
  143OSM    C7F15739   3.825   0.921   7.380  0.1336 -0.4116 -0.0812
  143OSM    H7F15740   3.926   0.903   7.339  0.9815 -2.8104  2.7237
  143OSM    H7G15741   3.772   0.825   7.365 -1.7254 -0.0316  3.1075
  143OSM    C8F15742   3.824   0.953   7.535  0.1410  0.1622 -0.4568
  143OSM    H8F15743   3.831   1.063   7.548 -1.4932  0.0771  1.6172
  143OSM    H8G15744   3.911   0.905   7.585  0.6141  1.2775 -0.1857
  143OSM    C9F15745   3.694   0.897   7.594  0.0904 -0.6725  0.1470
  143OSM    H9F15746   3.602   0.903   7.533  1.0172  0.0821 -1.2250
  143OSM   C10F15747   3.682   0.840   7.709 -0.7990  0.3810 -0.5066
  143OSM   H10F15748   3.586   0.793   7.736 -0.0170 -0.7955  0.2562
  143OSM   C11F15749   3.791   0.818   7.805  0.2052  0.7254  0.0343
  143OSM   H11F15750   3.855   0.907   7.819  1.0528  0.2296 -0.5976
  143OSM   H11G15751   3.848   0.732   7.764 -0.7466 -0.1549  0.4894
  143OSM   C12F15752   3.735   0.782   7.942  0.9549  0.1601  0.5633
  143OSM   H12F15753   3.814   0.730   8.000 -0.5602 -0.3150  2.3050
  143OSM   H12G15754   3.647   0.717   7.926 -0.0697  1.8110 -0.9150
  143OSM   C13F15755   3.700   0.912   8.011 -0.6653  0.9935  0.5253
  143OSM   H13F15756   3.590   0.927   8.001 -0.5667  1.7977  0.5615
  143OSM   H13G15757   3.756   0.998   7.968  1.8034 -0.6488  0.2694
  143OSM   C14F15758   3.727   0.915   8.158  0.0157  0.7896 -0.5634
  143OSM   H14F15759   3.832   0.896   8.190 -0.7006  0.1824  1.5512
  143OSM   H14G15760   3.680   0.827   8.207 -0.7517  1.7631  0.4991
  143OSM   C15F15761   3.680   1.041   8.229 -0.2030 -0.6377  0.3984
  143OSM   H15F15762   3.753   1.121   8.206 -0.3563 -1.4215 -3.2931
  143OSM   H15G15763   3.672   1.028   8.339 -1.1790 -1.0502  0.2867
  143OSM   C16F15764   3.540   1.085   8.196 -0.1277 -0.1177  0.0607
  143OSM   H16F15765   3.484   0.990   8.209 -1.1301  0.6020  1.3709
  143OSM   H16G15766   3.528   1.106   8.088  0.0981  0.5886  0.1624
  143OSM   C17F15767   3.471   1.178   8.296  0.2100 -0.2294  0.6597
  143OSM   H17F15768   3.520   1.277   8.284 -1.0934  0.2509 -1.1344
  143OSM   H17G15769   3.473   1.150   8.403 -0.4318 -0.4510  0.6195
  143OSM   C18F15770   3.327   1.215   8.259  0.2484 -0.1870  0.1405
  143OSM   H18F15771   3.258   1.128   8.253  1.6689 -1.3539  0.3013
  143OSM   H18G15772   3.315   1.275   8.166 -1.4870  0.4424  0.7344
  143OSM   H18H15773   3.282   1.284   8.334 -0.9673  0.1846 -0.8911
  144OSM      N15774   3.350   0.211   6.219  0.4105  0.0632 -0.4546
  144OSM    C1515775   3.316   0.280   6.353  0.1265 -0.1458 -0.4821
  144OSM   H15A15776   3.402   0.298   6.415 -0.9260  0.5970  0.8152
  144OSM   H15B15777   3.262   0.212   6.417  1.2146 -0.9036 -0.3361
  144OSM   H15C15778   3.264   0.373   6.335 -0.3523 -0.4463 -0.6753
  144OSM    C1415779   3.240   0.226   6.118  0.7544  0.1683 -0.2020
  144OSM   H14A15780   3.148   0.189   6.160 -0.0175  0.2719 -1.7240
  144OSM   H14B15781   3.262   0.179   6.023  2.5306 -1.8596  1.1306
  144OSM   H14C15782   3.210   0.325   6.088 -0.3142 -0.1971 -0.3656
  144OSM    C1315783   3.459   0.298   6.172 -0.1878 -0.3285  0.1381
  144OSM   H13A15784   3.451   0.404   6.193  1.5683 -0.1235 -0.1407
  144OSM   H13B15785   3.477   0.291   6.066 -0.8636 -0.3099  0.0145
  144OSM   H13C15786   3.549   0.266   6.222 -1.0509 -2.1449  0.6244
  144OSM    C1215787   3.393   0.061   6.237 -0.3844 -0.1852  0.4393
  144OSM   H12A15788   3.427   0.012   6.147  0.4043  1.3461 -0.1314
  144OSM   H12B15789   3.302   0.005   6.255 -0.8696 -0.4761 -2.3653
  144OSM    C1115790   3.499   0.029   6.344 -0.2777 -0.6161 -0.1616
  144OSM   H11A15791   3.500  -0.082   6.350 -0.8857 -0.5549  1.4163
  144OSM   H11B15792   3.471   0.059   6.447 -0.4651 -0.1003 -0.3607
  144OSM      P15793   3.716   0.019   6.196  0.1252 -0.1267 -0.2281
  144OSM    O1315794   3.633  -0.061   6.098  0.2442 -0.3081 -0.0715
  144OSM    O1415795   3.816   0.118   6.145  0.1765 -0.0208  0.1234
  144OSM    O1115796   3.796  -0.088   6.279 -0.2661 -0.0092  0.2061
  144OSM    O1215797   3.628   0.087   6.304  0.1993 -0.5758  0.1604
  144OSM    C1S15798   3.899  -0.047   6.373 -0.8025  1.4002 -0.3792
  144OSM    H1S15799   3.960   0.038   6.336 -0.5819  1.2986 -0.2515
  144OSM    H1T15800   3.977  -0.125   6.385 -0.7964  1.3059 -1.0398
  144OSM     NF15801   3.947   0.053   6.607  0.3041 -0.4263 -0.1546
  144OSM    HNF15802   3.988  -0.008   6.675  2.4744  2.8126  1.7252
  144OSM    C2S15803   3.847  -0.006   6.521  0.0170 -0.4599 -0.3768
  144OSM    H2S15804   3.772   0.075   6.511  0.8371  0.2838 -0.6189
  144OSM    C3S15805   3.779  -0.122   6.591 -0.1954 -0.4040  0.5583
  144OSM    H3S15806   3.855  -0.199   6.618 -1.3538 -1.8687 -0.1669
  144OSM     O315807   3.686  -0.186   6.501  0.1567 -0.8107 -0.0262
  144OSM    HO315808   3.708  -0.154   6.413  1.5168 -1.1335  0.1743
  144OSM    C4S15809   3.717  -0.084   6.719  0.7779 -0.2775  0.1169
  144OSM    H4S15810   3.763  -0.122   6.812 -0.5115 -1.7518  0.1788
  144OSM    C5S15811   3.605  -0.010   6.726  0.3410 -0.0615  0.0789
  144OSM    H5S15812   3.552   0.004   6.631 -0.5636  0.8503  0.6929
  144OSM    C6S15813   3.524   0.039   6.841  0.1067  0.4252  0.2086
  144OSM    H6S15814   3.416   0.014   6.845 -0.1377  1.4321  0.1799
  144OSM    H6T15815   3.527   0.150   6.840  0.1329  0.4510  1.6031
  144OSM    C7S15816   3.577  -0.010   6.974  0.3567  0.0662 -0.5344
  144OSM    H7S15817   3.688   0.002   6.971  0.2134  1.5279 -2.5828
  144OSM    H7T15818   3.566  -0.120   6.976  0.8350 -0.0302  2.8611
  144OSM    C8S15819   3.509   0.057   7.094  0.0334  0.2186 -0.2315
  144OSM    H8S15820   3.401   0.033   7.089 -0.0285  0.6281 -1.2297
  144OSM    H8T15821   3.527   0.166   7.079  3.6587 -0.3978 -1.2285
  144OSM    C9S15822   3.565   0.002   7.223  0.7729 -0.2522 -0.4498
  144OSM    H9S15823   3.672   0.029   7.236  0.4568  0.6521  0.4255
  144OSM    H9T15824   3.556  -0.109   7.225 -1.3514 -0.1283  1.7021
  144OSM   C10S15825   3.496   0.049   7.350  0.1354 -0.0610  0.6057
  144OSM   H10S15826   3.395   0.004   7.358  0.3613 -0.8755 -0.8275
  144OSM   H10T15827   3.484   0.159   7.357 -0.0207 -0.1466  2.1877
  144OSM   C11S15828   3.561   0.002   7.484 -0.1662 -0.5570  0.0186
  144OSM   H11S15829   3.668   0.033   7.486 -0.6970  1.5663 -1.4246
  144OSM   H11T15830   3.552  -0.108   7.483 -5.0030 -0.3943 -1.1638
  144OSM   C12S15831   3.488   0.052   7.612  0.6559  0.6484  0.1484
  144OSM   H12S15832   3.380   0.028   7.603  1.2248 -1.9334 -0.9834
  144OSM   H12T15833   3.521   0.155   7.638  1.5757  0.6327 -0.8698
  144OSM   C13S15834   3.537  -0.031   7.730  0.2227  0.4534 -0.4774
  144OSM   H13S15835   3.647  -0.014   7.729  0.3973 -0.5534 -1.9577
  144OSM   H13T15836   3.517  -0.140   7.728  3.6167 -0.3003  0.1377
  144OSM   C14S15837   3.499   0.033   7.865 -0.3165 -0.0851 -0.0633
  144OSM   H14S15838   3.389   0.028   7.882 -0.2044 -1.8253  0.4328
  144OSM   H14T15839   3.529   0.139   7.857 -0.1862 -0.1919 -1.1653
  144OSM   C15S15840   3.562  -0.043   7.987 -0.4773 -0.3453  0.3937
  144OSM   H15S15841   3.672  -0.038   7.975 -0.3236 -1.9693  0.8286
  144OSM   H15T15842   3.549  -0.153   7.975  1.8378 -0.6916  0.5891
  144OSM   C16S15843   3.516   0.012   8.124 -0.0605 -0.2410  0.2534
  144OSM   H16S15844   3.499   0.121   8.126  0.1295 -0.2241  1.7648
  144OSM   H16T15845   3.600  -0.011   8.193 -1.1666  0.0106  1.7183
  144OSM   C17S15846   3.382  -0.055   8.167 -0.3101  0.2592  0.2037
  144OSM   H17S15847   3.413  -0.161   8.162 -1.7397 -0.1463 -3.3677
  144OSM   H17T15848   3.300  -0.036   8.095  1.1250  3.9290 -0.6849
  144OSM   C18S15849   3.348  -0.033   8.314  0.0687 -0.1481  0.2091
  144OSM   H18S15850   3.268  -0.105   8.345 -0.0360  0.1998  0.7705
  144OSM   H18T15851   3.284   0.058   8.317 -0.7282 -0.6760 -0.2122
  144OSM   H18U15852   3.431  -0.032   8.388 -0.4660 -1.8827  0.8938
  144OSM    C1F15853   4.006   0.169   6.591  0.1191  0.0637 -0.0773
  144OSM     OF15854   3.990   0.237   6.490  0.2488  0.1941 -0.1905
  144OSM    C2F15855   4.097   0.222   6.696  0.0357 -0.2638 -0.4555
  144OSM    H2F15856   4.190   0.242   6.639 -0.0640  2.9580  0.3134
  144OSM    H2G15857   4.104   0.161   6.789  0.9915  1.5799  0.7440
  144OSM    C3F15858   4.033   0.355   6.746  0.8256 -0.3141 -0.3745
  144OSM    H3F15859   4.019   0.426   6.662  3.4097  0.4879 -0.2294
  144OSM    H3G15860   4.105   0.416   6.805  2.3944 -0.6566 -1.8575
  144OSM    C4F15861   3.900   0.333   6.824  0.3301  0.2954 -0.1765
  144OSM    H4F15862   3.937   0.278   6.913  2.5477  0.3153 -1.0257
  144OSM    H4G15863   3.830   0.266   6.770 -0.3262 -0.5609  1.6535
  144OSM    C5F15864   3.819   0.459   6.871 -0.4475 -0.1349  0.4323
  144OSM    H5F15865   3.789   0.511   6.778 -0.5177  0.6058  0.8664
  144OSM    H5G15866   3.885   0.533   6.922 -0.0916 -1.6677  2.3438
  144OSM    C6F15867   3.712   0.423   6.975 -0.2703  0.1661  0.3143
  144OSM    H6F15868   3.766   0.395   7.068 -0.5167 -1.0284  0.1120
  144OSM    H6G15869   3.652   0.334   6.947  0.4116 -0.4275  0.6918
  144OSM    C7F15870   3.615   0.540   6.992 -0.2184  0.1763  0.3234
  144OSM    H7F15871   3.565   0.564   6.895 -1.9303 -0.3824  1.0390
  144OSM    H7G15872   3.668   0.634   7.017  0.7004  0.4769 -2.4175
  144OSM    C8F15873   3.503   0.495   7.082  0.0617 -0.0097 -0.7528
  144OSM    H8F15874   3.541   0.464   7.182  0.9818 -1.4365 -1.5061
  144OSM    H8G15875   3.456   0.402   7.043 -0.3394 -0.1760  0.1144
  144OSM    C9F15876   3.399   0.601   7.101 -0.2449 -0.3452  0.3203
  144OSM    H9F15877   3.343   0.636   7.014 -0.4711  1.2117  1.0454
  144OSM   C10F15878   3.365   0.653   7.220 -0.3867  0.2435 -0.0030
  144OSM   H10F15879   3.284   0.728   7.226 -1.1555 -0.6656  1.4655
  144OSM   C11F15880   3.421   0.618   7.361 -0.0275 -0.5227 -0.0957
  144OSM   H11F15881   3.371   0.685   7.434  2.1447  1.0435  0.0594
  144OSM   H11G15882   3.525   0.657   7.359 -0.8526  1.8401 -2.0660
  144OSM   C12F15883   3.425   0.477   7.419  0.1819 -0.2993  0.0769
  144OSM   H12F15884   3.467   0.402   7.350 -2.3697 -0.5433 -1.3306
  144OSM   H12G15885   3.318   0.449   7.433 -0.3729  1.6575  0.0836
  144OSM   C13F15886   3.490   0.469   7.561  0.5212 -0.0421  0.2388
  144OSM   H13F15887   3.569   0.546   7.573 -1.0293  1.8039 -0.8704
  144OSM   H13G15888   3.533   0.367   7.567  0.6961 -0.1912 -2.4915
  144OSM   C14F15889   3.382   0.492   7.672  0.0486 -0.3392  0.0566
  144OSM   H14F15890   3.293   0.427   7.660 -0.5385  0.1105  1.7731
  144OSM   H14G15891   3.345   0.596   7.662 -1.6538 -0.5778  2.9491
  144OSM   C15F15892   3.429   0.456   7.811  0.2770 -0.6231 -0.4578
  144OSM   H15F15893   3.538   0.478   7.805  0.3142  0.4939  2.5671
  144OSM   H15G15894   3.413   0.348   7.834  0.6800  0.0511  3.6689
  144OSM   C16F15895   3.364   0.547   7.925  0.5345  0.5527  0.0632
  144OSM   H16F15896   3.255   0.526   7.926  0.3184  1.5970  0.8227
  144OSM   H16G15897   3.379   0.653   7.893 -2.5010  0.5595 -1.6495
  144OSM   C17F15898   3.424   0.514   8.065  0.4900 -0.8867  0.6461
  144OSM   H17F15899   3.531   0.541   8.066  0.2023  0.3026  1.2082
  144OSM   H17G15900   3.406   0.405   8.082  0.3934 -1.3237 -1.8868
  144OSM   C18F15901   3.357   0.598   8.176 -0.2712  0.0213  0.1319
  144OSM   H18F15902   3.366   0.706   8.153 -1.5984 -0.1302 -1.2064
  144OSM   H18G15903   3.410   0.584   8.273 -0.4844  0.3579  0.2965
  144OSM   H18H15904   3.249   0.576   8.182 -0.3841  0.0228 -1.4828
  145SAPE     N15905   1.956   6.355  10.637 -0.1439  0.1260 -0.7773
  145SAPE   HN115906   2.043   6.377  10.689 -0.6211  0.5961 -0.1487
  145SAPE   HN215907   1.954   6.417  10.553  3.1019  0.8566 -0.4460
  145SAPE   HN315908   1.872   6.379  10.695 -0.0015  0.0336 -0.5314
  145SAPE   C1215909   1.949   6.210  10.601 -0.4430 -0.3827 -0.1176
  145SAPE  H12A15910   1.988   6.192  10.499  1.2050  0.8528  0.2541
  145SAPE  H12B15911   1.842   6.181  10.605 -0.0413 -1.8292  1.3133
  145SAPE   C1115912   2.031   6.125  10.698 -0.0188 -0.4666 -0.3664
  145SAPE  H11A15913   2.005   6.150  10.803  1.1069 -0.3130 -0.1132
  145SAPE  H11B15914   2.141   6.130  10.692  0.0016  1.2481  0.8384
  145SAPE     P15915   2.009   5.903  10.562  0.6372  0.8109 -0.4937
  145SAPE   O1315916   2.140   5.942  10.498  0.1270  0.4349 -0.0032
  145SAPE   O1415917   1.988   5.763  10.601  0.2769  0.3526  0.1511
  145SAPE   O1215918   1.984   5.992  10.698 -0.0866  0.3795 -0.4451
  145SAPE   O1115919   1.886   5.954  10.469 -0.6242 -0.6538 -0.7932
  145SAPE    C115920   1.760   5.903  10.464  0.3285 -0.9204  0.4531
  145SAPE    HA15921   1.769   5.792  10.459  1.2343 -0.8026 -1.5389
  145SAPE    HB15922   1.696   5.928  10.551 -1.6119 -1.9013 -0.6320
  145SAPE    C215923   1.698   5.946  10.325  0.2936 -0.7817 -0.1512
  145SAPE    HS15924   1.593   5.910  10.318  0.0838 -0.2391  0.1063
  145SAPE   O2115925   1.773   5.882  10.221  0.2434 -0.1873 -0.4961
  145SAPE   C2115926   1.758   5.756  10.207 -0.6425  0.7616 -0.3403
  145SAPE   O2215927   1.666   5.684  10.242  0.1454 -1.1451 -0.4720
  145SAPE   C2215928   1.885   5.698  10.142  0.0073 -0.2112  0.2464
  145SAPE   H2R15929   1.927   5.781  10.081 -0.4877 -2.0164 -2.7806
  145SAPE   H2S15930   1.960   5.659  10.214  0.0854 -2.9463 -1.1900
  145SAPE    C315931   1.692   6.101  10.314 -0.4541 -0.1214 -0.4107
  145SAPE    HX15932   1.796   6.129  10.338 -0.4529 -2.4814  3.0785
  145SAPE    HY15933   1.618   6.139  10.387 -1.6553 -1.9120 -0.6372
  145SAPE   O3115934   1.645   6.147  10.177 -0.1276  0.0091 -0.3533
  145SAPE   C3115935   1.701   6.258  10.136 -0.3293  0.0262 -0.3422
  145SAPE   O3215936   1.785   6.318  10.200  0.2354  0.1206  0.1327
  145SAPE   C3215937   1.642   6.296  10.002 -0.9035 -0.0902 -0.1808
  145SAPE   H2X15938   1.554   6.360  10.025  0.7015  2.0210  0.4211
  145SAPE   H2Y15939   1.605   6.202   9.957  1.3427 -0.4773 -1.3228
  145SAPE   C2315940   1.858   5.580  10.050 -0.5112 -0.5683 -0.4543
  145SAPE   H3R15941   1.791   5.612   9.967  0.1726 -1.8504 -1.5260
  145SAPE   H3S15942   1.812   5.494  10.104  3.4727 -1.0661  2.5817
  145SAPE   C2415943   1.984   5.526   9.980  0.2307 -0.1848 -0.1385
  145SAPE   H4R15944   1.955   5.443   9.913  1.8942 -2.0824  1.3301
  145SAPE   H4S15945   2.041   5.468  10.056 -0.0729  1.2321  1.2246
  145SAPE   C2515946   2.089   5.621   9.925  0.6322  0.6894 -0.8831
  145SAPE   H5R15947   2.154   5.684   9.988  2.5030  0.6153 -2.6489
  145SAPE   C2615948   2.099   5.657   9.798  0.7849  0.1185  0.3121
  145SAPE   H6R15949   2.182   5.713   9.754 -1.3198  1.3562 -2.3416
  145SAPE   C2715950   2.019   5.597   9.684 -0.1786 -1.0095 -0.7594
  145SAPE   H7R15951   1.961   5.677   9.632  0.7845  0.0462 -0.2684
  145SAPE   H7S15952   1.931   5.536   9.710 -1.7893  1.5979  0.3632
  145SAPE   C2815953   2.112   5.529   9.587 -0.2997  0.8057  0.0979
  145SAPE   H8R15954   2.194   5.475   9.637  0.6055  1.2956 -0.8150
  145SAPE   C2915955   2.108   5.536   9.453  0.8906  0.5381  0.4495
  145SAPE   H9R15956   2.165   5.463   9.393 -2.3666  0.8169 -3.5015
  145SAPE  C21015957   1.992   5.606   9.376  0.1993  0.4541 -0.1228
  145SAPE  H10R15958   2.035   5.643   9.280  0.9575  0.1984  0.1113
  145SAPE  H10S15959   1.947   5.691   9.432  1.1687  1.3749 -0.7024
  145SAPE  C21115960   1.881   5.511   9.343  0.0928 -0.0106  0.0982
  145SAPE  H11R15961   1.893   5.412   9.388  0.9066  0.9129  2.0493
  145SAPE  C21215962   1.774   5.542   9.264 -0.4010 -1.0379  0.2186
  145SAPE  H12R15963   1.714   5.454   9.238 -1.0309 -0.5719  0.0676
  145SAPE  C21315964   1.760   5.668   9.184 -0.3183  0.3317 -0.0923
  145SAPE  H13R15965   1.827   5.679   9.096 -0.0734  1.3324  0.2047
  145SAPE  H13S15966   1.800   5.753   9.244 -1.7140  0.0327  1.3324
  145SAPE  C21415967   1.622   5.709   9.149 -0.2422 -0.5838  0.2768
  145SAPE  H14R15968   1.546   5.666   9.216  0.1379 -3.4845 -0.9905
  145SAPE  C21515969   1.582   5.793   9.055  0.2791 -0.7554 -0.7746
  145SAPE  H15R15970   1.476   5.806   9.030  0.4043  2.3223 -0.1650
  145SAPE  C21615971   1.678   5.865   8.962 -0.3616 -0.2748  0.3780
  145SAPE  H16R15972   1.733   5.798   8.892 -3.5111 -0.4681 -2.1364
  145SAPE  H16S15973   1.757   5.913   9.023  1.3971 -3.5831  0.9272
  145SAPE  C21715974   1.603   5.968   8.872 -0.3270  0.6437  0.2117
  145SAPE  H17R15975   1.527   6.025   8.930  0.2138  0.8457  0.7301
  145SAPE  H17S15976   1.548   5.916   8.790  0.4560 -2.6372  1.5838
  145SAPE  C21815977   1.685   6.076   8.801 -0.4218  0.0165 -0.8359
  145SAPE  H18R15978   1.755   6.031   8.728 -0.6355 -0.1807 -0.9221
  145SAPE  H18S15979   1.744   6.131   8.877  1.9085 -3.1982 -0.1110
  145SAPE  C21915980   1.594   6.179   8.737 -0.2012  0.0511  0.4461
  145SAPE  H19R15981   1.546   6.240   8.817 -0.9414 -0.7839  0.6480
  145SAPE  H19S15982   1.514   6.126   8.681  0.7713  0.8776 -1.8597
  145SAPE  C22015983   1.678   6.264   8.634 -0.0182  0.0123  0.2509
  145SAPE  H20R15984   1.780   6.286   8.674 -0.1615  0.2150  0.5072
  145SAPE  H20S15985   1.625   6.360   8.618  1.0571  1.1443  2.9989
  145SAPE  H20T15986   1.681   6.198   8.544 -1.1786 -0.4398  0.5316
  145SAPE   C3315987   1.737   6.372   9.909  0.0943  0.0362 -0.2784
  145SAPE   H3X15988   1.816   6.298   9.883  2.0201  1.1657  1.9597
  145SAPE   H3Y15989   1.788   6.456   9.960 -0.9636 -0.0206  0.9077
  145SAPE   C3415990   1.668   6.410   9.780  0.2899 -0.6274 -0.0784
  145SAPE   H4X15991   1.572   6.462   9.803 -0.4964 -2.1741  0.2795
  145SAPE   H4Y15992   1.642   6.319   9.723  1.3302 -0.9710 -0.0332
  145SAPE   C3515993   1.761   6.496   9.692  0.1386  0.1841  0.0717
  145SAPE   H5X15994   1.855   6.440   9.672 -0.4267 -0.7511 -0.0533
  145SAPE   H5Y15995   1.783   6.585   9.754 -0.2086 -1.3522  2.5649
  145SAPE   C3615996   1.701   6.530   9.549  0.1926 -0.3844 -0.5558
  145SAPE   H6X15997   1.607   6.585   9.574  0.5501 -0.4063  0.9591
  145SAPE   H6Y15998   1.663   6.433   9.512  1.0298 -2.0313  2.5265
  145SAPE   C3715999   1.811   6.587   9.461 -0.2555  0.1458 -0.2713
  145SAPE   H7X16000   1.899   6.520   9.471 -0.3356  0.3613  2.8053
  145SAPE   H7Y16001   1.840   6.679   9.516  1.4913 -1.1186  1.0312
  145SAPE   C3816002   1.781   6.628   9.320  0.5808 -0.2022 -0.1533
  145SAPE   H8X16003   1.880   6.641   9.271  1.3733 -3.3195  0.3820
  145SAPE   H8Y16004   1.723   6.723   9.322  1.6260  0.4586 -0.2250
  145SAPE   C3916005   1.697   6.531   9.237 -0.1286 -0.5247  0.3735
  145SAPE   H9X16006   1.608   6.497   9.295  1.0298 -1.9530  1.3810
  145SAPE   H9Y16007   1.766   6.445   9.235  2.3478  1.3783 -1.2350
  145SAPE  C31016008   1.668   6.594   9.100 -0.7796  0.1103 -0.6075
  145SAPE  H10X16009   1.749   6.660   9.063 -2.7365  2.3810 -1.1289
  145SAPE  H10Y16010   1.589   6.671   9.111 -1.1486 -0.3622  0.1211
  145SAPE  C31116011   1.642   6.497   8.989 -0.4043 -0.6146  0.0515
  145SAPE  H11X16012   1.549   6.443   9.016 -0.4929  0.9119  3.2419
  145SAPE  H11Y16013   1.728   6.427   8.974  1.2556  0.5036  3.3578
  145SAPE  C31216014   1.612   6.570   8.856 -0.1072  0.2389  0.2806
  145SAPE  H12X16015   1.575   6.504   8.775  0.4124  0.9582 -0.5525
  145SAPE  H12Y16016   1.715   6.590   8.821  0.2731 -3.4667 -1.1717
  145SAPE  C31316017   1.509   6.690   8.858 -0.0359 -0.7213  0.0609
  145SAPE  H13X16018   1.545   6.772   8.924 -0.8312  1.9588 -2.5879
  145SAPE  H13Y16019   1.412   6.654   8.900  0.1968 -0.9599  0.3977
  145SAPE  C31416020   1.483   6.746   8.716 -0.7569  0.0013 -0.3942
  145SAPE  H14X16021   1.418   6.677   8.657  0.0951 -1.4187  0.2701
  145SAPE  H14Y16022   1.582   6.746   8.666 -0.2652  1.0248  0.5543
  145SAPE  C31516023   1.416   6.885   8.719  0.6049 -0.1884  0.1465
  145SAPE  H15X16024   1.330   6.865   8.786  1.4365 -0.3162  1.1939
  145SAPE  H15Y16025   1.364   6.902   8.622 -0.5748 -0.8792  0.6354
  145SAPE  C31616026   1.506   6.994   8.767  0.6644 -0.1559 -0.9117
  145SAPE  H16X16027   1.596   7.002   8.702  1.2779 -3.4075 -0.6658
  145SAPE  H16Y16028   1.544   6.968   8.868  0.2347  0.4798 -0.5837
  145SAPE  C31716029   1.439   7.133   8.759 -0.0979  0.2773 -0.6797
  145SAPE  H17X16030   1.510   7.210   8.795  3.2519 -2.2550 -1.2936
  145SAPE  H17Y16031   1.344   7.145   8.815 -0.1926  0.7315 -0.9378
  145SAPE  C31816032   1.425   7.179   8.617  0.0233 -0.4072 -0.2875
  145SAPE  H18X16033   1.518   7.163   8.560 -0.5646 -1.0993 -1.0720
  145SAPE  H18Y16034   1.395   7.286   8.610 -2.2710 -1.0094 -0.5411
  145SAPE  H18Z16035   1.339   7.127   8.570 -0.8374  0.4258  0.2968
  146SAPE     N16036   1.768   2.801  10.509 -0.0597  0.6766 -0.3401
  146SAPE   HN116037   1.709   2.807  10.424  0.3410  1.8298 -0.5585
  146SAPE   HN216038   1.703   2.828  10.585  2.1034 -1.3294  2.4558
  146SAPE   HN316039   1.847   2.866  10.491  1.0955 -0.5543  0.0404
  146SAPE   C1216040   1.827   2.665  10.535 -0.8134  0.3046  0.4649
  146SAPE  H12A16041   1.891   2.618  10.458 -1.0533 -1.4240  1.2607
  146SAPE  H12B16042   1.737   2.603  10.558 -1.9938  1.3391 -1.1968
  146SAPE   C1116043   1.917   2.690  10.658  0.1934  0.2180  0.3671
  146SAPE  H11A16044   1.962   2.589  10.671  0.0022 -0.1590 -1.5583
  146SAPE  H11B16045   1.847   2.712  10.742 -0.1396 -0.5246  0.2877
  146SAPE     P16046   2.167   2.754  10.632 -0.1045 -0.2138 -0.0332
  146SAPE   O1316047   2.233   2.878  10.675 -0.5206  0.1363  0.7945
  146SAPE   O1416048   2.203   2.636  10.712  0.1513 -0.2024 -0.0487
  146SAPE   O1216049   2.016   2.800  10.634  0.8681 -0.2095 -0.4138
  146SAPE   O1116050   2.203   2.720  10.478  0.0985  0.2025 -0.2533
  146SAPE    C116051   2.147   2.805  10.375  0.1665 -0.1359 -0.1157
  146SAPE    HA16052   2.041   2.776  10.357 -0.6472  1.2763  2.0886
  146SAPE    HB16053   2.144   2.915  10.384  0.2082 -0.2241  1.1552
  146SAPE    C216054   2.212   2.769  10.232  0.3258  0.3818  0.5995
  146SAPE    HS16055   2.149   2.816  10.152 -1.2463 -0.4696  1.2853
  146SAPE   O2116056   2.200   2.623  10.206 -0.3416  0.2651  0.4436
  146SAPE   C2116057   2.300   2.537  10.246  0.7061 -0.0194  0.8133
  146SAPE   O2216058   2.398   2.562  10.314  0.1014  0.5499  0.4481
  146SAPE   C2216059   2.255   2.399  10.204 -0.6472  0.2608  0.8080
  146SAPE   H2R16060   2.173   2.370  10.273 -0.0623 -0.9634  1.0004
  146SAPE   H2S16061   2.218   2.397  10.099  2.1835 -2.1579 -0.2749
  146SAPE    C316062   2.361   2.828  10.217 -0.8417  0.3426 -0.3477
  146SAPE    HX16063   2.419   2.793  10.305 -2.0517 -1.8759 -0.3542
  146SAPE    HY16064   2.359   2.937  10.241 -2.0973 -0.0444  1.5647
  146SAPE   O3116065   2.422   2.793  10.086 -0.3801 -0.2898 -0.1723
  146SAPE   C3116066   2.550   2.838  10.084 -0.3851 -0.7910 -0.1322
  146SAPE   O3216067   2.604   2.911  10.163  0.8658  0.1422 -0.0115
  146SAPE   C3216068   2.616   2.798   9.953 -0.0433  0.3471 -0.3381
  146SAPE   H2X16069   2.592   2.870   9.872  2.2722 -0.1815 -1.5825
  146SAPE   H2Y16070   2.566   2.700   9.936 -1.0453  0.7608  0.1575
  146SAPE   C2316071   2.373   2.302  10.221 -0.2619 -1.0824  0.1617
  146SAPE   H3R16072   2.414   2.320  10.323  1.6604  1.6032 -0.9647
  146SAPE   H3S16073   2.450   2.334  10.148 -0.5638  1.3270  0.8268
  146SAPE   C2416074   2.340   2.157  10.186  0.2994  0.4310  0.0197
  146SAPE   H4R16075   2.257   2.128  10.255 -0.2381  2.0470  0.1055
  146SAPE   H4S16076   2.429   2.099  10.217  0.1244 -0.3808 -0.9480
  146SAPE   C2516077   2.298   2.124  10.047 -0.3633 -0.0368 -0.1473
  146SAPE   H5R16078   2.341   2.185   9.966  2.2350  0.6500  1.6234
  146SAPE   C2616079   2.212   2.033  10.007 -0.6395  0.0138  0.8863
  146SAPE   H6R16080   2.184   2.030   9.901  1.5265  1.2535  0.2099
  146SAPE   C2716081   2.138   1.941  10.103 -0.3395 -0.1278 -0.5606
  146SAPE   H7R16082   2.186   1.927  10.202 -1.1808  1.6499  0.1280
  146SAPE   H7S16083   2.139   1.839  10.059  1.0669 -0.4634  0.1810
  146SAPE   C2816084   2.005   2.001  10.146 -0.2576 -0.1048  0.7050
  146SAPE   H8R16085   2.015   2.089  10.211  1.5323  0.5403 -0.3878
  146SAPE   C2916086   1.881   1.967  10.092 -0.3379  0.1961 -1.0329
  146SAPE   H9R16087   1.788   2.012  10.128 -1.3077 -1.1272 -1.8009
  146SAPE  C21016088   1.876   1.863   9.983 -0.3177 -0.1113 -0.4645
  146SAPE  H10R16089   1.846   1.771  10.037 -1.5313 -0.0349 -0.9915
  146SAPE  H10S16090   1.971   1.839   9.930 -1.7534 -4.1639 -1.5587
  146SAPE  C21116091   1.771   1.884   9.878 -0.1521  0.7730  0.5979
  146SAPE  H11R16092   1.681   1.941   9.907 -1.1828  0.6118 -2.0261
  146SAPE  C21216093   1.770   1.838   9.752  0.3184 -0.0409  0.8270
  146SAPE  H12R16094   1.677   1.873   9.703 -0.6378 -1.7411  1.3676
  146SAPE  C21316095   1.862   1.745   9.671 -0.3904  0.0568  0.5202
  146SAPE  H13R16096   1.801   1.663   9.628 -0.8049  0.3590  0.5302
  146SAPE  H13S16097   1.936   1.688   9.732 -1.2282 -0.1622  1.3560
  146SAPE  C21416098   1.946   1.825   9.573 -0.3309 -0.2068  0.3030
  146SAPE  H14R16099   2.014   1.900   9.617  0.7005 -0.6857 -0.4182
  146SAPE  C21516100   1.942   1.802   9.438 -0.1382 -0.2169  0.0652
  146SAPE  H15R16101   2.001   1.866   9.370 -1.0375  1.2973  0.6740
  146SAPE  C21616102   1.861   1.687   9.374  0.0194 -0.3619  0.2861
  146SAPE  H16R16103   1.763   1.720   9.333  0.1738  0.6746  0.7105
  146SAPE  H16S16104   1.841   1.607   9.449 -0.0734 -0.9931 -0.4039
  146SAPE  C21716105   1.935   1.626   9.261 -0.6702  0.3435  0.1743
  146SAPE  H17R16106   1.884   1.531   9.236  2.3240 -1.4596  0.4096
  146SAPE  H17S16107   2.035   1.586   9.289 -1.8370 -0.7705  3.2668
  146SAPE  C21816108   1.928   1.702   9.133 -0.5550 -0.2627  0.0446
  146SAPE  H18R16109   1.982   1.799   9.143 -0.2367 -0.3639 -0.6142
  146SAPE  H18S16110   1.819   1.717   9.117 -0.2515  1.6270 -0.5143
  146SAPE  C21916111   1.983   1.631   9.009  0.3870  0.3945 -0.0430
  146SAPE  H19R16112   1.970   1.702   8.925 -1.2317 -0.6439 -0.7268
  146SAPE  H19S16113   1.917   1.542   9.007  1.2131 -0.2099 -0.7591
  146SAPE  C22016114   2.132   1.598   9.026 -0.8531 -0.0564 -0.0477
  146SAPE  H20R16115   2.180   1.678   9.086  1.6547  0.0514 -2.0236
  146SAPE  H20S16116   2.187   1.592   8.930 -1.8974  0.4381 -0.6870
  146SAPE  H20T16117   2.139   1.500   9.080  1.9001 -0.0421 -0.2065
  146SAPE   C3316118   2.773   2.773   9.958  0.6289  0.1024  0.3569
  146SAPE   H3X16119   2.781   2.707  10.047 -1.9388 -0.6282  0.1339
  146SAPE   H3Y16120   2.820   2.870   9.984  0.1795  0.1924  0.8487
  146SAPE   C3416121   2.826   2.712   9.825 -0.0695 -0.0783 -0.2407
  146SAPE   H4X16122   2.928   2.678   9.854  1.4665  1.9677 -2.7435
  146SAPE   H4Y16123   2.838   2.787   9.744  0.1909  2.6938  2.1791
  146SAPE   C3516124   2.767   2.582   9.785  1.0081 -0.0443  0.4352
  146SAPE   H5X16125   2.658   2.604   9.781  0.7129 -1.1329  1.7907
  146SAPE   H5Y16126   2.778   2.503   9.862  1.2615 -1.0144 -0.5675
  146SAPE   C3616127   2.804   2.545   9.637 -0.5310  1.5107  0.2179
  146SAPE   H6X16128   2.913   2.545   9.621 -0.6164 -1.3732 -0.8965
  146SAPE   H6Y16129   2.761   2.620   9.567 -0.6854  1.0413 -0.1942
  146SAPE   C3716130   2.758   2.405   9.598  0.3022 -1.2884 -0.6559
  146SAPE   H7X16131   2.651   2.395   9.624 -0.4469  0.4871 -2.7486
  146SAPE   H7Y16132   2.811   2.354   9.681 -1.2871  0.5108  1.5967
  146SAPE   C3816133   2.787   2.366   9.457 -0.4062 -0.1411 -0.6380
  146SAPE   H8X16134   2.802   2.455   9.391  2.3422 -2.0243 -2.8199
  146SAPE   H8Y16135   2.707   2.305   9.412  0.6800 -1.1635 -1.2541
  146SAPE   C3916136   2.920   2.285   9.436  0.1095 -0.7033  0.2894
  146SAPE   H9X16137   2.930   2.201   9.508 -0.7584 -2.3610 -1.4129
  146SAPE   H9Y16138   3.006   2.352   9.453  0.3199 -0.6657 -0.8908
  146SAPE  C31016139   2.917   2.253   9.285 -0.1856  0.4280  0.2565
  146SAPE  H10X16140   2.881   2.340   9.226 -0.7861 -0.2713 -0.4413
  146SAPE  H10Y16141   2.838   2.177   9.265 -0.6420 -0.3740  4.2910
  146SAPE  C31116142   3.052   2.209   9.222 -0.4858  0.8320  0.2191
  146SAPE  H11X16143   3.085   2.110   9.261  0.0874  0.3648 -1.3510
  146SAPE  H11Y16144   3.132   2.275   9.260  0.4595  1.0533 -2.0001
  146SAPE  C31216145   3.038   2.211   9.074  0.4788  0.0633  0.5007
  146SAPE  H12X16146   3.001   2.309   9.040 -0.8343 -1.0473 -1.4434
  146SAPE  H12Y16147   2.961   2.138   9.042  0.5779  0.8760 -1.7382
  146SAPE  C31316148   3.167   2.177   8.999  0.4401 -0.8260  0.1755
  146SAPE  H13X16149   3.206   2.075   9.020  2.6078 -0.2682 -0.7691
  146SAPE  H13Y16150   3.241   2.251   9.035 -1.4588  0.6856  1.1271
  146SAPE  C31416151   3.153   2.175   8.841 -0.0404  0.2563 -0.3821
  146SAPE  H14X16152   3.249   2.174   8.786 -0.9504  3.3650 -2.2886
  146SAPE  H14Y16153   3.102   2.270   8.814  0.5664  1.2214  1.7040
  146SAPE  C31516154   3.060   2.060   8.790 -0.3614 -0.2686 -0.2181
  146SAPE  H15X16155   2.957   2.100   8.789 -0.3064 -0.0947 -1.5974
  146SAPE  H15Y16156   3.043   1.978   8.862  0.8830  0.6266  1.1582
  146SAPE  C31616157   3.099   2.011   8.658 -0.7953 -0.1885  0.0343
  146SAPE  H16X16158   3.198   1.960   8.658  1.0854  3.0730 -1.5942
  146SAPE  H16Y16159   3.109   2.092   8.582  2.0598 -1.6429 -1.3113
  146SAPE  C31716160   2.986   1.918   8.598 -0.2423 -0.0211 -0.1322
  146SAPE  H17X16161   2.910   1.995   8.575  1.0351  1.4683  0.4870
  146SAPE  H17Y16162   2.949   1.845   8.674 -1.5011  0.2157 -0.4876
  146SAPE  C31816163   3.019   1.834   8.477  0.1569  0.2547  0.1056
  146SAPE  H18X16164   2.926   1.802   8.424  1.2612 -0.9310 -1.1946
  146SAPE  H18Y16165   3.073   1.743   8.511  1.6932  0.5861 -1.3241
  146SAPE  H18Z16166   3.087   1.880   8.403 -1.7900 -0.7044 -2.4481
  147SAPE     N16167   3.513   3.435  10.806  0.1691  0.2465  0.0280
  147SAPE   HN116168   3.482   3.336  10.794  1.2031  0.0812 -1.5928
  147SAPE   HN216169   3.616   3.421  10.804 -0.0177 -1.6934  1.2987
  147SAPE   HN316170   3.485   3.472  10.899  1.0726 -0.5331  0.6262
  147SAPE   C1216171   3.475   3.534  10.702  0.5584  0.0087 -0.1558
  147SAPE  H12A16172   3.364   3.537  10.704  0.5117  1.0099 -2.2693
  147SAPE  H12B16173   3.520   3.498  10.607  1.8215 -2.9697  1.4322
  147SAPE   C1116174   3.533   3.669  10.756  0.4804  1.0255  0.8478
  147SAPE  H11A16175   3.465   3.693  10.840 -1.0551 -1.4580  0.4246
  147SAPE  H11B16176   3.536   3.746  10.676  1.4601  3.4614  3.1079
  147SAPE     P16177   3.723   3.793  10.859  0.0178 -0.1594  0.4340
  147SAPE   O1316178   3.641   3.855  10.961  0.5007  0.5302 -0.1108
  147SAPE   O1416179   3.867   3.774  10.884 -0.1795 -0.6466  0.2069
  147SAPE   O1216180   3.668   3.659  10.802 -0.2777 -0.5225  0.1513
  147SAPE   O1116181   3.716   3.893  10.736  0.1236 -0.4436  0.0325
  147SAPE    C116182   3.812   3.895  10.629 -0.7123  0.1852 -0.8397
  147SAPE    HA16183   3.897   3.957  10.663 -0.2666 -1.1372  0.5813
  147SAPE    HB16184   3.863   3.798  10.609 -2.7311 -0.7453 -1.7848
  147SAPE    C216185   3.752   3.946  10.497 -0.2092  0.3397  0.2507
  147SAPE    HS16186   3.710   4.047  10.520 -0.3817  0.3938 -0.2838
  147SAPE   O2116187   3.657   3.857  10.445  0.6643  0.7635 -0.9629
  147SAPE   C2116188   3.560   3.907  10.373 -0.1776  0.1878 -0.9785
  147SAPE   O2216189   3.538   4.022  10.344  0.5986 -0.5324  0.5738
  147SAPE   C2216190   3.468   3.792  10.338  0.7050 -0.3682  0.5883
  147SAPE   H2R16191   3.410   3.758  10.426 -0.8962 -1.5677 -0.8564
  147SAPE   H2S16192   3.395   3.831  10.264 -0.4543 -0.7495  1.4815
  147SAPE    C316193   3.865   3.959  10.390 -0.5585  0.2533  0.7894
  147SAPE    HX16194   3.920   3.863  10.388  1.8310  1.5490  0.7768
  147SAPE    HY16195   3.939   4.030  10.435  2.8463 -1.4104 -1.7491
  147SAPE   O3116196   3.803   3.991  10.262  0.0212  0.4434 -0.4637
  147SAPE   C3116197   3.833   4.099  10.208 -0.1906 -0.4933 -1.1727
  147SAPE   O3216198   3.917   4.180  10.246  0.3801  0.1156 -0.0618
  147SAPE   C3216199   3.758   4.115  10.081 -0.3857  0.3700  0.5084
  147SAPE   H2X16200   3.654   4.086  10.103 -0.4303  0.6422  0.6568
  147SAPE   H2Y16201   3.808   4.054  10.002  1.9462  0.3278  1.9076
  147SAPE   C2316202   3.533   3.665  10.265  0.1367  0.1874  0.0479
  147SAPE   H3R16203   3.588   3.602  10.338 -1.6560 -1.2974  0.1832
  147SAPE   H3S16204   3.606   3.702  10.190  0.9506 -0.3185  0.5764
  147SAPE   C2416205   3.424   3.575  10.203 -0.8134 -0.6344  0.1324
  147SAPE   H4R16206   3.375   3.510  10.278 -1.5224 -0.1329  0.1180
  147SAPE   H4S16207   3.467   3.492  10.143 -2.0269 -1.1627 -0.0417
  147SAPE   C2516208   3.329   3.649  10.118 -0.2216  0.6455 -0.3928
  147SAPE   H5R16209   3.234   3.666  10.169 -0.3127  1.0186 -0.6834
  147SAPE   C2616210   3.341   3.686   9.989 -0.3601 -0.0202 -0.4621
  147SAPE   H6R16211   3.267   3.735   9.924 -2.6814 -2.4368  0.1909
  147SAPE   C2716212   3.462   3.659   9.897  0.3559 -0.3054  0.6126
  147SAPE   H7R16213   3.486   3.551   9.908 -0.9410 -0.6131  0.6505
  147SAPE   H7S16214   3.546   3.716   9.941 -0.1986 -0.2497  1.6312
  147SAPE   C2816215   3.445   3.691   9.751 -0.8522 -0.1347 -0.4187
  147SAPE   H8R16216   3.368   3.627   9.704 -1.7659  1.6965 -1.5237
  147SAPE   C2916217   3.507   3.778   9.680  0.3811 -0.8161 -0.4004
  147SAPE   H9R16218   3.495   3.781   9.571  2.0027  0.2799 -0.5905
  147SAPE  C21016219   3.612   3.880   9.731 -0.2275 -0.4154  0.5317
  147SAPE  H10R16220   3.700   3.868   9.664  0.2262 -1.4472  1.2888
  147SAPE  H10S16221   3.655   3.837   9.825  0.0391 -0.0105  0.5959
  147SAPE  C21116222   3.567   4.022   9.760 -1.1885 -0.2938  0.3449
  147SAPE  H11R16223   3.569   4.065   9.862  1.2166  3.4972 -1.0705
  147SAPE  C21216224   3.517   4.103   9.663  0.3992  0.0150 -0.2347
  147SAPE  H12R16225   3.491   4.205   9.692 -2.3207 -1.0236  1.3329
  147SAPE  C21316226   3.495   4.069   9.517  0.3333  0.0418  1.3544
  147SAPE  H13R16227   3.393   4.026   9.508  0.9825 -1.9513  2.9277
  147SAPE  H13S16228   3.566   3.993   9.478 -1.0096 -0.4372 -0.2578
  147SAPE  C21416229   3.514   4.199   9.441 -0.1239  0.0345  0.0967
  147SAPE  H14R16230   3.528   4.295   9.493 -0.1940 -0.9459  2.0435
  147SAPE  C21516231   3.494   4.205   9.305 -0.5008  0.3765 -0.4218
  147SAPE  H15R16232   3.517   4.301   9.257 -0.4166  0.4735 -0.1894
  147SAPE  C21616233   3.466   4.099   9.200  0.1082  0.2777  0.0274
  147SAPE  H16R16234   3.377   4.042   9.235 -0.2904  0.8623 -0.0338
  147SAPE  H16S16235   3.546   4.021   9.200 -0.4117 -0.2678  0.0981
  147SAPE  C21716236   3.417   4.128   9.054  0.7787 -0.6287  0.3243
  147SAPE  H17R16237   3.329   4.194   9.067  0.3198 -1.1116 -0.2733
  147SAPE  H17S16238   3.381   4.033   9.009 -0.7708 -0.5373  1.3106
  147SAPE  C21816239   3.524   4.214   8.980  0.4234 -0.1158 -0.2867
  147SAPE  H18R16240   3.617   4.154   8.967  0.7179  0.4380 -0.7837
  147SAPE  H18S16241   3.543   4.304   9.042  0.0458 -0.3660  0.1962
  147SAPE  C21916242   3.484   4.256   8.838  0.1133 -0.2284 -0.1534
  147SAPE  H19R16243   3.400   4.330   8.841  1.4906  1.4231  3.4476
  147SAPE  H19S16244   3.458   4.164   8.782 -1.7275  1.1614 -1.7302
  147SAPE  C22016245   3.591   4.324   8.759 -0.0645 -0.2744 -0.1715
  147SAPE  H20R16246   3.674   4.253   8.743  0.9766  1.1508 -1.4125
  147SAPE  H20S16247   3.630   4.405   8.825 -0.4667  1.0431 -1.4974
  147SAPE  H20T16248   3.558   4.367   8.662  2.6592  0.1982 -0.9798
  147SAPE   C3316249   3.754   4.258  10.035  0.4152 -0.1823  0.1123
  147SAPE   H3X16250   3.697   4.269   9.940  0.3653  1.3777  0.2849
  147SAPE   H3Y16251   3.851   4.309  10.017 -0.2251  0.6803 -1.0030
  147SAPE   C3416252   3.677   4.345  10.138  0.4915 -0.0908 -0.1221
  147SAPE   H4X16253   3.738   4.348  10.231  2.6659  0.8766 -1.5050
  147SAPE   H4Y16254   3.578   4.309  10.173  0.4661 -0.1673 -0.2721
  147SAPE   C3516255   3.667   4.500  10.103 -1.0307  0.0804 -0.4102
  147SAPE   H5X16256   3.769   4.534  10.076 -0.0428 -2.9581 -0.9108
  147SAPE   H5Y16257   3.635   4.546  10.198 -0.8636 -0.5111 -0.0609
  147SAPE   C3616258   3.572   4.532   9.988 -0.3764 -0.2467  0.8497
  147SAPE   H6X16259   3.532   4.633  10.008 -2.2098 -0.9866  1.0750
  147SAPE   H6Y16260   3.492   4.455   9.979 -1.1391  0.3221  2.3745
  147SAPE   C3716261   3.644   4.546   9.851 -0.8802  0.5722 -0.5805
  147SAPE   H7X16262   3.602   4.459   9.797 -1.7944  0.8136 -0.2849
  147SAPE   H7Y16263   3.752   4.524   9.856 -1.4738 -2.5407  1.0825
  147SAPE   C3816264   3.604   4.670   9.764 -0.1893 -0.5483 -0.2671
  147SAPE   H8X16265   3.647   4.763   9.805  0.7491 -1.7964  1.7606
  147SAPE   H8Y16266   3.496   4.695   9.774  0.3608  1.4606  1.2489
  147SAPE   C3916267   3.650   4.654   9.617  0.2996 -0.1484  0.6817
  147SAPE   H9X16268   3.605   4.569   9.561  1.2453  0.0874 -0.4801
  147SAPE   H9Y16269   3.753   4.612   9.624 -0.1188 -1.1494  0.9976
  147SAPE  C31016270   3.638   4.766   9.517  0.0723  0.2928  0.6674
  147SAPE  H10X16271   3.693   4.857   9.551  0.3964  0.6583 -0.7548
  147SAPE  H10Y16272   3.528   4.780   9.507 -0.0017 -0.5468  0.2342
  147SAPE  C31116273   3.678   4.722   9.370 -1.2087 -0.5407  0.5218
  147SAPE  H11X16274   3.626   4.627   9.350 -1.9555 -0.3120  1.3276
  147SAPE  H11Y16275   3.785   4.690   9.365 -1.0844  0.0822 -2.6456
  147SAPE  C31216276   3.645   4.820   9.262 -0.6524 -0.1680  0.1285
  147SAPE  H12X16277   3.701   4.916   9.264 -1.6682  0.4508 -0.2814
  147SAPE  H12Y16278   3.539   4.847   9.283 -1.0738 -1.2566 -0.5449
  147SAPE  C31316279   3.655   4.763   9.120  0.0576  0.3558 -0.4680
  147SAPE  H13X16280   3.579   4.689   9.087  0.2802  1.5135 -3.9266
  147SAPE  H13Y16281   3.753   4.712   9.132 -1.0928 -1.8486  0.0597
  147SAPE  C31416282   3.662   4.872   9.010 -0.6118  0.3878 -0.4946
  147SAPE  H14X16283   3.734   4.942   9.057  0.6399 -1.3198  0.2235
  147SAPE  H14Y16284   3.561   4.916   9.023 -0.5572  0.7565 -1.2449
  147SAPE  C31516285   3.697   4.825   8.864  0.2048  0.1510 -0.5281
  147SAPE  H15X16286   3.803   4.791   8.865 -0.0835 -0.7699  0.5431
  147SAPE  H15Y16287   3.691   4.913   8.795 -3.0985  1.5424  1.3137
  147SAPE  C31616288   3.602   4.708   8.825  0.3217  0.1271  0.3361
  147SAPE  H16X16289   3.602   4.628   8.902  2.6486 -0.0947  0.2003
  147SAPE  H16Y16290   3.642   4.666   8.730  2.0292 -0.7055  1.3629
  147SAPE  C31716291   3.451   4.739   8.799 -0.0949 -0.9131  0.3289
  147SAPE  H17X16292   3.442   4.821   8.725 -0.1137 -0.1121  1.2112
  147SAPE  H17Y16293   3.411   4.781   8.893 -0.8225 -1.6595  0.3705
  147SAPE  C31816294   3.370   4.621   8.755 -0.5394 -0.1299  0.4002
  147SAPE  H18X16295   3.408   4.557   8.672  2.5410  0.1663  1.4678
  147SAPE  H18Y16296   3.263   4.652   8.745 -0.2856  0.2268 -1.7669
  147SAPE  H18Z16297   3.373   4.553   8.843  1.1946 -0.6798 -0.0501
  148SAPE     N16298   4.916   5.253  10.959  0.2993  0.2345 -0.3985
  148SAPE   HN116299   4.906   5.154  10.989 -0.5938  0.2476 -0.6203
  148SAPE   HN216300   4.921   5.304  11.049 -1.0627  1.0149 -0.7441
  148SAPE   HN316301   4.821   5.265  10.918  0.6706 -0.2760 -1.4585
  148SAPE   C1216302   5.032   5.279  10.875 -0.2484 -0.0379 -0.1535
  148SAPE  H12A16303   5.010   5.231  10.778  0.3949 -0.3619 -0.1468
  148SAPE  H12B16304   5.123   5.224  10.909  0.6617 -0.3504 -2.8572
  148SAPE   C1116305   5.049   5.428  10.861  0.1423 -0.5090  0.1990
  148SAPE  H11A16306   5.123   5.459  10.784 -1.0596  0.7382 -0.4963
  148SAPE  H11B16307   5.095   5.461  10.957  2.9233  1.2107 -1.6026
  148SAPE     P16308   4.857   5.538  10.724 -0.1389  0.0612 -0.0651
  148SAPE   O1316309   4.774   5.420  10.685  0.0135 -0.7659  0.1269
  148SAPE   O1416310   4.779   5.662  10.749  0.0988 -0.4484 -0.0479
  148SAPE   O1216311   4.925   5.503  10.861  0.4051 -0.2075  0.2253
  148SAPE   O1116312   4.966   5.570  10.622 -0.7735 -0.1939  0.0881
  148SAPE    C116313   5.062   5.671  10.636  0.3348  0.1467  0.1427
  148SAPE    HA16314   5.094   5.693  10.740  0.3077  2.0184 -0.1921
  148SAPE    HB16315   5.148   5.639  10.573 -0.8044 -0.8761 -0.9545
  148SAPE    C216316   5.017   5.811  10.582 -0.1826 -0.6021  0.3589
  148SAPE    HS16317   4.924   5.834  10.638 -0.3053  0.5251 -0.2879
  148SAPE   O2116318   4.989   5.796  10.439 -0.1037  0.0490  0.1443
  148SAPE   C2116319   4.935   5.904  10.381  0.2242  0.5970  0.0828
  148SAPE   O2216320   4.895   6.001  10.441  0.3948 -0.3255  0.3422
  148SAPE   C2216321   4.935   5.887  10.229 -0.2401  0.1729 -0.4360
  148SAPE   H2R16322   5.039   5.857  10.203 -0.9232 -2.2254 -0.6066
  148SAPE   H2S16323   4.869   5.799  10.212 -0.6182  0.0462  1.4656
  148SAPE    C316324   5.133   5.918  10.612  0.2167  0.2582 -0.2083
  148SAPE    HX16325   5.142   5.941  10.720  2.7475  2.3175 -0.7532
  148SAPE    HY16326   5.098   6.013  10.565 -1.9170 -0.8049 -0.9047
  148SAPE   O3116327   5.260   5.873  10.568 -0.4035 -0.1001 -0.1312
  148SAPE   C3116328   5.319   5.922  10.459 -0.0363  0.0263 -0.0464
  148SAPE   O3216329   5.281   6.022  10.397 -0.5203  0.0636 -0.0217
  148SAPE   C3216330   5.434   5.823  10.436 -0.4977 -0.2426  0.1369
  148SAPE   H2X16331   5.414   5.734  10.499 -0.2317 -0.8792 -0.6563
  148SAPE   H2Y16332   5.528   5.880  10.455  0.3491 -1.8150  0.8601
  148SAPE   C2316333   4.900   6.005  10.139 -0.2267  0.0054  0.1780
  148SAPE   H3R16334   4.815   6.064  10.181 -1.0865 -1.3619  0.4106
  148SAPE   H3S16335   4.880   5.962  10.038 -0.4683  0.3176  0.0922
  148SAPE   C2416336   5.021   6.107  10.135  0.1927  0.5968  0.8417
  148SAPE   H4R16337   5.060   6.151  10.229  2.1093 -0.0360  0.4064
  148SAPE   H4S16338   4.984   6.190  10.071  1.1485  0.4391  0.0456
  148SAPE   C2516339   5.140   6.044  10.069 -0.5032 -0.7400 -0.7926
  148SAPE   H5R16340   5.218   6.019  10.142 -0.5760  3.2136  0.8796
  148SAPE   C2616341   5.165   6.027   9.932 -0.0791 -0.1118  0.0097
  148SAPE   H6R16342   5.262   5.982   9.905 -0.2778 -0.4832 -0.0777
  148SAPE   C2716343   5.087   6.070   9.808  0.2520 -0.3086  0.2565
  148SAPE   H7R16344   5.015   6.151   9.830 -0.3150 -0.8427  0.3997
  148SAPE   H7S16345   5.021   5.984   9.782  0.3871 -1.8068  4.1808
  148SAPE   C2816346   5.170   6.131   9.699  0.3241 -0.3941  0.0021
  148SAPE   H8R16347   5.248   6.203   9.727  0.6038 -0.4248 -0.6768
  148SAPE   C2916348   5.140   6.120   9.567  0.0405  0.4063  0.8340
  148SAPE   H9R16349   5.207   6.164   9.492  0.2612 -1.7361 -0.2718
  148SAPE  C21016350   5.024   6.036   9.512 -0.1518  0.3609  0.0844
  148SAPE  H10R16351   5.019   6.056   9.403  2.3376 -4.6305 -1.2309
  148SAPE  H10S16352   4.933   6.061   9.571 -0.7367  0.8008 -0.9733
  148SAPE  C21116353   5.050   5.890   9.503 -0.0277 -0.2861  0.0348
  148SAPE  H11R16354   5.149   5.874   9.458  0.0417  2.2064 -0.8377
  148SAPE  C21216355   4.966   5.785   9.539 -0.3215  0.4394 -0.0190
  148SAPE  H12R16356   5.013   5.685   9.545 -0.5970  0.3909  1.5448
  148SAPE  C21316357   4.830   5.797   9.601  0.0794  0.2539 -0.0363
  148SAPE  H13R16358   4.759   5.835   9.524 -0.2930  1.2473  0.7716
  148SAPE  H13S16359   4.822   5.874   9.680 -1.4104  1.2923 -1.1466
  148SAPE  C21416360   4.769   5.669   9.663 -0.4208  1.3961  0.5287
  148SAPE  H14R16361   4.724   5.606   9.585  1.5057  0.4502  0.1012
  148SAPE  C21516362   4.791   5.610   9.779  0.0394  0.4388 -0.4692
  148SAPE  H15R16363   4.745   5.514   9.805 -1.3899  1.2968  0.3244
  148SAPE  C21616364   4.866   5.661   9.890 -0.2665 -0.5373  0.3968
  148SAPE  H16R16365   4.805   5.723   9.959 -0.2462 -0.2286  0.1424
  148SAPE  H16S16366   4.928   5.743   9.847 -3.2009  1.5914 -0.1008
  148SAPE  C21716367   4.955   5.555   9.962  0.7199  0.3552 -0.9275
  148SAPE  H17R16368   5.015   5.603  10.042  0.3574  2.3530 -1.7921
  148SAPE  H17S16369   5.027   5.518   9.885  1.1107 -1.4817  0.2576
  148SAPE  C21816370   4.882   5.440  10.047 -0.1121  0.1837  0.3706
  148SAPE  H18R16371   4.957   5.386  10.108 -1.5691 -1.7524  0.5558
  148SAPE  H18S16372   4.846   5.367   9.971 -1.2541  0.5752  0.5162
  148SAPE  C21916373   4.772   5.497  10.143  0.6343  0.0496 -0.3130
  148SAPE  H19R16374   4.681   5.508  10.082 -0.8703 -0.9730  1.6294
  148SAPE  H19S16375   4.803   5.593  10.189  0.1262  0.4685 -0.8279
  148SAPE  C22016376   4.748   5.391  10.249 -0.1952  0.9488  0.0387
  148SAPE  H20R16377   4.837   5.366  10.310 -0.6829 -0.6461  0.1257
  148SAPE  H20S16378   4.723   5.292  10.207  0.6612 -0.0017  1.6799
  148SAPE  H20T16379   4.668   5.428  10.316 -0.7420  2.1787 -1.2259
  148SAPE   C3316380   5.433   5.770  10.294 -0.3192 -0.4683  0.4993
  148SAPE   H3X16381   5.527   5.714  10.277 -0.0154  0.5908 -1.6089
  148SAPE   H3Y16382   5.436   5.856  10.223  1.5749 -0.4219  0.5878
  148SAPE   C3416383   5.309   5.678  10.265  0.2882  0.0601 -0.6057
  148SAPE   H4X16384   5.219   5.737  10.291  1.0579  1.6489 -1.3694
  148SAPE   H4Y16385   5.304   5.605  10.348 -0.8094 -0.0652 -0.7715
  148SAPE   C3516386   5.308   5.603  10.130  0.4097  0.1754  0.0720
  148SAPE   H5X16387   5.223   5.535  10.110  0.7773  0.1421 -1.4702
  148SAPE   H5Y16388   5.397   5.538  10.124  0.2102 -0.1532  0.6207
  148SAPE   C3616389   5.324   5.702  10.013  0.0203  0.4437 -0.9010
  148SAPE   H6X16390   5.414   5.766  10.022 -0.5921  1.1131  1.0672
  148SAPE   H6Y16391   5.240   5.775  10.011 -0.3253  0.1741  1.4107
  148SAPE   C3716392   5.341   5.621   9.884 -0.5599 -0.5701  0.2919
  148SAPE   H7X16393   5.261   5.545   9.871  0.1779 -1.3444  0.2041
  148SAPE   H7Y16394   5.439   5.571   9.900  0.7945  1.8082 -0.1343
  148SAPE   C3816395   5.341   5.695   9.744  0.3877 -0.3537 -0.5459
  148SAPE   H8X16396   5.405   5.785   9.741 -1.8886  1.3896 -0.0216
  148SAPE   H8Y16397   5.235   5.724   9.726  0.6242  0.8506 -0.0850
  148SAPE   C3916398   5.384   5.606   9.636  0.2271  0.8529 -0.1422
  148SAPE   H9X16399   5.293   5.544   9.619  0.7014 -0.4318  1.6364
  148SAPE   H9Y16400   5.472   5.547   9.669 -0.5849 -0.6511 -0.5778
  148SAPE  C31016401   5.410   5.676   9.501 -0.0814  0.4409  0.6590
  148SAPE  H10X16402   5.472   5.766   9.522  1.7177  0.0113 -2.1846
  148SAPE  H10Y16403   5.313   5.710   9.461  0.3831  0.6241 -0.3574
  148SAPE  C31116404   5.469   5.577   9.401 -0.8532  0.3334 -0.0588
  148SAPE  H11X16405   5.394   5.497   9.386  0.9779 -1.0490 -2.4753
  148SAPE  H11Y16406   5.555   5.535   9.458  0.0375  1.5510 -0.4620
  148SAPE  C31216407   5.515   5.634   9.264 -0.0832 -0.3239 -0.2965
  148SAPE  H12X16408   5.584   5.720   9.278 -1.2339  0.5197  0.4483
  148SAPE  H12Y16409   5.425   5.685   9.222 -0.1536 -0.1114  0.1027
  148SAPE  C31316410   5.576   5.546   9.156 -0.7707  0.8364 -0.3286
  148SAPE  H13X16411   5.487   5.490   9.119  0.1948 -0.7332 -0.3736
  148SAPE  H13Y16412   5.653   5.479   9.201 -0.7088  0.8189 -0.4624
  148SAPE  C31416413   5.637   5.634   9.044  0.7610  0.3294  0.2243
  148SAPE  H14X16414   5.725   5.682   9.093 -1.0013  1.8848  2.0384
  148SAPE  H14Y16415   5.570   5.706   8.993 -0.7409 -1.2256 -0.0590
  148SAPE  C31516416   5.681   5.551   8.918  0.2973  0.0555 -1.1194
  148SAPE  H15X16417   5.595   5.504   8.865 -0.2691  1.3748 -1.4129
  148SAPE  H15Y16418   5.745   5.473   8.964  0.7274  0.9189 -0.2298
  148SAPE  C31616419   5.759   5.634   8.819  0.3730 -0.2791  0.0516
  148SAPE  H16X16420   5.858   5.652   8.866  0.8198 -0.4243 -0.8187
  148SAPE  H16Y16421   5.696   5.721   8.790  1.6557  0.3015 -1.0734
  148SAPE  C31716422   5.773   5.558   8.688  0.0036 -0.3493 -0.4132
  148SAPE  H17X16423   5.670   5.535   8.653  0.2489  0.0521 -1.4152
  148SAPE  H17Y16424   5.820   5.459   8.708  0.9125  0.1733  0.0761
  148SAPE  C31816425   5.827   5.648   8.583  0.5847  0.6190 -0.7170
  148SAPE  H18X16426   5.921   5.694   8.622  0.6625  0.1367 -0.3179
  148SAPE  H18Y16427   5.765   5.736   8.558  1.3400  1.0951 -0.9509
  148SAPE  H18Z16428   5.857   5.598   8.488  0.6580 -1.3392  0.2791
  149SAPE     N16429   2.727   1.470  10.791  0.7568  0.5775 -0.5362
  149SAPE   HN116430   2.717   1.534  10.710  0.3473 -2.6294 -3.2622
  149SAPE   HN216431   2.814   1.419  10.766  0.2258  0.7891 -3.1185
  149SAPE   HN316432   2.643   1.408  10.788 -0.4896  2.2442 -1.7882
  149SAPE   C1216433   2.750   1.541  10.920 -0.2606  0.2806  0.9211
  149SAPE  H12A16434   2.839   1.598  10.886  1.1267 -2.6395 -0.6671
  149SAPE  H12B16435   2.783   1.467  10.996  1.3206  1.2585  1.2292
  149SAPE   C1116436   2.623   1.626  10.953 -0.7490  0.6245 -0.3649
  149SAPE  H11A16437   2.650   1.684  11.044  2.1514  1.1526 -1.4741
  149SAPE  H11B16438   2.537   1.566  10.991  1.2053 -0.7088  2.2868
  149SAPE     P16439   2.611   1.844  10.824  0.0264 -0.5279  0.2550
  149SAPE   O1316440   2.546   1.906  10.945 -0.2934 -0.2803 -0.0188
  149SAPE   O1416441   2.757   1.865  10.817  0.0164 -0.3507 -0.0949
  149SAPE   O1216442   2.579   1.691  10.829 -0.0696 -0.4173 -0.2148
  149SAPE   O1116443   2.541   1.895  10.690 -0.2552  0.1062  0.3694
  149SAPE    C116444   2.564   1.835  10.568  0.2940  0.4667 -0.6271
  149SAPE    HA16445   2.656   1.855  10.509  0.9379 -0.0970  0.1518
  149SAPE    HB16446   2.573   1.725  10.578 -1.7119  0.3013 -0.2278
  149SAPE    C216447   2.447   1.850  10.474 -0.2326 -0.0594  0.0659
  149SAPE    HS16448   2.445   1.959  10.454  1.6784  0.3094  1.6083
  149SAPE   O2116449   2.331   1.804  10.541  0.0850  0.0888 -0.4120
  149SAPE   C2116450   2.225   1.872  10.525 -0.2399 -0.9040  0.6831
  149SAPE   O2216451   2.223   1.983  10.467  0.4101  0.6096 -0.3139
  149SAPE   C2216452   2.113   1.817  10.608  0.0073 -0.6577  0.4492
  149SAPE   H2R16453   2.090   1.719  10.563  1.7219 -1.3265  0.9585
  149SAPE   H2S16454   2.148   1.802  10.712  0.6658  2.8419  0.8780
  149SAPE    C316455   2.467   1.762  10.336  0.0087 -0.3720 -0.0104
  149SAPE    HX16456   2.370   1.758  10.281  1.3149 -3.0479 -2.3745
  149SAPE    HY16457   2.471   1.657  10.373 -1.2606 -0.2000  0.7080
  149SAPE   O3116458   2.576   1.800  10.251 -0.0377 -0.0338 -0.3776
  149SAPE   C3116459   2.680   1.719  10.244 -0.7286 -0.3877  0.9014
  149SAPE   O3216460   2.695   1.616  10.307  0.2884  0.8006 -0.2115
  149SAPE   C3216461   2.762   1.765  10.118 -0.4144 -0.5302 -0.4459
  149SAPE   H2X16462   2.833   1.840  10.161 -0.2159 -1.1031  0.2360
  149SAPE   H2Y16463   2.692   1.824  10.054  0.4533  1.9770  0.7708
  149SAPE   C2316464   1.983   1.905  10.612 -0.4683 -0.3994  0.1963
  149SAPE   H3R16465   2.013   2.008  10.641  1.0719 -0.6571 -0.3838
  149SAPE   H3S16466   1.920   1.871  10.698  0.4499 -0.7670  0.7408
  149SAPE   C2416467   1.895   1.886  10.488 -0.6737  0.3219 -0.7067
  149SAPE   H4R16468   1.962   1.898  10.400  0.7021 -0.2609  0.2309
  149SAPE   H4S16469   1.832   1.978  10.481 -1.4429 -0.0415  0.9394
  149SAPE   C2516470   1.807   1.761  10.489 -0.1841 -0.2506 -0.6172
  149SAPE   H5R16471   1.729   1.769  10.567  0.8233  0.1064  0.3882
  149SAPE   C2616472   1.829   1.655  10.416  0.0030  0.3079  0.2975
  149SAPE   H6R16473   1.756   1.574  10.420  2.5049 -2.1400 -0.3270
  149SAPE   C2716474   1.941   1.641  10.316 -0.0026 -0.4791 -0.3277
  149SAPE   H7R16475   2.003   1.731  10.297  0.9899 -0.8782  0.9283
  149SAPE   H7S16476   1.896   1.621  10.216 -0.1369 -1.7975 -0.0239
  149SAPE   C2816477   2.040   1.533  10.360  0.2808 -0.0224 -0.0671
  149SAPE   H8R16478   2.020   1.489  10.459 -1.2435  1.1942  0.2059
  149SAPE   C2916479   2.144   1.496  10.285  0.0850  0.1855 -0.3560
  149SAPE   H9R16480   2.219   1.424  10.320  1.4007  1.9720  0.6498
  149SAPE  C21016481   2.179   1.554  10.154  0.2919  0.2968 -0.4589
  149SAPE  H10R16482   2.164   1.663  10.164  0.0705  0.2146  0.1402
  149SAPE  H10S16483   2.104   1.514  10.082  1.5137  0.7043 -2.0179
  149SAPE  C21116484   2.319   1.543  10.091  0.5635  0.1927 -0.4501
  149SAPE  H11R16485   2.398   1.523  10.165  1.8212 -0.2257 -1.8591
  149SAPE  C21216486   2.353   1.564   9.965 -1.0733 -1.3988  0.1398
  149SAPE  H12R16487   2.456   1.538   9.937 -1.1364 -1.0515 -0.4332
  149SAPE  C21316488   2.259   1.604   9.856 -0.5557 -0.2794  0.7763
  149SAPE  H13R16489   2.154   1.624   9.886 -0.5785  1.9670 -0.5520
  149SAPE  H13S16490   2.252   1.525   9.778 -4.9922  1.6461 -1.1041
  149SAPE  C21416491   2.297   1.743   9.803  0.2155  0.5109 -0.2515
  149SAPE  H14R16492   2.328   1.815   9.880  0.9461  0.2290 -0.2759
  149SAPE  C21516493   2.285   1.773   9.673 -0.5616 -1.1317 -0.1771
  149SAPE  H15R16494   2.302   1.876   9.638 -3.9924 -0.0854  0.7926
  149SAPE  C21616495   2.258   1.677   9.561  0.5290 -0.4032 -0.5017
  149SAPE  H16R16496   2.184   1.712   9.485 -0.1181 -0.6403  0.0104
  149SAPE  H16S16497   2.206   1.587   9.599  0.0746 -0.5606 -1.4793
  149SAPE  C21716498   2.378   1.642   9.478 -0.0743  0.0066 -0.1616
  149SAPE  H17R16499   2.350   1.556   9.413  0.2098 -0.8095  0.7637
  149SAPE  H17S16500   2.452   1.593   9.545  0.7385  1.7816  0.2743
  149SAPE  C21816501   2.442   1.748   9.385 -0.7752  0.3003  1.0153
  149SAPE  H18R16502   2.454   1.836   9.452 -2.4808 -0.0514  1.8199
  149SAPE  H18S16503   2.362   1.786   9.319 -0.6542  1.6691  1.6267
  149SAPE  C21916504   2.572   1.692   9.312  0.6453 -0.1485 -0.3351
  149SAPE  H19R16505   2.629   1.645   9.395  0.9043 -3.0384 -2.0100
  149SAPE  H19S16506   2.640   1.768   9.269  0.0029 -0.4211 -1.9090
  149SAPE  C22016507   2.538   1.577   9.212 -0.2040  0.1719 -0.1267
  149SAPE  H20R16508   2.635   1.541   9.173 -0.8141 -2.5806  0.6377
  149SAPE  H20S16509   2.467   1.603   9.130  0.5514 -0.7935 -1.1262
  149SAPE  H20T16510   2.494   1.486   9.259 -2.5399  1.5727  0.5434
  149SAPE   C3316511   2.853   1.662  10.047  0.0684 -0.1586  0.0047
  149SAPE   H3X16512   2.917   1.627  10.130 -0.0657 -0.9254 -0.2112
  149SAPE   H3Y16513   2.907   1.717   9.967 -0.4794 -0.1974 -0.3999
  149SAPE   C3416514   2.778   1.542   9.985  0.4646  0.6632 -1.1225
  149SAPE   H4X16515   2.678   1.580   9.955  0.1956  0.4913 -0.4636
  149SAPE   H4Y16516   2.754   1.471  10.067  2.5143  1.0889 -0.0798
  149SAPE   C3516517   2.855   1.475   9.877 -0.1489  1.1118  0.3744
  149SAPE   H5X16518   2.944   1.431   9.926 -0.0009 -0.8585 -1.5224
  149SAPE   H5Y16519   2.893   1.540   9.795 -2.9929  0.6231 -1.4980
  149SAPE   C3616520   2.776   1.374   9.798  0.3983 -0.1092 -0.2334
  149SAPE   H6X16521   2.699   1.431   9.741  0.8425  1.6133  0.8108
  149SAPE   H6Y16522   2.721   1.309   9.870 -0.0270  1.6312  1.0930
  149SAPE   C3716523   2.849   1.285   9.695 -0.2242  0.8898 -0.0985
  149SAPE   H7X16524   2.783   1.205   9.656  1.1333  0.6540 -2.0417
  149SAPE   H7Y16525   2.942   1.243   9.738  0.3078  0.9895 -1.1271
  149SAPE   C3816526   2.889   1.367   9.575  0.3709  0.0909  0.1377
  149SAPE   H8X16527   2.974   1.435   9.593  0.1491  1.0058 -1.9966
  149SAPE   H8Y16528   2.809   1.439   9.547  0.2523 -0.6169 -1.4525
  149SAPE   C3916529   2.933   1.286   9.455 -1.2678  0.7622  0.5106
  149SAPE   H9X16530   2.834   1.241   9.433 -1.6835  1.7505  0.3114
  149SAPE   H9Y16531   3.004   1.211   9.496  1.7354  3.4757  0.6790
  149SAPE  C31016532   3.003   1.361   9.338 -0.0650 -0.4191  0.0753
  149SAPE  H10X16533   3.096   1.411   9.374  0.2644 -1.5479  0.8376
  149SAPE  H10Y16534   2.938   1.450   9.322  0.0425  0.0578  2.0113
  149SAPE  C31116535   3.021   1.278   9.208  0.0953  0.2854  0.3442
  149SAPE  H11X16536   3.081   1.192   9.244  0.5627 -0.0527 -1.1625
  149SAPE  H11Y16537   3.087   1.333   9.137 -0.7822  1.4184  0.3740
  149SAPE  C31216538   2.887   1.231   9.138 -0.0256  0.4741 -0.0802
  149SAPE  H12X16539   2.818   1.196   9.218 -0.6464  3.4318  0.8211
  149SAPE  H12Y16540   2.913   1.145   9.073  3.1665  0.4838  1.0199
  149SAPE  C31316541   2.832   1.346   9.052 -0.2677 -0.3679  0.8790
  149SAPE  H13X16542   2.909   1.350   8.972  0.0760 -1.7003  1.1180
  149SAPE  H13Y16543   2.823   1.433   9.120 -0.0318  0.3267  0.0374
  149SAPE  C31416544   2.684   1.313   8.997 -0.6178  0.4757 -0.5398
  149SAPE  H14X16545   2.609   1.343   9.073 -0.1895  2.8159 -0.9861
  149SAPE  H14Y16546   2.682   1.204   8.977  0.7086  0.7284 -2.2645
  149SAPE  C31516547   2.650   1.377   8.860 -0.0575  1.0540 -0.1994
  149SAPE  H15X16548   2.716   1.344   8.776 -1.6151 -1.1004 -0.6549
  149SAPE  H15Y16549   2.656   1.487   8.862 -2.1685  1.1858  1.9678
  149SAPE  C31616550   2.508   1.338   8.806  0.0512  0.0969  0.0052
  149SAPE  H16X16551   2.447   1.297   8.889  0.7151  0.4339  0.6805
  149SAPE  H16Y16552   2.509   1.250   8.738 -3.8957  0.2793 -0.5157
  149SAPE  C31716553   2.444   1.452   8.733  1.1251 -0.5595  0.2630
  149SAPE  H17X16554   2.513   1.501   8.662  1.3583 -0.0349  0.8507
  149SAPE  H17Y16555   2.414   1.528   8.807 -0.4439  0.5323 -1.3992
  149SAPE  C31816556   2.318   1.405   8.659 -0.6814  0.5048  0.5722
  149SAPE  H18X16557   2.354   1.319   8.598 -1.1640  1.7204 -1.5357
  149SAPE  H18Y16558   2.275   1.483   8.592  0.7167  1.8998  1.2580
  149SAPE  H18Z16559   2.245   1.366   8.733  1.4874  0.6292  2.9184
  150SAPE     N16560   0.101   6.721  10.929 -0.2091  0.2053  0.3694
  150SAPE   HN116561   0.096   6.722  11.033 -1.9305  0.1019  0.3129
  150SAPE   HN216562   0.133   6.817  10.905 -1.3725  0.4818 -0.1267
  150SAPE   HN316563   0.006   6.709  10.888  0.7271  0.6918 -2.0615
  150SAPE   C1216564   0.199   6.615  10.892  0.2809 -0.1984  0.8726
  150SAPE  H12A16565   0.231   6.629  10.786 -1.6757 -0.8676  0.1598
  150SAPE  H12B16566   0.155   6.514  10.906 -1.6199 -0.1856 -3.5136
  150SAPE   C1116567   0.307   6.636  11.006  0.1042  0.0633 -0.6684
  150SAPE  H11A16568   0.390   6.563  10.995 -1.2692 -1.9738  1.3112
  150SAPE  H11B16569   0.263   6.600  11.102 -1.2159  1.4063 -0.7313
  150SAPE     P16570   0.459   6.836  10.916  0.3706 -0.3508  0.2677
  150SAPE   O1316571   0.400   6.960  10.857 -0.2580  0.1622  0.4614
  150SAPE   O1416572   0.583   6.839  10.999  0.3805  0.2171 -0.3799
  150SAPE   O1216573   0.353   6.776  11.018  0.0627  0.3836  0.0202
  150SAPE   O1116574   0.470   6.722  10.796 -0.1770 -0.5008 -0.2541
  150SAPE    C116575   0.592   6.651  10.780  0.2691 -0.3381  0.6040
  150SAPE    HA16576   0.673   6.722  10.752  0.3445 -0.0702  1.4762
  150SAPE    HB16577   0.628   6.590  10.865  1.0222 -0.6991  0.0460
  150SAPE    C216578   0.592   6.540  10.663 -0.0884  0.1494  0.0120
  150SAPE    HS16579   0.682   6.478  10.681  2.2481  3.0258 -0.7814
  150SAPE   O2116580   0.601   6.585  10.523  0.5657 -0.5470 -0.1673
  150SAPE   C2116581   0.699   6.660  10.487 -0.1046  0.0391  0.6369
  150SAPE   O2216582   0.798   6.688  10.550  0.0891  0.1814  0.7194
  150SAPE   C2216583   0.683   6.703  10.336  0.1901 -0.1464 -0.4075
  150SAPE   H2R16584   0.666   6.609  10.279 -3.9297  0.1541 -0.0276
  150SAPE   H2S16585   0.592   6.767  10.338  0.2725 -0.0421  1.4260
  150SAPE    C316586   0.476   6.443  10.693  0.3618 -0.4843 -0.2558
  150SAPE    HX16587   0.379   6.496  10.702  0.3949 -0.6672  1.4805
  150SAPE    HY16588   0.487   6.404  10.796 -0.5950 -2.0995 -0.7221
  150SAPE   O3116589   0.471   6.322  10.607 -0.2083  0.0828 -0.1077
  150SAPE   C3116590   0.379   6.337  10.509  0.4223 -0.1969  0.2854
  150SAPE   O3216591   0.307   6.432  10.485 -0.1830 -0.0163  0.5957
  150SAPE   C3216592   0.377   6.205  10.423  0.0576  0.0096  0.0964
  150SAPE   H2X16593   0.323   6.136  10.492 -0.3140 -0.7048 -0.8816
  150SAPE   H2Y16594   0.484   6.181  10.406  0.7369  1.3270  2.1575
  150SAPE   C2316595   0.810   6.768  10.281 -0.1858  0.8840 -0.9163
  150SAPE   H3R16596   0.855   6.849  10.343  0.7287  0.3992 -0.9384
  150SAPE   H3S16597   0.776   6.826  10.193 -0.5026  2.8882  0.4506
  150SAPE   C2416598   0.915   6.657  10.247 -0.6757  0.0126  0.5006
  150SAPE   H4R16599   0.874   6.564  10.203 -0.9419  1.0945 -1.6479
  150SAPE   H4S16600   0.955   6.622  10.345  0.3850 -2.0872 -0.6002
  150SAPE   C2516601   1.030   6.716  10.168  0.7618 -0.1689  0.7233
  150SAPE   H5R16602   1.115   6.755  10.225  0.6816 -1.5224  1.8251
  150SAPE   C2616603   1.038   6.716  10.027  0.4613 -0.5415 -0.1780
  150SAPE   H6R16604   1.122   6.764   9.975  1.9898 -1.4990  1.2746
  150SAPE   C2716605   0.942   6.666   9.928  0.0479  0.0457  0.5552
  150SAPE   H7R16606   0.836   6.688   9.955  0.0278 -0.7947  1.2007
  150SAPE   H7S16607   0.952   6.556   9.936  0.3994 -0.3323 -3.2456
  150SAPE   C2816608   0.979   6.708   9.787  0.7490 -0.1878 -0.3210
  150SAPE   H8R16609   1.082   6.744   9.770  0.8078 -0.1385  0.1359
  150SAPE   C2916610   0.890   6.701   9.689 -0.3254  0.1030  0.1242
  150SAPE   H9R16611   0.928   6.732   9.591  0.1898 -0.9628 -0.0341
  150SAPE  C21016612   0.742   6.658   9.686 -0.6844 -0.2393  0.8634
  150SAPE  H10R16613   0.695   6.651   9.787  0.7003  1.9286  1.7474
  150SAPE  H10S16614   0.744   6.552   9.654 -1.5429  0.5956 -2.3333
  150SAPE  C21116615   0.668   6.738   9.587  0.4612 -0.2075  0.1954
  150SAPE  H11R16616   0.600   6.818   9.618 -0.6708 -0.6867 -0.9735
  150SAPE  C21216617   0.659   6.716   9.456 -0.7030 -0.0367  0.6412
  150SAPE  H12R16618   0.593   6.778   9.393  0.6871 -0.3522 -1.2381
  150SAPE  C21316619   0.724   6.594   9.383  0.4753 -0.6464  0.0719
  150SAPE  H13R16620   0.640   6.527   9.355 -0.3813  0.5180 -0.2197
  150SAPE  H13S16621   0.791   6.529   9.443 -0.8660 -1.1880  1.0506
  150SAPE  C21416622   0.779   6.636   9.248  0.2790  0.0378  0.4052
  150SAPE  H14R16623   0.888   6.647   9.252  0.5124 -1.4248 -0.8279
  150SAPE  C21516624   0.716   6.661   9.130  0.0910  0.1488  0.1410
  150SAPE  H15R16625   0.775   6.705   9.048 -0.3219 -0.1838 -0.3516
  150SAPE  C21616626   0.571   6.658   9.104  0.3325 -0.3210 -0.3559
  150SAPE  H16R16627   0.516   6.623   9.193 -1.6635  1.1762 -0.9405
  150SAPE  H16S16628   0.547   6.599   9.013 -0.3235 -0.4109 -0.1263
  150SAPE  C21716629   0.510   6.799   9.097 -1.0741 -0.8348  0.8211
  150SAPE  H17R16630   0.532   6.860   9.186  1.5671  0.2445 -0.4823
  150SAPE  H17S16631   0.400   6.789   9.082 -1.3555  1.7517  0.7946
  150SAPE  C21816632   0.558   6.881   8.969 -0.1382 -0.5454 -0.1940
  150SAPE  H18R16633   0.535   6.825   8.876 -2.0066  0.3689 -0.3129
  150SAPE  H18S16634   0.669   6.895   8.973 -0.2077  0.1396 -0.4631
  150SAPE  C21916635   0.487   7.018   8.952 -0.9147  0.3626 -0.2531
  150SAPE  H19R16636   0.384   6.989   8.922  0.0118 -2.1685 -1.2199
  150SAPE  H19S16637   0.536   7.063   8.863 -0.9725  1.4007  0.2154
  150SAPE  C22016638   0.495   7.109   9.077  0.2751 -0.0382  0.2945
  150SAPE  H20R16639   0.435   7.061   9.157 -0.1299 -1.9409 -1.0885
  150SAPE  H20S16640   0.458   7.212   9.055 -0.7142 -0.1921  1.1725
  150SAPE  H20T16641   0.588   7.107   9.137 -1.1453  1.5549  2.7298
  150SAPE   C3316642   0.312   6.221  10.275  0.4509  0.6267  0.0184
  150SAPE   H3X16643   0.374   6.303  10.234  1.1113  1.6322  2.8086
  150SAPE   H3Y16644   0.209   6.262  10.281  0.5876  1.7255 -3.0092
  150SAPE   C3416645   0.314   6.093  10.196  0.2001  0.4080  0.2573
  150SAPE   H4X16646   0.245   6.017  10.238  1.2051 -1.1749 -0.8322
  150SAPE   H4Y16647   0.417   6.052  10.198 -1.0621 -3.1565  1.7192
  150SAPE   C3516648   0.293   6.113  10.047  0.3400 -0.0228  0.2691
  150SAPE   H5X16649   0.375   6.181  10.013  1.8698 -1.0794  1.7278
  150SAPE   H5Y16650   0.195   6.165  10.037  0.7291  1.0752  1.9021
  150SAPE   C3616651   0.284   5.990   9.959 -0.5082 -0.5425  0.0579
  150SAPE   H6X16652   0.204   5.921   9.994 -1.2717  0.2694 -0.0755
  150SAPE   H6Y16653   0.378   5.932   9.974 -0.5424 -0.7194 -0.3857
  150SAPE   C3716654   0.255   6.025   9.810  0.3541  0.2865  0.3468
  150SAPE   H7X16655   0.338   6.091   9.774  1.1019 -0.6388  0.3204
  150SAPE   H7Y16656   0.164   6.089   9.809 -0.2626 -0.4509  3.0683
  150SAPE   C3816657   0.239   5.905   9.732  0.2909 -0.3489  0.3463
  150SAPE   H8X16658   0.191   5.832   9.801  0.1077  0.5889  1.2337
  150SAPE   H8Y16659   0.332   5.855   9.698 -0.0208 -0.0929 -0.9338
  150SAPE   C3916660   0.147   5.911   9.610 -0.4007  0.0927 -0.8105
  150SAPE   H9X16661   0.046   5.933   9.651 -0.0761 -0.5665  0.3948
  150SAPE   H9Y16662   0.148   5.813   9.557 -1.6232 -0.8888  0.8870
  150SAPE  C31016663   0.191   6.025   9.518  0.2312 -0.5640  0.1173
  150SAPE  H10X16664   0.210   6.121   9.570 -0.9872 -0.5112  0.4947
  150SAPE  H10Y16665   0.106   6.059   9.455 -0.4550 -1.0864  0.7571
  150SAPE  C31116666   0.306   5.994   9.422  0.0915 -0.0186 -0.4762
  150SAPE  H11X16667   0.271   5.908   9.362 -0.4753  0.8358 -1.4048
  150SAPE  H11Y16668   0.394   5.962   9.482  0.6814  2.8010  0.3436
  150SAPE  C31216669   0.352   6.101   9.318  0.0483  0.1835 -0.1525
  150SAPE  H12X16670   0.449   6.073   9.272 -0.8327 -1.4381 -1.1381
  150SAPE  H12Y16671   0.377   6.200   9.362  1.4589 -0.4002  0.4270
  150SAPE  C31316672   0.248   6.111   9.207  0.4472 -0.4813  0.3584
  150SAPE  H13X16673   0.158   6.160   9.250 -0.0530  1.8092 -2.9427
  150SAPE  H13Y16674   0.220   6.011   9.166 -0.3489 -0.6092  1.1706
  150SAPE  C31416675   0.296   6.208   9.098 -0.3976  0.4539  0.0005
  150SAPE  H14X16676   0.407   6.204   9.093 -0.3642  1.7737 -0.7139
  150SAPE  H14Y16677   0.276   6.314   9.124 -1.9189  0.2151 -0.0999
  150SAPE  C31516678   0.233   6.173   8.963 -0.0163  1.2842  1.2242
  150SAPE  H15X16679   0.132   6.143   8.996 -0.1600 -0.1894 -0.3683
  150SAPE  H15Y16680   0.269   6.081   8.911 -3.5712  0.3087  0.2052
  150SAPE  C31616681   0.217   6.298   8.869 -0.3365 -0.4134 -0.1858
  150SAPE  H16X16682   0.145   6.370   8.914 -0.4596 -0.6080 -0.0707
  150SAPE  H16Y16683   0.173   6.261   8.774  2.1685 -0.8477 -1.2674
  150SAPE  C31716684   0.351   6.370   8.839 -1.1772 -0.1683  0.5864
  150SAPE  H17X16685   0.397   6.311   8.757  1.2379  1.4821  0.6603
  150SAPE  H17Y16686   0.429   6.354   8.916 -0.1682 -2.2344 -0.7738
  150SAPE  C31816687   0.332   6.519   8.794  0.2032  0.5709  0.2191
  150SAPE  H18X16688   0.291   6.522   8.690  0.8236  0.6668 -0.0290
  150SAPE  H18Y16689   0.436   6.557   8.804  0.9323 -1.2400  0.0169
  150SAPE  H18Z16690   0.269   6.578   8.863 -2.0383 -0.2302 -1.0575
  151SAPE     N16691   1.571   4.666  10.603  0.2938 -0.6521  0.4200
  151SAPE   HN116692   1.495   4.597  10.583  0.8050 -1.1663  0.2335
  151SAPE   HN216693   1.642   4.663  10.528 -0.0579 -0.3505  0.0758
  151SAPE   HN316694   1.624   4.633  10.686  0.1723 -2.5549 -0.2095
  151SAPE   C1216695   1.512   4.808  10.591 -0.3762  0.2707 -0.9453
  151SAPE  H12A16696   1.591   4.878  10.624 -0.6134  0.3336 -0.5112
  151SAPE  H12B16697   1.433   4.806  10.669  2.3729 -1.5514  2.0690
  151SAPE   C1116698   1.467   4.832  10.441  0.4029  0.4184 -0.7522
  151SAPE  H11A16699   1.558   4.823  10.379  1.7982 -0.5255  1.2937
  151SAPE  H11B16700   1.441   4.939  10.427  0.4536  0.8047  1.6966
  151SAPE     P16701   1.215   4.774  10.367  0.1474 -0.0820  0.1468
  151SAPE   O1316702   1.147   4.657  10.319 -0.0110  0.5109 -0.6473
  151SAPE   O1416703   1.157   4.829  10.493  0.1028  0.0170 -0.2241
  151SAPE   O1216704   1.364   4.741  10.397  0.3140  0.3612 -0.1446
  151SAPE   O1116705   1.232   4.880  10.252 -0.0363  0.0011 -0.2867
  151SAPE    C116706   1.329   4.870  10.151  0.3352 -0.0970  0.0161
  151SAPE    HA16707   1.420   4.923  10.186  0.4268 -0.1660 -0.1160
  151SAPE    HB16708   1.353   4.768  10.114 -0.6367 -0.0530 -0.7815
  151SAPE    C216709   1.270   4.946  10.033 -0.7718  0.0569 -0.7204
  151SAPE    HS16710   1.163   4.918  10.034 -1.0030  0.8904  0.7333
  151SAPE   O2116711   1.342   4.914   9.915  0.6220 -0.5928  0.0496
  151SAPE   C2116712   1.298   4.802   9.858  0.0069  0.3453 -0.7136
  151SAPE   O2216713   1.219   4.723   9.911  0.6145 -0.0502  0.3743
  151SAPE   C2216714   1.373   4.792   9.722  0.3616  0.2386  0.0853
  151SAPE   H2R16715   1.407   4.893   9.692  2.3582 -0.2915  0.4051
  151SAPE   H2S16716   1.465   4.735   9.746  0.6810  0.8104  0.2276
  151SAPE    C316717   1.272   5.100  10.053 -0.0307 -0.3988 -0.3044
  151SAPE    HX16718   1.378   5.122  10.077  0.3230 -0.0650 -2.0482
  151SAPE    HY16719   1.209   5.132  10.139 -0.5581 -2.5138  0.1493
  151SAPE   O3116720   1.246   5.171   9.934  1.0084 -0.0945  0.4380
  151SAPE   C3116721   1.119   5.194   9.896 -0.3523  0.2684  0.3485
  151SAPE   O3216722   1.024   5.168   9.965  0.5033  0.2107 -0.3948
  151SAPE   C3216723   1.113   5.265   9.758  0.2593  0.4213 -0.0579
  151SAPE   H2X16724   1.140   5.190   9.681  0.5581 -0.6164  1.0420
  151SAPE   H2Y16725   1.189   5.344   9.744 -0.5868  1.0372 -1.4313
  151SAPE   C2316726   1.273   4.722   9.629 -0.5100 -0.1444 -0.2129
  151SAPE   H3R16727   1.196   4.664   9.684  2.3513 -2.2775  1.7694
  151SAPE   H3S16728   1.329   4.649   9.567  0.5921  2.4289 -2.4532
  151SAPE   C2416729   1.195   4.819   9.536 -0.5579  0.0542  0.2337
  151SAPE   H4R16730   1.132   4.879   9.605 -3.3306 -2.8596  0.4976
  151SAPE   H4S16731   1.119   4.754   9.486  0.3567  0.5701 -1.9321
  151SAPE   C2516732   1.261   4.909   9.438  0.3460 -0.6160 -0.3347
  151SAPE   H5R16733   1.288   5.009   9.475 -1.3147  0.2530 -1.3156
  151SAPE   C2616734   1.293   4.869   9.311 -0.0389  0.5379  0.3159
  151SAPE   H6R16735   1.364   4.931   9.254  0.6838  2.7089  3.3278
  151SAPE   C2716736   1.260   4.733   9.250 -0.4887  1.0060 -0.5384
  151SAPE   H7R16737   1.197   4.672   9.318 -0.1019 -0.5889 -1.5432
  151SAPE   H7S16738   1.350   4.667   9.259 -1.3428 -0.0139  0.9390
  151SAPE   C2816739   1.202   4.726   9.111 -0.2679 -0.2768  0.1227
  151SAPE   H8R16740   1.095   4.700   9.112  0.1558 -2.5009  3.2613
  151SAPE   C2916741   1.260   4.756   8.993  0.7411  0.5813 -0.8257
  151SAPE   H9R16742   1.194   4.734   8.907  3.0067 -3.9958 -1.7334
  151SAPE  C21016743   1.402   4.806   8.972 -0.5298  0.8996  0.1405
  151SAPE  H10R16744   1.461   4.728   9.026 -1.9352 -1.6546 -1.7866
  151SAPE  H10S16745   1.416   4.910   9.006 -2.9563  1.1903  0.4101
  151SAPE  C21116746   1.442   4.793   8.826 -0.2070  0.6789 -0.3577
  151SAPE  H11R16747   1.521   4.723   8.797  0.1362  0.2283  1.5226
  151SAPE  C21216748   1.389   4.865   8.722 -0.3793 -0.1682  0.1854
  151SAPE  H12R16749   1.423   4.836   8.622  1.3919  0.7451  0.4798
  151SAPE  C21316750   1.279   4.969   8.728 -0.2036  0.2742  0.4159
  151SAPE  H13R16751   1.330   5.065   8.750 -2.9117  1.6786  0.9523
  151SAPE  H13S16752   1.211   4.957   8.814 -0.0087  0.6146  0.6152
  151SAPE  C21416753   1.202   4.973   8.600  0.1564  0.4409  0.3562
  151SAPE  H14R16754   1.240   5.045   8.526  2.2052 -0.9949 -0.0403
  151SAPE  C21516755   1.099   4.890   8.557  0.6968 -0.1392 -0.4197
  151SAPE  H15R16756   1.052   4.905   8.459  0.5395 -2.3684 -0.7312
  151SAPE  C21616757   1.039   4.773   8.645 -0.0859  0.5056 -0.1714
  151SAPE  H16R16758   0.930   4.757   8.637  0.2407 -1.9894 -0.4727
  151SAPE  H16S16759   1.066   4.783   8.752 -1.8578  0.8820  0.2777
  151SAPE  C21716760   1.094   4.633   8.608  0.4104  0.7312 -0.0725
  151SAPE  H17R16761   1.205   4.620   8.614  0.5057 -1.9728 -3.9126
  151SAPE  H17S16762   1.073   4.614   8.501  1.9777 -0.1639 -0.2561
  151SAPE  C21816763   1.021   4.519   8.687  0.2101 -0.5751 -0.1808
  151SAPE  H18R16764   0.916   4.554   8.695  1.1698  2.5217  0.4528
  151SAPE  H18S16765   1.068   4.539   8.786 -1.7301 -0.1928  0.7061
  151SAPE  C21916766   1.034   4.376   8.645 -0.8472  0.9779  0.4249
  151SAPE  H19R16767   1.136   4.344   8.674 -1.7887 -0.7676  2.0340
  151SAPE  H19S16768   1.022   4.372   8.535 -0.6379  0.9184  0.4053
  151SAPE  C22016769   0.932   4.283   8.715  0.4507 -0.2791  0.4515
  151SAPE  H20R16770   0.888   4.212   8.642  1.1969 -0.5304  0.2368
  151SAPE  H20S16771   0.850   4.340   8.762  1.2802  1.9305 -0.6411
  151SAPE  H20T16772   0.991   4.222   8.786  1.6406 -0.8807 -0.9886
  151SAPE   C3316773   0.967   5.320   9.732  0.4829  0.1434  0.4193
  151SAPE   H3X16774   0.980   5.383   9.641  1.9793 -3.2094 -1.8727
  151SAPE   H3Y16775   0.923   5.371   9.820 -0.4407 -1.7190  1.0739
  151SAPE   C3416776   0.870   5.217   9.670  0.1903  0.7325 -0.0815
  151SAPE   H4X16777   0.778   5.277   9.650  0.0138 -0.1886 -2.3723
  151SAPE   H4Y16778   0.832   5.137   9.737 -0.5211 -0.4642 -1.8327
  151SAPE   C3516779   0.908   5.133   9.545  0.2937 -1.0412  0.1272
  151SAPE   H5X16780   0.821   5.072   9.514 -0.4700  2.0626 -4.9015
  151SAPE   H5Y16781   0.980   5.055   9.578  0.1993 -1.1608  0.0545
  151SAPE   C3616782   0.932   5.198   9.410  0.5934  0.4345 -0.5403
  151SAPE   H6X16783   0.988   5.130   9.341 -2.5176 -1.3367 -1.5266
  151SAPE   H6Y16784   0.996   5.288   9.421  0.2895  0.6647 -0.6559
  151SAPE   C3716785   0.795   5.242   9.347 -0.4835  0.3839  0.4033
  151SAPE   H7X16786   0.747   5.315   9.415  0.4140  0.6650  0.7477
  151SAPE   H7Y16787   0.724   5.158   9.331 -0.5208  0.2782  1.1069
  151SAPE   C3816788   0.816   5.323   9.222 -0.2350 -0.4456  0.4918
  151SAPE   H8X16789   0.720   5.329   9.168  0.2295  0.2557 -0.2753
  151SAPE   H8Y16790   0.894   5.286   9.152 -0.7149  1.4945 -1.1417
  151SAPE   C3916791   0.852   5.475   9.242  0.5747 -0.5328 -0.2139
  151SAPE   H9X16792   0.926   5.480   9.325  0.6926 -0.8996 -0.2992
  151SAPE   H9Y16793   0.771   5.549   9.258  1.7735  0.7203  0.2452
  151SAPE  C31016794   0.917   5.530   9.115 -0.9777  0.4591  0.4956
  151SAPE  H10X16795   0.838   5.552   9.040 -0.4944  3.8571  0.7864
  151SAPE  H10Y16796   0.994   5.468   9.065  2.5251  3.0716  2.1459
  151SAPE  C31116797   0.999   5.655   9.141  0.2925  0.6119  0.0787
  151SAPE  H11X16798   1.054   5.652   9.238 -0.6715  0.7418  0.6437
  151SAPE  H11Y16799   0.922   5.734   9.146 -1.4822 -1.0794  1.2424
  151SAPE  C31216800   1.108   5.693   9.040 -0.1134 -0.1265  0.0954
  151SAPE  H12X16801   1.186   5.615   9.024  0.3616  0.4070 -0.2301
  151SAPE  H12Y16802   1.155   5.788   9.072  2.5429 -1.7286  1.3212
  151SAPE  C31316803   1.034   5.720   8.906  0.2299 -1.0703  0.0906
  151SAPE  H13X16804   0.956   5.794   8.932  0.8606 -0.3312 -0.0780
  151SAPE  H13Y16805   0.966   5.641   8.867 -3.7935  0.6830  2.8458
  151SAPE  C31416806   1.125   5.800   8.796  0.5850  0.2763 -0.0961
  151SAPE  H14X16807   1.152   5.903   8.829  0.0596  0.9107 -1.5689
  151SAPE  H14Y16808   1.072   5.812   8.700  2.0940  1.8924 -0.7818
  151SAPE  C31516809   1.247   5.725   8.750 -0.2159 -0.0800  0.1467
  151SAPE  H15X16810   1.208   5.627   8.717 -1.4256  0.4373 -0.0119
  151SAPE  H15Y16811   1.323   5.714   8.830 -0.0623  0.2102  0.0429
  151SAPE  C31616812   1.313   5.802   8.629 -0.6211  0.6054  0.6022
  151SAPE  H16X16813   1.353   5.899   8.665  1.3446 -0.8956  2.7815
  151SAPE  H16Y16814   1.239   5.816   8.547  0.1311  0.7844 -0.0582
  151SAPE  C31716815   1.438   5.723   8.586 -0.5073 -0.2749  0.7404
  151SAPE  H17X16816   1.406   5.623   8.550 -1.1087  0.2755 -0.3013
  151SAPE  H17Y16817   1.490   5.701   8.681 -0.4210 -1.8141  0.3634
  151SAPE  C31816818   1.523   5.789   8.478 -0.5113 -0.7195  0.0796
  151SAPE  H18X16819   1.484   5.799   8.374 -2.2804  1.8205  0.8872
  151SAPE  H18Y16820   1.625   5.748   8.464  0.3625  1.4909 -0.5719
  151SAPE  H18Z16821   1.541   5.892   8.516 -0.4925 -1.1973  1.4164
  152SAPE     N16822   1.627   3.522  10.737  0.4458  0.6023  0.2394
  152SAPE   HN116823   1.532   3.531  10.697  0.3731  0.2389  0.3240
  152SAPE   HN216824   1.632   3.432  10.791 -2.4479  0.7542  0.9404
  152SAPE   HN316825   1.650   3.592  10.811  1.9393 -1.3965  1.8086
  152SAPE   C1216826   1.716   3.508  10.613 -0.1656  1.0274  0.2964
  152SAPE  H12A16827   1.664   3.437  10.545 -2.7453  0.5369  2.5759
  152SAPE  H12B16828   1.810   3.463  10.652  0.0366  0.3387 -0.9441
  152SAPE   C1116829   1.739   3.639  10.534  0.4034  0.4594  0.9483
  152SAPE  H11A16830   1.635   3.662  10.502  1.2128  1.5462 -1.1244
  152SAPE  H11B16831   1.801   3.615  10.445  0.3821 -1.4960  1.4087
  152SAPE     P16832   1.864   3.875  10.557  0.0019 -0.5355  0.0217
  152SAPE   O1316833   1.768   3.954  10.478  0.2985 -0.4232  0.0185
  152SAPE   O1416834   1.941   3.951  10.664  0.0187 -0.1807  0.3156
  152SAPE   O1216835   1.798   3.737  10.619  0.1658 -0.0962  0.1274
  152SAPE   O1116836   1.972   3.804  10.467 -0.5165 -0.2359  0.2156
  152SAPE    C116837   2.015   3.865  10.345  0.0021  0.2344 -0.1229
  152SAPE    HA16838   1.980   3.969  10.327  0.8937  0.4065 -0.8798
  152SAPE    HB16839   2.125   3.857  10.348 -0.0948 -1.0001  1.4642
  152SAPE    C216840   1.969   3.780  10.215 -0.6215 -0.4288 -0.3936
  152SAPE    HS16841   2.029   3.804  10.125 -1.3707 -1.2990 -1.1442
  152SAPE   O2116842   1.823   3.803  10.191  0.5625  0.0050  0.2873
  152SAPE   C2116843   1.796   3.927  10.146  0.2296  0.4035 -0.3846
  152SAPE   O2216844   1.876   4.017  10.126  0.1421  0.0192 -0.1606
  152SAPE   C2216845   1.652   3.935  10.104 -0.0816  0.4229  0.0311
  152SAPE   H2R16846   1.588   3.959  10.192  0.1636  1.3987 -0.0485
  152SAPE   H2S16847   1.642   4.029  10.044 -0.5928 -1.3915 -2.9286
  152SAPE    C316848   1.994   3.624  10.220 -0.5652 -0.4750 -0.1533
  152SAPE    HX16849   1.928   3.570  10.291  0.1051  0.1529  0.9749
  152SAPE    HY16850   2.086   3.618  10.282 -0.4140 -0.2154 -0.3466
  152SAPE   O3116851   2.011   3.569  10.084 -0.4634  0.1271  0.6263
  152SAPE   C3116852   1.902   3.528  10.027 -0.9607  0.1074 -0.5043
  152SAPE   O3216853   1.792   3.516  10.071 -0.4834 -0.5696 -0.0398
  152SAPE   C3216854   1.946   3.499   9.875  0.2043 -0.0701 -0.1023
  152SAPE   H2X16855   2.050   3.461   9.867  1.0378  2.0051  0.2622
  152SAPE   H2Y16856   1.947   3.603   9.837  3.7966  0.0594  0.0673
  152SAPE   C2316857   1.604   3.822  10.021  0.6195  0.2968  0.2462
  152SAPE   H3R16858   1.497   3.806  10.045  0.8271 -1.0922  0.3232
  152SAPE   H3S16859   1.651   3.724  10.042 -0.0873 -0.3154 -0.9174
  152SAPE   C2416860   1.618   3.851   9.870 -0.4549 -0.6208  0.9153
  152SAPE   H4R16861   1.724   3.843   9.840 -1.7144 -0.3373 -4.6940
  152SAPE   H4S16862   1.588   3.950   9.829 -0.4621 -0.9117  0.2119
  152SAPE   C2516863   1.539   3.743   9.796 -0.7191  0.9010 -0.2831
  152SAPE   H5R16864   1.471   3.682   9.858  2.5386 -0.4046  2.2617
  152SAPE   C2616865   1.567   3.700   9.677  0.8615 -0.7663  0.4983
  152SAPE   H6R16866   1.522   3.603   9.651  2.3128 -1.9635  2.1178
  152SAPE   C2716867   1.667   3.765   9.583 -0.4002 -0.0975  0.6398
  152SAPE   H7R16868   1.732   3.682   9.548 -0.6416 -0.5885  1.3454
  152SAPE   H7S16869   1.732   3.838   9.635  4.2985 -2.9319 -0.6786
  152SAPE   C2816870   1.596   3.828   9.460 -0.5587 -0.5910 -0.5848
  152SAPE   H8R16871   1.534   3.755   9.406  0.0431  0.2419 -2.4819
  152SAPE   C2916872   1.613   3.950   9.413 -0.4561  0.1716  0.3669
  152SAPE   H9R16873   1.575   3.976   9.313 -2.7159  0.4150  1.2246
  152SAPE  C21016874   1.705   4.054   9.476  0.1606  0.2236  0.4548
  152SAPE  H10R16875   1.779   4.077   9.397 -1.0237  1.4571 -0.3409
  152SAPE  H10S16876   1.772   4.022   9.558 -0.7813 -1.5931  0.5828
  152SAPE  C21116877   1.627   4.179   9.505  0.4895 -0.1290 -0.4388
  152SAPE  H11R16878   1.569   4.168   9.598  0.3722  0.7346 -0.4076
  152SAPE  C21216879   1.628   4.286   9.427  0.7119  0.1301 -0.6924
  152SAPE  H12R16880   1.583   4.379   9.464  0.5339 -1.2310  2.9211
  152SAPE  C21316881   1.713   4.309   9.304  0.1921  0.2206  0.3502
  152SAPE  H13R16882   1.713   4.221   9.237 -0.6747 -0.0442  0.6818
  152SAPE  H13S16883   1.819   4.319   9.336  0.5954 -0.6485 -0.6415
  152SAPE  C21416884   1.667   4.429   9.226  0.3151 -0.3510  0.4000
  152SAPE  H14R16885   1.605   4.405   9.139  1.6187 -1.0467 -0.3673
  152SAPE  C21516886   1.717   4.552   9.225 -0.3287  0.0650  0.6056
  152SAPE  H15R16887   1.664   4.633   9.175 -0.9116 -0.9491 -0.4703
  152SAPE  C21616888   1.824   4.606   9.311 -0.1782  0.4716 -0.6170
  152SAPE  H16R16889   1.864   4.702   9.273 -1.0031  1.5835  1.2052
  152SAPE  H16S16890   1.904   4.529   9.321 -1.8846 -1.3198 -0.3021
  152SAPE  C21716891   1.784   4.641   9.458 -0.1146 -0.0166 -0.7256
  152SAPE  H17R16892   1.718   4.559   9.495 -1.4682  1.6731  0.8407
  152SAPE  H17S16893   1.721   4.732   9.460  0.4453  0.3952 -1.4917
  152SAPE  C21816894   1.896   4.643   9.557 -0.4127 -0.4484 -0.5941
  152SAPE  H18R16895   1.964   4.724   9.523 -3.3489  2.6171  0.2907
  152SAPE  H18S16896   1.955   4.549   9.564  2.0055  1.0856  4.9187
  152SAPE  C21916897   1.841   4.679   9.697 -0.0842  0.0307  0.7727
  152SAPE  H19R16898   1.759   4.614   9.735  0.8490 -0.6707  1.6665
  152SAPE  H19S16899   1.798   4.781   9.692 -0.0970  0.0091  0.4421
  152SAPE  C22016900   1.961   4.676   9.796  0.4954  0.3671 -0.1667
  152SAPE  H20R16901   2.040   4.740   9.751 -0.6646  0.1684 -2.6770
  152SAPE  H20S16902   2.018   4.581   9.792 -0.2827 -0.1271  0.1796
  152SAPE  H20T16903   1.933   4.711   9.898  1.1332 -0.9811  0.4962
  152SAPE   C3316904   1.850   3.408   9.809  0.7123  0.4058  0.3145
  152SAPE   H3X16905   1.746   3.446   9.807  0.8024  0.6535  0.2539
  152SAPE   H3Y16906   1.838   3.311   9.862  1.3861  1.0389  1.6763
  152SAPE   C3416907   1.886   3.376   9.663  0.4120  0.1273  0.4442
  152SAPE   H4X16908   1.979   3.314   9.662 -0.4760 -1.2481  0.1642
  152SAPE   H4Y16909   1.912   3.467   9.606  1.5450 -0.9149 -0.7874
  152SAPE   C3516910   1.781   3.305   9.573 -0.3194 -0.3056  0.1385
  152SAPE   H5X16911   1.680   3.352   9.578 -0.6111 -0.4728 -2.6260
  152SAPE   H5Y16912   1.769   3.201   9.612  0.7763 -0.2529  0.6468
  152SAPE   C3616913   1.798   3.312   9.422 -0.2279  0.1578  0.3443
  152SAPE   H6X16914   1.903   3.302   9.390 -0.3963 -1.0412  0.1174
  152SAPE   H6Y16915   1.771   3.409   9.377 -0.8398 -1.3350 -2.7854
  152SAPE   C3716916   1.712   3.218   9.342  0.3647  0.2576 -0.6416
  152SAPE   H7X16917   1.606   3.251   9.354  0.4025  0.1811 -0.0962
  152SAPE   H7Y16918   1.704   3.114   9.378 -1.2954 -0.0675 -1.8354
  152SAPE   C3816919   1.756   3.209   9.191  0.0489  0.7220 -0.0904
  152SAPE   H8X16920   1.760   3.103   9.157 -0.4259  0.6654  0.0307
  152SAPE   H8Y16921   1.863   3.238   9.184 -0.2361  1.4313 -2.0260
  152SAPE   C3916922   1.665   3.281   9.091  0.1590  0.2269 -0.5442
  152SAPE   H9X16923   1.650   3.384   9.131  1.3912  1.5921 -3.2896
  152SAPE   H9Y16924   1.564   3.237   9.080  0.7415 -0.6674 -3.1411
  152SAPE  C31016925   1.734   3.316   8.955  0.1914  0.3185 -0.0132
  152SAPE  H10X16926   1.756   3.222   8.900  0.5280  0.2767  0.1920
  152SAPE  H10Y16927   1.823   3.376   8.985 -2.3138  3.7244  1.3083
  152SAPE  C31116928   1.636   3.405   8.875 -0.0557  0.1570 -0.1172
  152SAPE  H11X16929   1.621   3.503   8.923 -3.4154  0.1593 -0.9126
  152SAPE  H11Y16930   1.536   3.356   8.876  0.1112 -0.1816  0.2634
  152SAPE  C31216931   1.696   3.448   8.742 -0.2496  0.3287 -0.2696
  152SAPE  H12X16932   1.701   3.358   8.676  0.0449 -1.1235  1.6582
  152SAPE  H12Y16933   1.798   3.489   8.756 -1.4881  3.9131 -0.7717
  152SAPE  C31316934   1.612   3.547   8.661 -0.6431 -0.1232  0.8370
  152SAPE  H13X16935   1.661   3.588   8.570 -1.3766  0.5655  0.7378
  152SAPE  H13Y16936   1.588   3.636   8.724  0.5126 -0.4984  1.8402
  152SAPE  C31416937   1.474   3.486   8.613 -0.8463  0.1040 -0.2505
  152SAPE  H14X16938   1.439   3.426   8.700  1.0564 -0.6926  0.0212
  152SAPE  H14Y16939   1.496   3.412   8.534  1.0484 -0.0896  0.3863
  152SAPE  C31516940   1.374   3.589   8.565 -0.6431  0.9994  0.2633
  152SAPE  H15X16941   1.423   3.670   8.507  0.5762  0.5370  0.6173
  152SAPE  H15Y16942   1.337   3.643   8.655 -0.3530  0.9698  0.4013
  152SAPE  C31616943   1.257   3.525   8.478  0.3281 -0.2441 -0.5645
  152SAPE  H16X16944   1.179   3.603   8.463 -1.1428 -1.3680  0.9492
  152SAPE  H16Y16945   1.208   3.440   8.529 -3.1012  0.8332 -1.7392
  152SAPE  C31716946   1.300   3.482   8.336 -0.0086 -0.1697 -0.0969
  152SAPE  H17X16947   1.373   3.398   8.342  2.4172  1.8382  0.1526
  152SAPE  H17Y16948   1.352   3.568   8.287 -1.2297  0.1345 -0.8939
  152SAPE  C31816949   1.174   3.440   8.260 -0.2696 -0.1502  0.5427
  152SAPE  H18X16950   1.192   3.407   8.155 -2.1663 -1.3822  0.5449
  152SAPE  H18Y16951   1.093   3.515   8.252 -2.9834 -2.8726  0.6701
  152SAPE  H18Z16952   1.122   3.354   8.307  1.0265 -1.3680 -0.1648
  153SAPE     N16953   6.024   0.304  10.582 -0.7418  0.1231  0.6961
  153SAPE   HN116954   5.946   0.358  10.626 -1.9426  0.1998 -1.4157
  153SAPE   HN216955   5.985   0.209  10.565 -1.2427  0.3703  0.4204
  153SAPE   HN316956   6.105   0.290  10.645  0.3683 -0.1783 -0.7518
  153SAPE   C1216957   6.087   0.377  10.466 -0.5040 -0.7219 -0.0033
  153SAPE  H12A16958   6.073   0.485  10.487 -1.2953 -0.8691  0.2691
  153SAPE  H12B16959   6.036   0.349  10.372 -2.9102 -0.4405  1.1505
  153SAPE   C1116960   6.232   0.334  10.454  0.2954  0.3233  0.0645
  153SAPE  H11A16961   6.297   0.377  10.375  1.0196  0.6984  0.8565
  153SAPE  H11B16962   6.222   0.228  10.421 -0.0529 -0.0453  1.3329
  153SAPE     P16963   6.323   0.476  10.667 -0.1207 -0.0016 -0.0696
  153SAPE   O1316964   6.191   0.524  10.705  0.3211 -0.3696 -1.0066
  153SAPE   O1416965   6.411   0.466  10.786  0.1878  0.5182 -0.7898
  153SAPE   O1216966   6.310   0.337  10.575 -0.4027 -0.2525  0.3004
  153SAPE   O1116967   6.380   0.581  10.563 -0.5845  0.0636  0.1042
  153SAPE    C116968   6.508   0.553  10.493  0.3885  0.2773  0.1552
  153SAPE    HA16969   6.585   0.591  10.563  2.3963 -2.3556 -0.4649
  153SAPE    HB16970   6.525   0.447  10.464 -0.1371  0.6137 -1.4568
  153SAPE    C216971   6.514   0.632  10.356 -0.5786  0.2194 -0.3633
  153SAPE    HS16972   6.483   0.735  10.384  0.3647 -0.0722  1.9440
  153SAPE   O2116973   6.430   0.574  10.259 -0.1267  0.3246  0.0039
  153SAPE   C2116974   6.368   0.651  10.167 -0.2905 -0.8924 -0.0376
  153SAPE   O2216975   6.385   0.773  10.167  0.0923 -0.0871  0.2860
  153SAPE   C2216976   6.275   0.567  10.074 -0.5265 -0.3430 -0.0289
  153SAPE   H2R16977   6.328   0.473  10.048 -1.0002 -0.4769 -0.5276
  153SAPE   H2S16978   6.192   0.536  10.141 -0.1314 -1.8954 -0.2363
  153SAPE    C316979   6.664   0.641  10.302  1.0612  0.3994 -0.3317
  153SAPE    HX16980   6.689   0.534  10.286  0.3525  0.1687  0.0879
  153SAPE    HY16981   6.727   0.685  10.382  1.0514  0.7594 -0.5220
  153SAPE   O3116982   6.677   0.711  10.178 -0.2425 -0.1810  0.4237
  153SAPE   C3116983   6.682   0.851  10.187 -0.5483  0.2312 -0.4468
  153SAPE   O3216984   6.675   0.911  10.290  0.3992  0.0824  0.7798
  153SAPE   C3216985   6.679   0.904  10.044 -0.0089 -0.7849  0.3653
  153SAPE   H2X16986   6.573   0.894  10.013 -0.4528  1.6027  0.8915
  153SAPE   H2Y16987   6.750   0.846   9.981  0.4177 -0.6472  0.7130
  153SAPE   C2316988   6.230   0.645   9.946 -0.0375 -0.4974  0.0107
  153SAPE   H3R16989   6.195   0.750   9.947  2.0186  0.2420 -0.3282
  153SAPE   H3S16990   6.147   0.579   9.914  1.7060 -2.0710 -1.4870
  153SAPE   C2416991   6.309   0.603   9.818  0.2695 -0.0257 -0.3135
  153SAPE   H4R16992   6.247   0.628   9.730 -0.5222 -0.4272  0.1137
  153SAPE   H4S16993   6.313   0.492   9.815 -1.1061 -0.1145  0.4427
  153SAPE   C2516994   6.446   0.666   9.814 -0.4057  0.5217  0.9480
  153SAPE   H5R16995   6.510   0.645   9.901  0.7335 -1.4234 -0.2760
  153SAPE   C2616996   6.501   0.735   9.711 -0.0049 -0.4544  0.6777
  153SAPE   H6R16997   6.602   0.776   9.727 -0.2651 -0.0131  1.2661
  153SAPE   C2716998   6.429   0.768   9.577 -0.0907 -0.1240 -0.0860
  153SAPE   H7R16999   6.388   0.871   9.580  0.2166 -0.0165  1.0858
  153SAPE   H7S17000   6.344   0.698   9.571  1.5813 -2.1666 -4.5041
  153SAPE   C2817001   6.516   0.753   9.456 -0.3217  0.0245 -0.4367
  153SAPE   H8R17002   6.594   0.675   9.459  1.2501  1.5625  0.0427
  153SAPE   C2917003   6.498   0.822   9.339  0.2757  0.0617  0.0082
  153SAPE   H9R17004   6.568   0.803   9.256 -0.4105  1.3806 -0.9059
  153SAPE  C21017005   6.400   0.916   9.288  0.4674  0.0806  0.4358
  153SAPE  H10R17006   6.326   0.951   9.364 -0.8212  2.6720 -1.8569
  153SAPE  H10S17007   6.331   0.869   9.214 -0.7484  0.5252  1.2477
  153SAPE  C21117008   6.462   1.038   9.229  0.3153 -0.2861  0.7455
  153SAPE  H11R17009   6.475   1.124   9.297 -1.5030  1.7350 -1.3060
  153SAPE  C21217010   6.520   1.053   9.111 -0.4083  0.2769  0.5206
  153SAPE  H12R17011   6.557   1.149   9.072 -0.0756 -0.7794 -1.9220
  153SAPE  C21317012   6.521   0.947   9.004 -0.4697  0.2331  0.0228
  153SAPE  H13R17013   6.438   0.874   9.019 -0.4900  0.7296  2.9314
  153SAPE  H13S17014   6.609   0.889   9.036  0.6629  1.3692 -0.9197
  153SAPE  C21417015   6.548   0.999   8.867 -0.2998  0.8062 -0.2942
  153SAPE  H14R17016   6.603   1.094   8.856 -0.3040  0.9605  0.9253
  153SAPE  C21517017   6.501   0.946   8.752  0.1365  0.4856  0.3408
  153SAPE  H15R17018   6.520   0.993   8.654 -0.2978  0.4953  0.2584
  153SAPE  C21617019   6.416   0.817   8.741 -0.2950  0.0583  0.0472
  153SAPE  H16R17020   6.428   0.751   8.829  1.5555 -0.0642 -0.2356
  153SAPE  H16S17021   6.478   0.752   8.675 -1.0214 -0.7779  0.1791
  153SAPE  C21717022   6.269   0.818   8.676  0.3877  0.6653  0.5377
  153SAPE  H17R17023   6.276   0.861   8.574  1.4898  0.2959  0.4414
  153SAPE  H17S17024   6.224   0.887   8.751  0.3237 -0.8491  1.9714
  153SAPE  C21817025   6.189   0.680   8.668 -0.2231 -0.8133 -0.1675
  153SAPE  H18R17026   6.254   0.608   8.613  1.6256 -1.6941  2.9288
  153SAPE  H18S17027   6.098   0.697   8.607  0.3248 -0.8979 -1.0194
  153SAPE  C21917028   6.163   0.617   8.806  0.2532  0.2978  0.2852
  153SAPE  H19R17029   6.086   0.680   8.855 -1.7112 -0.8639 -1.1805
  153SAPE  H19S17030   6.258   0.613   8.864 -0.2359  1.8638  1.2611
  153SAPE  C22017031   6.113   0.476   8.786 -0.6767 -0.5714 -0.0813
  153SAPE  H20R17032   6.108   0.412   8.876  1.0598 -0.4851  0.1047
  153SAPE  H20S17033   6.177   0.427   8.709  1.6268  1.9815  0.0436
  153SAPE  H20T17034   6.011   0.478   8.743 -0.5739  1.7521 -0.3141
  153SAPE   C3317035   6.692   1.055  10.033 -0.3380  0.6435  0.0256
  153SAPE   H3X17036   6.625   1.115  10.099 -1.3750  0.4255 -0.8203
  153SAPE   H3Y17037   6.663   1.079   9.929 -0.6699 -1.8643 -0.5155
  153SAPE   C3417038   6.836   1.107  10.050  0.4500 -0.0552 -0.2287
  153SAPE   H4X17039   6.868   1.085  10.155  0.0327  3.6047  0.7895
  153SAPE   H4Y17040   6.846   1.217  10.045 -1.3012  0.1985  1.0071
  153SAPE   C3517041   6.936   1.044   9.956 -0.9661  0.5347  0.0018
  153SAPE   H5X17042   6.937   0.934   9.971 -0.0341  0.8593  2.8061
  153SAPE   H5Y17043   7.039   1.069   9.988  1.0287 -0.7491 -4.5099
  153SAPE   C3617044   6.923   1.079   9.812  0.5911  0.1163 -0.1078
  153SAPE   H6X17045   7.021   1.091   9.761  2.2874 -1.7855  2.4721
  153SAPE   H6Y17046   6.881   1.181   9.798  0.5965  0.4282  1.8497
  153SAPE   C3717047   6.837   0.989   9.726  0.8063 -0.6425 -0.2888
  153SAPE   H7X17048   6.737   0.978   9.773  0.9024 -0.4000 -0.0294
  153SAPE   H7Y17049   6.890   0.892   9.719 -2.1333 -2.3644 -0.2839
  153SAPE   C3817050   6.819   1.034   9.578 -0.4661  0.6995  0.1930
  153SAPE   H8X17051   6.759   0.953   9.532 -0.6374  1.0234 -0.1529
  153SAPE   H8Y17052   6.915   1.031   9.523 -0.5527 -0.3963  0.0768
  153SAPE   C3917053   6.745   1.169   9.555 -0.3790  0.3924  0.1689
  153SAPE   H9X17054   6.802   1.245   9.611 -0.2412 -1.5044  2.8074
  153SAPE   H9Y17055   6.646   1.150   9.602  0.4649 -0.5497  1.6396
  153SAPE  C31017056   6.742   1.212   9.413  0.0976  0.3816 -0.3364
  153SAPE  H10X17057   6.700   1.136   9.343  1.1948  0.8206 -1.5268
  153SAPE  H10Y17058   6.834   1.260   9.374 -0.4979 -0.0965 -2.4935
  153SAPE  C31117059   6.636   1.320   9.395  0.1805 -0.2165 -0.0537
  153SAPE  H11X17060   6.659   1.407   9.461 -2.3224 -0.1093  0.7946
  153SAPE  H11Y17061   6.533   1.287   9.423  0.0304  0.2135 -0.0920
  153SAPE  C31217062   6.647   1.369   9.251 -0.0662 -0.6712  0.4343
  153SAPE  H12X17063   6.660   1.290   9.175  0.8000 -0.3175  0.2098
  153SAPE  H12Y17064   6.724   1.448   9.239  2.2501 -2.7889  0.7714
  153SAPE  C31317065   6.517   1.444   9.208 -0.0798 -0.1844 -0.7125
  153SAPE  H13X17066   6.490   1.516   9.288  1.2283  1.1648 -1.4276
  153SAPE  H13Y17067   6.432   1.374   9.198 -0.6433 -0.1609  2.7302
  153SAPE  C31417068   6.523   1.533   9.077 -0.0725  0.3382  0.1745
  153SAPE  H14X17069   6.617   1.593   9.077  0.6417 -0.6689  2.4609
  153SAPE  H14Y17070   6.434   1.597   9.094 -1.7561 -1.7442 -0.4368
  153SAPE  C31517071   6.498   1.452   8.949 -0.2481 -0.9558  0.4025
  153SAPE  H15X17072   6.430   1.371   8.984  1.4438 -1.6455  2.3050
  153SAPE  H15Y17073   6.592   1.401   8.920  0.9310  2.0762 -1.6487
  153SAPE  C31617074   6.443   1.536   8.836 -0.2556 -0.2660 -0.4261
  153SAPE  H16X17075   6.521   1.598   8.785  0.6736 -0.0369  1.1923
  153SAPE  H16Y17076   6.364   1.595   8.887  0.2465  1.2467 -1.2979
  153SAPE  C31717077   6.371   1.441   8.738  0.3076 -0.6199  0.2867
  153SAPE  H17X17078   6.314   1.501   8.664  0.7007  0.4643  0.8260
  153SAPE  H17Y17079   6.290   1.386   8.790 -0.7871  0.3505 -0.3389
  153SAPE  C31817080   6.465   1.349   8.673 -0.2245  0.2492 -0.4311
  153SAPE  H18X17081   6.409   1.274   8.613  0.6902 -1.2200  0.4886
  153SAPE  H18Y17082   6.530   1.291   8.742 -0.6750 -1.2154 -1.1932
  153SAPE  H18Z17083   6.527   1.402   8.597  0.5333 -0.4138 -0.2903
  154SAPE     N17084   3.748   5.533  10.905 -0.4921  0.2897  0.2536
  154SAPE   HN117085   3.697   5.591  10.836  0.2796 -1.4975 -1.9416
  154SAPE   HN217086   3.829   5.577  10.952  0.1733 -1.5144  0.9000
  154SAPE   HN317087   3.789   5.454  10.851  0.8179 -1.1035  3.0379
  154SAPE   C1217088   3.643   5.483  11.008  0.4556 -0.1918 -0.9303
  154SAPE  H12A17089   3.618   5.566  11.077 -0.8583 -1.0879 -0.2976
  154SAPE  H12B17090   3.690   5.397  11.062  3.3599  2.6378  1.4382
  154SAPE   C1117091   3.514   5.439  10.938  0.3152  0.5594  0.0172
  154SAPE  H11A17092   3.438   5.432  11.019  1.0155 -0.3746  0.6292
  154SAPE  H11B17093   3.525   5.335  10.900 -1.2519  0.2503  0.3665
  154SAPE     P17094   3.325   5.554  10.809 -0.4655  0.2746  0.0146
  154SAPE   O1317095   3.264   5.593  10.938  0.2625  0.6856  0.4182
  154SAPE   O1417096   3.305   5.653  10.701  0.3196  0.9123 -0.0139
  154SAPE   O1217097   3.477   5.527  10.832 -0.7016  0.4239  0.6311
  154SAPE   O1117098   3.253   5.425  10.758 -0.1229  0.0148 -0.1058
  154SAPE    C117099   3.306   5.316  10.695 -0.2356  0.6415 -0.7414
  154SAPE    HA17100   3.364   5.250  10.762  0.0776  0.4960 -1.1543
  154SAPE    HB17101   3.227   5.249  10.653  0.5372 -1.0381  0.3707
  154SAPE    C217102   3.396   5.354  10.571  0.8056 -0.6898 -0.0912
  154SAPE    HS17103   3.479   5.415  10.613  0.8711  0.4456 -1.7867
  154SAPE   O2117104   3.308   5.421  10.479  0.0288  0.0954  0.1400
  154SAPE   C2117105   3.351   5.533  10.413  0.6902  0.0710 -0.3688
  154SAPE   O2217106   3.459   5.580  10.437 -0.3866  0.4426  0.2079
  154SAPE   C2217107   3.242   5.583  10.309  0.4980  0.0609 -0.8406
  154SAPE   H2R17108   3.159   5.510  10.308  1.1791 -0.7219 -1.3759
  154SAPE   H2S17109   3.211   5.685  10.342  0.0240 -0.1182 -0.7298
  154SAPE    C317110   3.464   5.230  10.495  0.2222 -0.5092 -0.5338
  154SAPE    HX17111   3.375   5.174  10.458 -0.4522 -0.6817  1.2525
  154SAPE    HY17112   3.512   5.168  10.574  0.6753  0.6105  0.0964
  154SAPE   O3117113   3.548   5.260  10.383  0.3465 -0.6534  0.1265
  154SAPE   C3117114   3.674   5.231  10.403  0.1076 -0.5733  0.4586
  154SAPE   O3217115   3.728   5.196  10.509 -0.0617 -0.1523  0.6013
  154SAPE   C3217116   3.753   5.250  10.273  0.0390  0.3012 -0.2671
  154SAPE   H2X17117   3.797   5.352  10.278  0.8260  0.0399 -1.4282
  154SAPE   H2Y17118   3.692   5.250  10.180  2.1568 -0.0276 -1.7112
  154SAPE   C2317119   3.298   5.597  10.165 -0.2277  0.3404 -0.0692
  154SAPE   H3R17120   3.336   5.500  10.126  0.1842  0.2432  0.5712
  154SAPE   H3S17121   3.384   5.667  10.158  1.4661 -1.7062 -1.0831
  154SAPE   C2417122   3.190   5.636  10.059  0.3267 -0.4086 -0.1123
  154SAPE   H4R17123   3.230   5.676   9.964 -1.8104 -1.6152 -1.6023
  154SAPE   H4S17124   3.152   5.731  10.103  1.4144  0.2179 -0.5026
  154SAPE   C2517125   3.092   5.525  10.035  0.5477  1.2583 -0.1996
  154SAPE   H5R17126   3.022   5.508  10.117 -0.6672 -0.2295 -1.4875
  154SAPE   C2617127   3.070   5.454   9.918  0.3955  0.4702  0.1724
  154SAPE   H6R17128   2.988   5.381   9.914 -0.6961  1.6093  1.1420
  154SAPE   C2717129   3.138   5.471   9.782 -0.2790 -0.0873 -0.3391
  154SAPE   H7R17130   3.242   5.436   9.799  0.9428  3.2588 -0.1121
  154SAPE   H7S17131   3.124   5.580   9.763  0.2260  0.2653  1.1445
  154SAPE   C2817132   3.073   5.387   9.672  0.0997  0.0160 -0.2040
  154SAPE   H8R17133   3.017   5.300   9.711  0.9610  0.0146  1.0885
  154SAPE   C2917134   3.089   5.412   9.539 -0.9173 -0.3422 -0.1155
  154SAPE   H9R17135   3.030   5.347   9.472  0.8011  0.0240 -2.0813
  154SAPE  C21017136   3.173   5.515   9.468  1.2784  0.8427  0.1664
  154SAPE  H10R17137   3.250   5.551   9.539 -0.4352 -0.4656  2.8616
  154SAPE  H10S17138   3.106   5.603   9.461 -0.4777 -0.4472 -0.1612
  154SAPE  C21117139   3.222   5.462   9.336 -0.1450 -0.1226  0.8955
  154SAPE  H11R17140   3.206   5.356   9.313  1.7204 -0.0688 -0.8945
  154SAPE  C21217141   3.273   5.543   9.241  0.0983 -0.7160 -0.0921
  154SAPE  H12R17142   3.298   5.503   9.142 -1.0665 -0.1547 -0.6248
  154SAPE  C21317143   3.299   5.694   9.256 -0.6297  0.0600  0.2406
  154SAPE  H13R17144   3.409   5.710   9.248 -0.6963  1.9948  2.1243
  154SAPE  H13S17145   3.265   5.727   9.357  0.2991 -0.7363  0.8314
  154SAPE  C21417146   3.215   5.750   9.144  0.3713 -0.1158 -0.7652
  154SAPE  H14R17147   3.118   5.699   9.139  0.0113  0.3640  0.6670
  154SAPE  C21517148   3.243   5.853   9.067  0.2713  0.2689  0.4436
  154SAPE  H15R17149   3.169   5.883   8.991  1.2693 -1.7946 -1.4519
  154SAPE  C21617150   3.370   5.939   9.069  0.0565 -0.0092 -0.3775
  154SAPE  H16R17151   3.395   5.958   8.963  1.7253  0.0845  0.0123
  154SAPE  H16S17152   3.454   5.888   9.121  1.0348  2.3662  0.5142
  154SAPE  C21717153   3.361   6.073   9.153  0.2571 -0.2716  0.2078
  154SAPE  H17R17154   3.287   6.145   9.112  0.7519 -0.1243 -0.4576
  154SAPE  H17S17155   3.458   6.126   9.148  0.3002 -0.4396 -1.1254
  154SAPE  C21817156   3.327   6.047   9.305 -0.1373 -0.3904 -0.3473
  154SAPE  H18R17157   3.401   5.980   9.355  1.5390 -0.1772 -2.3975
  154SAPE  H18S17158   3.226   6.005   9.321  0.5958 -2.3642 -0.6291
  154SAPE  C21917159   3.327   6.175   9.394 -0.0148 -0.0707  0.4424
  154SAPE  H19R17160   3.271   6.259   9.348 -0.2648 -2.0611 -3.2788
  154SAPE  H19S17161   3.427   6.222   9.395 -0.9099  1.9673 -0.4485
  154SAPE  C22017162   3.285   6.141   9.547 -0.1666 -0.8180  0.8936
  154SAPE  H20R17163   3.350   6.059   9.585  3.2971  0.4443 -1.7267
  154SAPE  H20S17164   3.182   6.100   9.553 -0.1631 -0.5621  3.5695
  154SAPE  H20T17165   3.285   6.228   9.615 -0.6204  0.8392 -1.1296
  154SAPE   C3317166   3.874   5.153  10.254 -0.3251  0.0454 -0.2938
  154SAPE   H3X17167   3.859   5.053  10.300  0.1318  0.7593  1.5065
  154SAPE   H3Y17168   3.961   5.189  10.313 -1.2830  0.8426  0.6653
  154SAPE   C3417169   3.924   5.137  10.115  0.5481  0.5641 -0.2275
  154SAPE   H4X17170   3.844   5.073  10.073  0.7176 -2.3888  3.3917
  154SAPE   H4Y17171   4.023   5.086  10.109  0.7436  0.4932  2.3405
  154SAPE   C3517172   3.924   5.263  10.031  0.0736 -0.2825  0.4062
  154SAPE   H5X17173   3.964   5.351  10.086 -0.3999 -1.3490  2.6059
  154SAPE   H5Y17174   3.820   5.286   9.998  0.5556 -2.2612 -2.9051
  154SAPE   C3617175   4.019   5.243   9.909  0.1921 -0.1863  0.4727
  154SAPE   H6X17176   3.990   5.151   9.854 -0.0474 -1.5615  2.7738
  154SAPE   H6Y17177   4.118   5.220   9.953 -0.0721 -1.5932  0.3756
  154SAPE   C3717178   4.028   5.365   9.814 -0.3219  0.0747  0.3051
  154SAPE   H7X17179   4.108   5.428   9.858  0.4444 -0.4028 -0.3546
  154SAPE   H7Y17180   3.927   5.411   9.808 -0.6981 -0.9138 -2.8228
  154SAPE   C3817181   4.072   5.322   9.670 -0.3380  0.0542  0.0914
  154SAPE   H8X17182   3.988   5.263   9.628  1.3366 -1.9173 -0.6075
  154SAPE   H8Y17183   4.162   5.258   9.683  1.1306  2.2043  1.1822
  154SAPE   C3917184   4.116   5.434   9.569 -0.1326  0.5296 -0.1809
  154SAPE   H9X17185   4.221   5.467   9.587 -0.1948  0.6668 -0.0638
  154SAPE   H9Y17186   4.056   5.527   9.578 -0.2466  0.4187  0.1976
  154SAPE  C31017187   4.092   5.372   9.438  0.5914 -0.0968 -0.5125
  154SAPE  H10X17188   3.983   5.355   9.422  0.2888 -1.1627  2.1771
  154SAPE  H10Y17189   4.140   5.274   9.423  3.3544  1.1486 -0.3885
  154SAPE  C31117190   4.150   5.470   9.333  0.7393  0.2065 -0.1042
  154SAPE  H11X17191   4.260   5.471   9.342  0.8116 -0.4930 -0.8222
  154SAPE  H11Y17192   4.098   5.565   9.357 -0.9941 -0.3514 -1.4364
  154SAPE  C31217193   4.105   5.436   9.197 -0.3422  1.0209  0.3915
  154SAPE  H12X17194   3.996   5.413   9.195  0.1550 -1.6408 -0.4669
  154SAPE  H12Y17195   4.143   5.335   9.171 -0.3541  1.6665 -2.4614
  154SAPE  C31317196   4.144   5.534   9.085  1.0966  0.3616  0.5518
  154SAPE  H13X17197   4.248   5.571   9.102  1.6087 -0.2671 -1.0391
  154SAPE  H13Y17198   4.076   5.622   9.089 -3.0599 -2.6074  0.3838
  154SAPE  C31417199   4.136   5.471   8.946  0.7981 -0.0470 -0.3124
  154SAPE  H14X17200   4.045   5.408   8.939 -0.6701  2.0296 -1.0872
  154SAPE  H14Y17201   4.225   5.407   8.928  1.8808  1.5293 -0.7893
  154SAPE  C31517202   4.134   5.575   8.830  0.2155 -0.1293  0.1442
  154SAPE  H15X17203   4.053   5.651   8.833  0.5186  0.2100 -0.1995
  154SAPE  H15Y17204   4.110   5.526   8.733 -0.7941 -0.0027  0.3186
  154SAPE  C31617205   4.274   5.637   8.809 -0.2959  0.4232  1.0624
  154SAPE  H16X17206   4.344   5.552   8.800 -1.4434 -0.3854 -1.0953
  154SAPE  H16Y17207   4.302   5.703   8.894 -1.4559  0.7857  1.1846
  154SAPE  C31717208   4.284   5.722   8.682 -0.0971 -0.0536  0.3593
  154SAPE  H17X17209   4.220   5.812   8.696 -0.8323 -0.5731  0.3433
  154SAPE  H17Y17210   4.240   5.666   8.597 -0.1027  1.9345 -1.0424
  154SAPE  C31817211   4.424   5.775   8.640 -0.4655 -0.9284 -0.0973
  154SAPE  H18X17212   4.472   5.825   8.727  0.1613 -4.0083  1.4586
  154SAPE  H18Y17213   4.407   5.853   8.562  1.9040 -0.8216 -0.5647
  154SAPE  H18Z17214   4.487   5.694   8.598 -0.7885 -2.3231  1.9661
  155SAPE     N17215   1.179   6.051  11.097  0.2004 -0.2543 -0.2983
  155SAPE   HN117216   1.272   6.091  11.072  0.0707  0.8364  0.8901
  155SAPE   HN217217   1.190   6.052  11.200  1.8058  3.5117 -0.3593
  155SAPE   HN317218   1.168   5.955  11.057 -0.7169 -0.0317 -0.5866
  155SAPE   C1217219   1.067   6.131  11.033 -0.6163 -0.6546  0.2861
  155SAPE  H12A17220   1.084   6.240  11.044 -0.6571 -0.5846 -0.2762
  155SAPE  H12B17221   0.975   6.096  11.084 -1.4306  0.5408 -0.3082
  155SAPE   C1117222   1.060   6.106  10.871  0.0819 -1.0412 -0.7201
  155SAPE  H11A17223   1.163   6.134  10.840  0.5555 -1.0428  0.7796
  155SAPE  H11B17224   0.984   6.180  10.837 -0.5992 -0.3488  2.0697
  155SAPE     P17225   1.127   5.856  10.811  0.1882 -0.2550  0.1662
  155SAPE   O1317226   1.195   5.824  10.935 -0.2607  0.3019  0.0480
  155SAPE   O1417227   1.063   5.740  10.742  0.4216 -0.0538 -0.1735
  155SAPE   O1217228   1.020   5.968  10.841  0.7604 -0.0757  0.6662
  155SAPE   O1117229   1.243   5.921  10.720  0.1274 -0.7976  0.5137
  155SAPE    C117230   1.209   5.982  10.598  0.5684  0.4061  0.8838
  155SAPE    HA17231   1.109   5.944  10.569  2.1104 -3.1274 -0.4274
  155SAPE    HB17232   1.219   6.092  10.595  0.7362  0.3813 -1.0239
  155SAPE    C217233   1.288   5.921  10.481  0.4561 -0.4235  0.3589
  155SAPE    HS17234   1.391   5.956  10.504  0.7496 -0.9921 -0.0676
  155SAPE   O2117235   1.237   5.982  10.357 -0.3274 -0.2664 -0.5271
  155SAPE   C2117236   1.290   6.092  10.314  0.2310  0.0976 -0.4811
  155SAPE   O2217237   1.358   6.165  10.382 -0.3284 -0.3709  0.0145
  155SAPE   C2217238   1.251   6.108  10.172 -0.0838  0.0279  0.2226
  155SAPE   H2R17239   1.327   6.053  10.112  1.3288 -0.4236  2.3141
  155SAPE   H2S17240   1.149   6.070  10.151 -0.4330  0.9995  0.1280
  155SAPE    C317241   1.270   5.773  10.466 -0.7819 -0.0290 -0.1838
  155SAPE    HX17242   1.160   5.767  10.451 -0.9216  1.3550  0.0743
  155SAPE    HY17243   1.308   5.718  10.555 -0.8681  0.2471  0.0285
  155SAPE   O3117244   1.347   5.737  10.353  0.1797 -0.2382  0.5748
  155SAPE   C3117245   1.316   5.615  10.318  0.6494 -0.2838  0.1780
  155SAPE   O3217246   1.250   5.534  10.386 -0.0440  0.5049  0.2697
  155SAPE   C3217247   1.378   5.582  10.186 -0.1471 -0.0700  0.5951
  155SAPE   H2X17248   1.475   5.532  10.199  0.2573  0.8162  1.1321
  155SAPE   H2Y17249   1.406   5.676  10.133 -0.9514  0.3486  0.8904
  155SAPE   C2317250   1.263   6.255  10.121  0.6530  0.0244 -0.0528
  155SAPE   H3R17251   1.367   6.294  10.117  0.9004 -0.7245 -1.8585
  155SAPE   H3S17252   1.210   6.322  10.192  0.7541  1.8984 -1.6418
  155SAPE   C2417253   1.189   6.260   9.991 -0.0928 -0.2592  0.4874
  155SAPE   H4R17254   1.171   6.364   9.957  0.4593 -0.6649 -1.1129
  155SAPE   H4S17255   1.086   6.226  10.014 -0.8913  1.4678 -0.3797
  155SAPE   C2517256   1.248   6.182   9.872  0.4718 -0.3917 -0.5764
  155SAPE   H5R17257   1.268   6.077   9.898 -1.0549 -0.8825 -1.3012
  155SAPE   C2617258   1.289   6.223   9.752  0.2966 -0.1193 -0.1300
  155SAPE   H6R17259   1.333   6.151   9.681  0.0894 -1.0987  0.7026
  155SAPE   C2717260   1.275   6.362   9.695 -0.3166 -0.2234  0.3101
  155SAPE   H7R17261   1.353   6.399   9.626 -1.2752 -0.0270 -0.7115
  155SAPE   H7S17262   1.275   6.438   9.776  0.6590  0.5660 -0.4017
  155SAPE   C2817263   1.136   6.365   9.624  0.5608 -0.0861 -0.1726
  155SAPE   H8R17264   1.053   6.315   9.674 -0.3605  1.0935 -0.4733
  155SAPE   C2917265   1.104   6.429   9.511  0.0350  0.2679 -0.3437
  155SAPE   H9R17266   0.998   6.416   9.484  0.2057  1.1075 -1.4753
  155SAPE  C21017267   1.196   6.510   9.423  0.8582  1.5103 -0.6838
  155SAPE  H10R17268   1.229   6.594   9.488  1.9554  0.4174  0.2255
  155SAPE  H10S17269   1.142   6.559   9.339 -3.1397  0.7890  1.2148
  155SAPE  C21117270   1.311   6.425   9.371  0.1137 -0.0952  0.9941
  155SAPE  H11R17271   1.395   6.397   9.436  1.5783 -0.8903 -1.1221
  155SAPE  C21217272   1.315   6.387   9.248 -0.0656 -0.5919 -0.4856
  155SAPE  H12R17273   1.415   6.351   9.221 -0.2497 -1.6366  0.1507
  155SAPE  C21317274   1.226   6.403   9.129  0.3439 -0.7077  0.2330
  155SAPE  H13R17275   1.265   6.471   9.050 -1.7758 -0.2946 -0.5370
  155SAPE  H13S17276   1.127   6.448   9.152  0.2992 -1.1437  0.9289
  155SAPE  C21417277   1.190   6.267   9.066  0.3043 -0.5667 -0.0225
  155SAPE  H14R17278   1.184   6.180   9.132  1.1297 -1.8668 -1.5800
  155SAPE  C21517279   1.180   6.240   8.934  0.3645 -0.1306 -0.0426
  155SAPE  H15R17280   1.128   6.146   8.910 -0.2066  0.3289 -0.6038
  155SAPE  C21617281   1.196   6.335   8.823 -0.0199  0.6098  0.4372
  155SAPE  H16R17282   1.248   6.286   8.738 -1.6481  0.5549 -0.5826
  155SAPE  H16S17283   1.261   6.418   8.859 -0.6704  1.2032  0.2689
  155SAPE  C21717284   1.057   6.378   8.777  0.1163 -0.4298  0.2539
  155SAPE  H17R17285   1.007   6.421   8.867  1.9671  1.1690  0.5696
  155SAPE  H17S17286   0.999   6.293   8.736 -1.7006  0.8364  0.0626
  155SAPE  C21817287   1.054   6.472   8.655  0.2811 -0.2222  0.0322
  155SAPE  H18R17288   0.975   6.440   8.584 -1.7391  1.0451  1.5996
  155SAPE  H18S17289   1.152   6.453   8.605  1.5533 -2.1985  2.9855
  155SAPE  C21917290   1.044   6.619   8.688  0.2288 -0.4974 -0.1563
  155SAPE  H19R17291   1.059   6.674   8.593 -0.5282 -0.6014 -0.3376
  155SAPE  H19S17292   1.131   6.646   8.752  1.5233  0.2874 -2.1692
  155SAPE  C22017293   0.911   6.664   8.749  0.1774 -0.5355  0.7550
  155SAPE  H20R17294   0.904   6.616   8.849 -1.2725 -0.6825  0.6063
  155SAPE  H20S17295   0.829   6.633   8.681 -0.0967  0.1273  0.7747
  155SAPE  H20T17296   0.933   6.772   8.761  1.0857 -0.7501  1.0749
  155SAPE   C3317297   1.289   5.497  10.091  0.4112 -0.2842 -0.4169
  155SAPE   H3X17298   1.255   5.401  10.136  1.0893 -1.2270 -1.8248
  155SAPE   H3Y17299   1.341   5.480   9.994 -0.1868 -3.4670 -0.2909
  155SAPE   C3417300   1.153   5.563  10.041 -0.1366 -0.3177  0.6947
  155SAPE   H4X17301   1.082   5.570  10.126  1.4267  0.2819  2.0022
  155SAPE   H4Y17302   1.107   5.499   9.962 -2.7227  1.7560  0.3919
  155SAPE   C3517303   1.155   5.703   9.976  0.0376  0.1848 -0.5331
  155SAPE   H5X17304   1.231   5.766  10.027 -0.5449  1.4928 -1.2213
  155SAPE   H5Y17305   1.060   5.759   9.989  0.7711  1.2038  0.7479
  155SAPE   C3617306   1.198   5.697   9.832 -0.0502  0.0053 -0.7487
  155SAPE   H6X17307   1.251   5.601   9.815 -0.7196 -0.5174  0.0481
  155SAPE   H6Y17308   1.265   5.782   9.806  1.2959 -0.2311  1.6426
  155SAPE   C3717309   1.079   5.695   9.736 -0.1216  0.2508  0.4116
  155SAPE   H7X17310   1.032   5.795   9.726 -0.9587 -0.0596  1.1595
  155SAPE   H7Y17311   1.006   5.630   9.789 -0.6868  1.1001  0.6860
  155SAPE   C3817312   1.122   5.647   9.598 -0.7149 -0.0263  0.3883
  155SAPE   H8X17313   1.028   5.636   9.540 -0.3301  2.1048 -0.7467
  155SAPE   H8Y17314   1.169   5.547   9.607 -0.5480 -0.1887 -1.6983
  155SAPE   C3917315   1.213   5.750   9.522 -0.8309 -0.0017  0.5099
  155SAPE   H9X17316   1.225   5.716   9.417 -0.4904 -0.3882  0.6733
  155SAPE   H9Y17317   1.314   5.734   9.565 -0.4863  0.5596 -0.0698
  155SAPE  C31017318   1.157   5.894   9.509 -0.0571 -0.3621 -0.2084
  155SAPE  H10X17319   1.164   5.948   9.605  1.8460  0.2880 -0.6527
  155SAPE  H10Y17320   1.050   5.890   9.479  0.7087  1.5854 -3.8633
  155SAPE  C31117321   1.228   5.980   9.409  0.4473 -0.1891 -0.0959
  155SAPE  H11X17322   1.197   6.086   9.417  3.7163  0.7146  3.5476
  155SAPE  H11Y17323   1.218   5.945   9.304  2.6736 -2.0212  0.2261
  155SAPE  C31217324   1.376   5.981   9.439  0.1900 -0.6050  0.8694
  155SAPE  H12X17325   1.414   5.876   9.440  2.5789  0.1448 -0.8309
  155SAPE  H12Y17326   1.389   6.036   9.535 -0.2168  3.6721 -1.2804
  155SAPE  C31317327   1.462   6.064   9.334  0.3318  0.3222 -0.5834
  155SAPE  H13X17328   1.426   6.169   9.326 -1.0126 -0.0450  0.3180
  155SAPE  H13Y17329   1.444   6.012   9.237 -0.7811 -0.2712 -0.0866
  155SAPE  C31417330   1.611   6.069   9.375  0.0559  0.2713 -0.2756
  155SAPE  H14X17331   1.655   5.968   9.359  3.0208  1.2471  0.9328
  155SAPE  H14Y17332   1.639   6.096   9.479 -0.1969 -1.2867  0.2226
  155SAPE  C31517333   1.692   6.156   9.280  0.4009 -0.4459  0.4776
  155SAPE  H15X17334   1.669   6.265   9.287  0.8855 -0.3312  0.3453
  155SAPE  H15Y17335   1.659   6.126   9.179 -1.4004 -0.4590  1.0375
  155SAPE  C31617336   1.843   6.133   9.288  0.2566 -0.7680 -0.4003
  155SAPE  H16X17337   1.894   6.182   9.202  0.4487  1.4736  0.9304
  155SAPE  H16Y17338   1.856   6.022   9.288 -0.7129 -0.9197  1.6503
  155SAPE  C31717339   1.923   6.179   9.412 -0.0587  0.1422  0.3580
  155SAPE  H17X17340   1.895   6.107   9.492  3.2682  0.8695  2.3835
  155SAPE  H17Y17341   1.890   6.279   9.448  1.5352  0.7092  0.3443
  155SAPE  C31817342   2.079   6.175   9.390  0.5005 -0.0007 -0.3017
  155SAPE  H18X17343   2.112   6.076   9.352  0.7826 -0.2328  0.5337
  155SAPE  H18Y17344   2.130   6.199   9.485 -0.0775  3.2289 -0.7048
  155SAPE  H18Z17345   2.101   6.252   9.312  1.7538  0.8465  0.8403
  156SAPE     N17346   1.122   3.887  10.682 -0.3265 -0.2058 -0.3302
  156SAPE   HN117347   1.119   3.974  10.739  1.1814 -0.4321  0.1355
  156SAPE   HN217348   1.079   3.802  10.724  3.5262 -2.1353  0.1343
  156SAPE   HN317349   1.223   3.866  10.673  1.1074  4.4822  1.7009
  156SAPE   C1217350   1.076   3.905  10.547  0.6726 -0.0635  0.8372
  156SAPE  H12A17351   0.969   3.933  10.543  0.8155  0.4005 -1.6158
  156SAPE  H12B17352   1.085   3.810  10.490  0.7274  0.8900 -0.8043
  156SAPE   C1117353   1.155   4.012  10.473 -0.2131 -0.3584  0.0199
  156SAPE  H11A17354   1.131   4.032  10.366  2.0514 -2.2511 -0.9294
  156SAPE  H11B17355   1.262   3.982  10.467 -0.2100 -0.3627  0.1071
  156SAPE     P17356   1.040   4.235  10.560  0.2213  0.0161 -0.3578
  156SAPE   O1317357   0.956   4.179  10.660  0.7504 -0.2689 -0.0275
  156SAPE   O1417358   1.104   4.369  10.570  0.1186 -0.1597 -0.4037
  156SAPE   O1217359   1.162   4.135  10.541 -0.1634  0.0993 -0.2372
  156SAPE   O1117360   0.955   4.223  10.426 -0.1610 -0.4253 -0.0146
  156SAPE    C117361   0.852   4.134  10.388 -0.5123  0.1824 -0.1614
  156SAPE    HA17362   0.894   4.061  10.316 -0.2912  1.5549 -1.4812
  156SAPE    HB17363   0.811   4.095  10.483  0.1761  2.2758  1.0641
  156SAPE    C217364   0.742   4.204  10.305 -0.0359 -0.2648 -0.0972
  156SAPE    HS17365   0.664   4.129  10.278 -0.1953 -1.5288  3.3725
  156SAPE   O2117366   0.797   4.265  10.185  0.2834 -0.6962 -0.0963
  156SAPE   C2117367   0.817   4.175  10.086 -1.3183  0.5994 -0.4913
  156SAPE   O2217368   0.794   4.050  10.089 -0.1749 -1.0177  0.0485
  156SAPE   C2217369   0.886   4.241   9.963 -0.1408 -0.0525  0.2139
  156SAPE   H2R17370   0.945   4.329   9.996  1.7642 -1.3584  0.3870
  156SAPE   H2S17371   0.957   4.169   9.919 -0.3688 -0.3470  0.3215
  156SAPE    C317372   0.676   4.317  10.402  0.2785 -0.0602 -0.3238
  156SAPE    HX17373   0.753   4.394  10.423 -1.1718  0.8975  1.8369
  156SAPE    HY17374   0.650   4.263  10.495  1.3588 -2.2166 -1.1868
  156SAPE   O3117375   0.550   4.379  10.361 -0.4669 -0.1810 -0.6902
  156SAPE   C3117376   0.527   4.496  10.409  0.7784 -0.0771  0.1923
  156SAPE   O3217377   0.611   4.575  10.459 -0.0156 -0.7267 -0.1799
  156SAPE   C3217378   0.373   4.518  10.400  0.2090  0.2798 -0.1406
  156SAPE   H2X17379   0.335   4.615  10.439 -3.0653 -0.4931 -1.1356
  156SAPE   H2Y17380   0.332   4.436  10.464  0.1853  0.1832 -0.2804
  156SAPE   C2317381   0.780   4.281   9.860 -0.9119  0.2835  0.0885
  156SAPE   H3R17382   0.831   4.346   9.786  1.4574  0.9801  2.2052
  156SAPE   H3S17383   0.691   4.330   9.906  0.0187  1.6984  0.4442
  156SAPE   C2417384   0.736   4.153   9.774  0.1937 -0.1953  0.2204
  156SAPE   H4R17385   0.645   4.186   9.721 -0.6356 -2.0797  0.3946
  156SAPE   H4S17386   0.699   4.074   9.843 -0.2521  0.7827  1.1255
  156SAPE   C2517387   0.833   4.081   9.683  0.3945 -0.2836 -0.2783
  156SAPE   H5R17388   0.902   4.015   9.738 -0.5206 -1.3315 -0.3342
  156SAPE   C2617389   0.818   4.079   9.548  0.0213  0.5947  0.1498
  156SAPE   H6R17390   0.891   4.013   9.500 -0.6329  2.1605 -3.2878
  156SAPE   C2717391   0.701   4.133   9.465 -0.3292  0.2892  0.2240
  156SAPE   H7R17392   0.643   4.215   9.512  1.1364  0.6257  1.5281
  156SAPE   H7S17393   0.628   4.052   9.444 -0.9482  1.1363 -1.0144
  156SAPE   C2817394   0.765   4.188   9.340 -0.2835  0.0839 -0.3189
  156SAPE   H8R17395   0.862   4.240   9.347  0.3380 -0.6897 -2.3882
  156SAPE   C2917396   0.705   4.199   9.220  0.3409  0.4477  0.0134
  156SAPE   H9R17397   0.771   4.217   9.134  0.7448 -0.3224  0.1480
  156SAPE  C21017398   0.569   4.153   9.175  0.3480  0.3528  0.2562
  156SAPE  H10R17399   0.510   4.121   9.264  3.3235 -1.2189  1.8183
  156SAPE  H10S17400   0.578   4.055   9.124  3.0587  0.3396  0.6209
  156SAPE  C21117401   0.507   4.256   9.085  0.8276  0.0860  0.9699
  156SAPE  H11R17402   0.512   4.362   9.116 -1.2013 -0.1901  2.3865
  156SAPE  C21217403   0.428   4.233   8.975 -0.2328  0.3582 -0.7421
  156SAPE  H12R17404   0.387   4.320   8.921 -0.7534 -0.7354 -2.1445
  156SAPE  C21317405   0.400   4.094   8.913  0.6068 -0.3561 -0.1339
  156SAPE  H13R17406   0.412   4.022   8.998 -3.0147 -3.4600 -1.9538
  156SAPE  H13S17407   0.484   4.075   8.843  1.1216 -0.8404  0.5903
  156SAPE  C21417408   0.264   4.071   8.845 -0.0779  0.3510 -0.0470
  156SAPE  H14R17409   0.188   4.010   8.896  0.8610 -3.6008 -2.9534
  156SAPE  C21517410   0.225   4.123   8.722  0.0454  0.5137 -0.3219
  156SAPE  H15R17411   0.127   4.091   8.682  0.6842  1.2550 -2.6396
  156SAPE  C21617412   0.308   4.211   8.632 -0.2312  0.8497 -0.3565
  156SAPE  H16R17413   0.400   4.152   8.609 -2.2513 -2.3978 -0.7618
  156SAPE  H16S17414   0.337   4.305   8.684 -0.3125 -0.7945  2.9019
  156SAPE  C21717415   0.244   4.234   8.489  0.3847  0.2045 -0.5055
  156SAPE  H17R17416   0.137   4.254   8.512  0.3766 -2.4769  2.6394
  156SAPE  H17S17417   0.254   4.150   8.417  0.5013  0.3675 -0.6777
  156SAPE  C21817418   0.301   4.360   8.430  0.3858 -0.1068 -0.4881
  156SAPE  H18R17419   0.410   4.348   8.413  0.4850  0.5862 -0.3447
  156SAPE  H18S17420   0.281   4.446   8.498 -1.7873  0.8667 -2.2556
  156SAPE  C21917421   0.222   4.400   8.307  0.0430 -0.1727 -0.4348
  156SAPE  H19R17422   0.119   4.432   8.336 -1.0068 -0.9501 -2.9967
  156SAPE  H19S17423   0.212   4.308   8.247  0.2790 -0.0193 -0.7074
  156SAPE  C22017424   0.283   4.507   8.224 -0.2430 -0.8607  0.1830
  156SAPE  H20R17425   0.290   4.602   8.282 -1.8852 -0.5601 -0.0752
  156SAPE  H20S17426   0.224   4.524   8.132  1.5211 -0.0469 -0.8644
  156SAPE  H20T17427   0.383   4.475   8.188 -0.4986 -1.4422 -0.0104
  156SAPE   C3317428   0.323   4.514  10.255  0.6470  0.6863  0.0155
  156SAPE   H3X17429   0.213   4.528  10.260  0.6262  0.1585  2.3869
  156SAPE   H3Y17430   0.334   4.412  10.211  0.4800  0.0869  1.3124
  156SAPE   C3417431   0.392   4.616  10.162  0.5054 -0.4105  0.4143
  156SAPE   H4X17432   0.503   4.611  10.165  0.5668  0.7361  0.3873
  156SAPE   H4Y17433   0.360   4.717  10.195  0.3237 -0.2148 -0.3394
  156SAPE   C3517434   0.338   4.596  10.017 -0.1747 -0.0666  0.4692
  156SAPE   H5X17435   0.394   4.669   9.954  1.2507 -1.0504  0.5308
  156SAPE   H5Y17436   0.228   4.607  10.016 -0.1475  0.2584 -1.0736
  156SAPE   C3617437   0.381   4.467   9.950 -0.4674  0.3995 -0.3443
  156SAPE   H6X17438   0.332   4.380   9.998  1.4571 -1.6228 -1.8241
  156SAPE   H6Y17439   0.490   4.448   9.961 -0.4728 -0.5328 -1.6705
  156SAPE   C3717440   0.357   4.465   9.799  0.4696 -0.5236 -0.3554
  156SAPE   H7X17441   0.424   4.542   9.756 -0.4529  0.4857 -0.0244
  156SAPE   H7Y17442   0.252   4.489   9.772  0.4018  0.6168  0.8032
  156SAPE   C3817443   0.399   4.334   9.730  0.2791 -0.2800  0.3425
  156SAPE   H8X17444   0.384   4.248   9.799  0.0260 -0.7486 -0.2849
  156SAPE   H8Y17445   0.506   4.337   9.703  0.0515 -2.1918 -1.0314
  156SAPE   C3917446   0.332   4.316   9.589  0.7591 -0.5842  0.0757
  156SAPE   H9X17447   0.381   4.233   9.533  0.5547  0.5337 -1.8759
  156SAPE   H9Y17448   0.355   4.413   9.540  1.9105  0.1375  1.9392
  156SAPE  C31017449   0.176   4.292   9.600  1.3754 -0.0934 -0.1233
  156SAPE  H10X17450   0.127   4.388   9.627 -1.4516 -1.2186 -0.9474
  156SAPE  H10Y17451   0.160   4.230   9.691  1.6223  1.8146  1.2863
  156SAPE  C31117452   0.101   4.225   9.490 -0.5201 -0.3839  0.6223
  156SAPE  H11X17453   0.006   4.179   9.525  0.6451 -2.2251  1.5206
  156SAPE  H11Y17454   0.162   4.144   9.445 -2.9963 -1.6284 -0.6992
  156SAPE  C31217455   0.065   4.317   9.370 -0.1066  0.3356 -0.2622
  156SAPE  H12X17456   0.159   4.332   9.313  0.5046 -2.3630 -0.1062
  156SAPE  H12Y17457   0.028   4.415   9.407 -3.0802 -0.8506  0.1669
  156SAPE  C31317458  -0.047   4.251   9.291 -0.2044  0.4554  0.0410
  156SAPE  H13X17459  -0.137   4.242   9.356  0.1288 -0.5298  0.3869
  156SAPE  H13Y17460  -0.015   4.151   9.255  3.1354  1.5023 -0.2171
  156SAPE  C31417461  -0.087   4.327   9.164 -0.7388 -0.2299 -0.0262
  156SAPE  H14X17462  -0.092   4.432   9.197 -0.2282 -0.2524  0.1407
  156SAPE  H14Y17463  -0.186   4.283   9.140 -1.1652 -0.3036  1.7311
  156SAPE  C31517464   0.018   4.318   9.056  0.0540 -0.5613  0.0815
  156SAPE  H15X17465   0.026   4.210   9.031 -0.7616 -0.4557 -0.6984
  156SAPE  H15Y17466   0.125   4.333   9.081  0.0711 -2.1725  1.1436
  156SAPE  C31617467  -0.016   4.393   8.931 -0.1431  0.2764  0.2281
  156SAPE  H16X17468   0.079   4.402   8.873 -0.9803  0.4053 -1.1848
  156SAPE  H16Y17469  -0.052   4.491   8.969 -1.5479  0.0541 -0.4677
  156SAPE  C31717470  -0.134   4.328   8.861 -0.2887 -0.5194 -0.8875
  156SAPE  H17X17471  -0.234   4.338   8.906  0.3639 -1.8131  0.9395
  156SAPE  H17Y17472  -0.122   4.218   8.852 -0.9266 -0.8806  1.8919
  156SAPE  C31817473  -0.147   4.386   8.720 -0.1466 -0.4120  0.5725
  156SAPE  H18X17474  -0.188   4.489   8.711  0.5195 -0.3213 -2.0903
  156SAPE  H18Y17475  -0.205   4.307   8.668  1.8988 -2.6628  1.4939
  156SAPE  H18Z17476  -0.053   4.395   8.661 -0.1212 -0.7650  0.5566
  157SAPE     N17477   2.399   2.488  10.590  0.1880  0.3851  0.5266
  157SAPE   HN117478   2.368   2.390  10.574  2.9460 -1.0897  3.3576
  157SAPE   HN217479   2.339   2.535  10.661 -2.0853 -0.9557 -0.4133
  157SAPE   HN317480   2.401   2.542  10.501 -0.4571  2.4059  1.6587
  157SAPE   C1217481   2.535   2.489  10.649 -0.1713 -0.1869  0.0794
  157SAPE  H12A17482   2.606   2.454  10.570  0.0459 -1.6802  0.8895
  157SAPE  H12B17483   2.529   2.422  10.738 -0.6152  1.1893  1.1077
  157SAPE   C1117484   2.579   2.633  10.693  0.1306  0.2372 -0.0400
  157SAPE  H11A17485   2.681   2.631  10.738  0.1152  0.6187  0.0160
  157SAPE  H11B17486   2.511   2.675  10.770 -0.9609  2.8164 -2.2739
  157SAPE     P17487   2.649   2.852  10.574  0.3586 -0.1251  0.6237
  157SAPE   O1317488   2.555   2.949  10.511  0.3514 -0.5641 -0.2863
  157SAPE   O1417489   2.709   2.888  10.706  0.4836 -0.5471 -0.2173
  157SAPE   O1217490   2.578   2.712  10.582  0.3425  0.0410  0.1514
  157SAPE   O1117491   2.768   2.820  10.475 -0.4458  0.0188 -0.0524
  157SAPE    C117492   2.844   2.696  10.480  1.0356 -0.3409 -0.5331
  157SAPE    HA17493   2.948   2.708  10.519  1.2458 -0.9300 -0.8976
  157SAPE    HB17494   2.811   2.623  10.556 -1.2286 -1.0683 -2.1263
  157SAPE    C217495   2.842   2.614  10.346  0.6342  0.0681 -0.5641
  157SAPE    HS17496   2.873   2.511  10.374 -0.6918 -0.1860  0.0235
  157SAPE   O2117497   2.913   2.679  10.240  0.3569 -0.2855  0.4291
  157SAPE   C2117498   3.045   2.659  10.257  0.0656 -0.0504  0.0345
  157SAPE   O2217499   3.094   2.580  10.335 -0.7024  0.6267 -0.1454
  157SAPE   C2217500   3.118   2.715  10.130 -0.3682 -0.4395 -0.1974
  157SAPE   H2R17501   3.090   2.644  10.049 -0.2259  1.3182 -1.8805
  157SAPE   H2S17502   3.085   2.818  10.106 -0.3363 -0.6729 -1.2830
  157SAPE    C317503   2.700   2.582  10.295 -0.6301 -0.4466 -0.2459
  157SAPE    HX17504   2.653   2.676  10.259  1.2232  0.4006 -0.5928
  157SAPE    HY17505   2.632   2.532  10.367  0.9334  0.1585  1.7497
  157SAPE   O3117506   2.704   2.495  10.178 -0.2691 -0.3840 -0.1917
  157SAPE   C3117507   2.748   2.375  10.186 -0.2368  0.0421 -0.2897
  157SAPE   O3217508   2.792   2.318  10.284  0.0237 -0.0648  0.0175
  157SAPE   C3217509   2.724   2.305  10.054 -0.7225  0.3959  0.1029
  157SAPE   H2X17510   2.806   2.345   9.991 -1.7954  2.5238 -0.0468
  157SAPE   H2Y17511   2.628   2.348  10.017 -1.1045 -1.1410 -0.7855
  157SAPE   C2317512   3.279   2.707  10.143  0.6083 -0.3939 -0.1136
  157SAPE   H3R17513   3.300   2.602  10.172  1.9182 -0.4550 -1.1910
  157SAPE   H3S17514   3.313   2.783  10.217  1.7014 -0.6704 -0.3115
  157SAPE   C2417515   3.349   2.737  10.007  0.3058  0.1544  0.6744
  157SAPE   H4R17516   3.335   2.643   9.950 -1.0186  2.2997 -2.8753
  157SAPE   H4S17517   3.459   2.741  10.015  0.6394 -0.6754 -2.3807
  157SAPE   C2517518   3.314   2.864   9.939  0.5114 -0.3927 -0.0934
  157SAPE   H5R17519   3.322   2.959   9.994  0.8996 -1.7837  2.3984
  157SAPE   C2617520   3.295   2.871   9.808 -0.2822 -0.1870  0.3573
  157SAPE   H6R17521   3.261   2.967   9.765 -0.7365 -0.8676 -0.8753
  157SAPE   C2717522   3.304   2.762   9.703  0.5783  0.3331  0.8440
  157SAPE   H7R17523   3.352   2.669   9.739  3.7999  1.2519 -0.6906
  157SAPE   H7S17524   3.387   2.794   9.636  0.2870  1.1144  0.8515
  157SAPE   C2817525   3.177   2.739   9.631  0.5301  0.8964 -1.1657
  157SAPE   H8R17526   3.084   2.745   9.689 -0.1874 -1.7061 -1.9110
  157SAPE   C2917527   3.165   2.703   9.504  0.5294  0.3246  1.1250
  157SAPE   H9R17528   3.064   2.698   9.463  0.6337  0.3818  0.8590
  157SAPE  C21017529   3.280   2.679   9.404 -0.9290 -0.2044 -0.0015
  157SAPE  H10R17530   3.376   2.701   9.456 -2.1691  1.4434  1.7267
  157SAPE  H10S17531   3.279   2.764   9.332 -1.6881  0.4003  0.7142
  157SAPE  C21117532   3.263   2.558   9.323 -0.1020  0.7742  0.4632
  157SAPE  H11R17533   3.224   2.467   9.371  0.5896  0.2739  0.0976
  157SAPE  C21217534   3.247   2.560   9.184 -0.4215  0.5232  0.8261
  157SAPE  H12R17535   3.206   2.473   9.131 -0.1075  2.0362 -2.0821
  157SAPE  C21317536   3.261   2.679   9.088 -0.0534  0.4033  0.0104
  157SAPE  H13R17537   3.361   2.677   9.040 -0.7560  1.1504 -1.5804
  157SAPE  H13S17538   3.277   2.770   9.149  3.1834 -0.8907  1.2980
  157SAPE  C21417539   3.168   2.701   8.971 -0.0061  0.5679 -0.2614
  157SAPE  H14R17540   3.073   2.752   8.995  0.4527  0.0483  3.1970
  157SAPE  C21517541   3.183   2.643   8.850 -0.1379  0.8443 -0.3234
  157SAPE  H15R17542   3.104   2.656   8.775  0.2108  0.0376 -0.8392
  157SAPE  C21617543   3.285   2.537   8.825  0.2610 -0.5279  0.2022
  157SAPE  H16R17544   3.242   2.464   8.753 -1.4683  0.0589  0.5838
  157SAPE  H16S17545   3.302   2.467   8.909  2.2708 -1.8356 -1.1892
  157SAPE  C21717546   3.413   2.589   8.761 -0.9915  0.7484 -0.8527
  157SAPE  H17R17547   3.465   2.643   8.843 -1.2410  1.7776 -1.3517
  157SAPE  H17S17548   3.396   2.642   8.665 -0.5388 -1.2375 -2.0844
  157SAPE  C21817549   3.515   2.480   8.717  0.4794 -0.3968 -0.4505
  157SAPE  H18R17550   3.460   2.405   8.658 -1.1511 -0.7578  1.4289
  157SAPE  H18S17551   3.548   2.426   8.809  0.4402  0.4533  0.0813
  157SAPE  C21917552   3.631   2.533   8.641  0.6760 -0.8976  0.4510
  157SAPE  H19R17553   3.679   2.616   8.698 -2.1299  1.9735 -1.0454
  157SAPE  H19S17554   3.592   2.562   8.541  1.7708 -0.6869  0.0771
  157SAPE  C22017555   3.738   2.429   8.605  0.2212 -0.0394  0.0351
  157SAPE  H20R17556   3.773   2.385   8.701  1.3909  1.2792  0.2411
  157SAPE  H20S17557   3.820   2.468   8.540 -0.0815 -0.9876 -0.9548
  157SAPE  H20T17558   3.698   2.354   8.533 -0.0156  0.6225 -0.5371
  157SAPE   C3317559   2.711   2.150  10.067  0.3459 -0.2038 -0.1507
  157SAPE   H3X17560   2.632   2.131  10.143 -1.4009  1.2294 -1.5285
  157SAPE   H3Y17561   2.793   2.086  10.105 -1.9628 -2.5586  1.1998
  157SAPE   C3417562   2.659   2.089   9.942  0.0648 -0.7093  0.5368
  157SAPE   H4X17563   2.597   2.165   9.892  0.5459 -0.3193  0.5207
  157SAPE   H4Y17564   2.588   2.011   9.976 -2.0600  1.3253  1.0188
  157SAPE   C3517565   2.770   2.052   9.843 -0.1683  0.2731  0.0927
  157SAPE   H5X17566   2.851   2.005   9.902 -2.4950 -1.6027  1.9812
  157SAPE   H5Y17567   2.832   2.136   9.802 -0.0684  0.0222 -0.2796
  157SAPE   C3617568   2.722   1.953   9.741  0.1811  0.5035 -0.2014
  157SAPE   H6X17569   2.656   2.003   9.667  0.5024  1.0823 -0.1078
  157SAPE   H6Y17570   2.661   1.872   9.787 -1.5599  2.0923  0.4340
  157SAPE   C3717571   2.842   1.886   9.666 -0.1952  0.4194 -0.6368
  157SAPE   H7X17572   2.928   1.862   9.732 -0.2819 -0.5594 -0.8693
  157SAPE   H7Y17573   2.881   1.975   9.612  0.2064  1.1007  0.7317
  157SAPE   C3817574   2.813   1.772   9.577  0.4911 -1.0189  0.3254
  157SAPE   H8X17575   2.721   1.794   9.519  0.7585  0.0742  0.2972
  157SAPE   H8Y17576   2.784   1.679   9.630 -1.7754  0.3808  1.6814
  157SAPE   C3917577   2.914   1.751   9.465  0.3592 -0.0678 -0.2665
  157SAPE   H9X17578   2.862   1.677   9.400  0.7167 -1.3074  0.8452
  157SAPE   H9Y17579   3.009   1.705   9.496 -0.2475  0.2535  2.3104
  157SAPE  C31017580   2.931   1.876   9.376  0.3858 -0.6228 -0.2565
  157SAPE  H10X17581   3.002   1.949   9.420  1.0690 -0.9852 -0.7321
  157SAPE  H10Y17582   2.835   1.931   9.372  1.4886  1.8872  2.9658
  157SAPE  C31117583   2.978   1.834   9.235 -0.3538  0.1958 -0.5505
  157SAPE  H11X17584   2.950   1.917   9.168 -0.8701 -0.3734 -1.0532
  157SAPE  H11Y17585   2.924   1.741   9.208 -0.2426 -0.3419  0.9589
  157SAPE  C31217586   3.131   1.809   9.228 -0.2121  0.7342 -0.4920
  157SAPE  H12X17587   3.163   1.735   9.305 -1.1247 -0.0394 -0.8384
  157SAPE  H12Y17588   3.184   1.905   9.247 -1.5503  1.2170  1.1350
  157SAPE  C31317589   3.181   1.773   9.086  0.1242  0.5158 -0.2823
  157SAPE  H13X17590   3.290   1.776   9.068  0.3132  1.6482  0.9488
  157SAPE  H13Y17591   3.135   1.860   9.032 -2.6004  0.3442  1.5506
  157SAPE  C31417592   3.123   1.643   9.026  0.1347 -0.0797 -0.1714
  157SAPE  H14X17593   3.012   1.643   9.028  0.0672  2.6984 -0.4144
  157SAPE  H14Y17594   3.145   1.553   9.087  1.2694 -0.0253 -0.4760
  157SAPE  C31517595   3.176   1.616   8.889  0.0894  0.5853  0.3599
  157SAPE  H15X17596   3.287   1.616   8.892  0.0966 -0.6474  2.3415
  157SAPE  H15Y17597   3.146   1.700   8.823 -0.0230 -0.8928 -1.5485
  157SAPE  C31617598   3.122   1.489   8.826 -0.3810  0.0073 -0.4392
  157SAPE  H16X17599   3.016   1.461   8.844 -0.4483  0.0275 -0.8036
  157SAPE  H16Y17600   3.181   1.406   8.872  0.4419  2.6204  3.8065
  157SAPE  C31717601   3.153   1.476   8.673 -0.0157  0.0875 -0.4915
  157SAPE  H17X17602   3.262   1.461   8.658  0.7912  1.4299  2.9751
  157SAPE  H17Y17603   3.131   1.578   8.634 -3.6584  0.2914  1.6402
  157SAPE  C31817604   3.067   1.375   8.599  0.2224  0.4293 -0.1483
  157SAPE  H18X17605   3.096   1.270   8.622  0.0288  0.1706 -1.0502
  157SAPE  H18Y17606   3.077   1.391   8.490 -1.6573 -1.9599 -0.7603
  157SAPE  H18Z17607   2.962   1.397   8.630  0.8835  1.6094  1.4102
  158SAPE     N17608   2.345   3.102  10.569  0.0086  0.1175  0.6730
  158SAPE   HN117609   2.362   3.145  10.662 -0.3525 -2.7009  2.1360
  158SAPE   HN217610   2.278   3.023  10.577  0.8963 -0.6671  0.5634
  158SAPE   HN317611   2.428   3.059  10.524 -2.2541 -2.6166 -1.2169
  158SAPE   C1217612   2.286   3.208  10.477 -0.6039 -0.3462  0.7714
  158SAPE  H12A17613   2.263   3.159  10.380  0.4394  2.3375 -0.9478
  158SAPE  H12B17614   2.368   3.279  10.452  0.3903 -2.1920 -1.4583
  158SAPE   C1117615   2.167   3.280  10.542 -1.0500  0.3417  0.3006
  158SAPE  H11A17616   2.123   3.348  10.466 -1.0169  1.3685  1.1819
  158SAPE  H11B17617   2.190   3.327  10.639 -0.1289  0.6148 -0.0400
  158SAPE     P17618   1.927   3.166  10.545  0.7469  0.0542 -0.4410
  158SAPE   O1317619   1.895   3.036  10.484 -0.0187 -0.1858  0.3779
  158SAPE   O1417620   1.847   3.214  10.664 -0.1056 -0.2225 -0.7839
  158SAPE   O1217621   2.079   3.180  10.585  0.2237  0.3148  0.1957
  158SAPE   O1117622   1.903   3.274  10.429  0.2465 -0.5045  0.1582
  158SAPE    C117623   1.802   3.257  10.322 -0.5933  0.8329 -0.2407
  158SAPE    HA17624   1.702   3.218  10.349 -1.8695  3.5635 -0.5828
  158SAPE    HB17625   1.775   3.358  10.285 -0.1994  0.8221 -0.5642
  158SAPE    C217626   1.862   3.170  10.205 -0.1086  0.2799  0.3122
  158SAPE    HS17627   1.868   3.065  10.241 -0.1461  0.9542  2.3737
  158SAPE   O2117628   1.983   3.233  10.151 -0.0685  0.1328  0.2810
  158SAPE   C2117629   2.075   3.150  10.108  0.1645 -0.5076  0.3124
  158SAPE   O2217630   2.061   3.028  10.102 -0.0625 -0.2667  0.0267
  158SAPE   C2217631   2.191   3.231  10.046 -0.0766 -0.1068  0.3991
  158SAPE   H2R17632   2.144   3.310   9.983  1.2077 -1.0118 -1.8294
  158SAPE   H2S17633   2.242   3.277  10.134 -0.9089 -1.6650  1.7411
  158SAPE    C317634   1.740   3.165  10.092 -0.1317  0.1804 -0.6413
  158SAPE    HX17635   1.713   3.269  10.065  0.0486  0.5530  0.5707
  158SAPE    HY17636   1.639   3.131  10.124 -0.5540  0.2944 -1.8065
  158SAPE   O3117637   1.793   3.106   9.969  0.0246 -0.3443 -0.1422
  158SAPE   C3117638   1.763   2.980   9.955 -0.6143  0.3016 -0.2915
  158SAPE   O3217639   1.717   2.911  10.039  0.4763  0.0737 -0.3380
  158SAPE   C3217640   1.781   2.920   9.816  0.4668  0.1403  0.6732
  158SAPE   H2X17641   1.711   2.960   9.739  2.4193  0.0211 -1.2711
  158SAPE   H2Y17642   1.745   2.815   9.817 -0.3313  0.3729 -0.5930
  158SAPE   C2317643   2.282   3.146   9.948  0.2490  0.1158 -0.1992
  158SAPE   H3R17644   2.206   3.090   9.889 -1.6701  1.3065  1.0488
  158SAPE   H3S17645   2.345   3.073  10.004 -1.4747 -0.1403  1.4842
  158SAPE   C2417646   2.359   3.227   9.845 -0.2947  0.2001 -0.0840
  158SAPE   H4R17647   2.300   3.312   9.805  2.5118  2.4682  0.3035
  158SAPE   H4S17648   2.381   3.153   9.765 -2.2125  0.1026 -0.5587
  158SAPE   C2517649   2.483   3.288   9.893 -0.5995  0.1712  0.0824
  158SAPE   H5R17650   2.479   3.362   9.973  2.1965  1.1814 -0.5867
  158SAPE   C2617651   2.612   3.259   9.850  0.4703 -0.2742 -0.0345
  158SAPE   H6R17652   2.692   3.323   9.892  0.6317  0.3768 -1.2647
  158SAPE   C2717653   2.645   3.150   9.752  0.0516  0.4273  0.7051
  158SAPE   H7R17654   2.634   3.195   9.650  1.0202 -0.9170 -0.0241
  158SAPE   H7S17655   2.584   3.059   9.769  0.4806  0.3268  1.7957
  158SAPE   C2817656   2.787   3.102   9.784  0.2541 -0.5125 -0.5947
  158SAPE   H8R17657   2.796   3.070   9.889 -1.8421  0.0633 -0.1751
  158SAPE   C2917658   2.886   3.078   9.699  0.3262  0.1898  0.2383
  158SAPE   H9R17659   2.983   3.053   9.743  0.4355  0.4666  0.1597
  158SAPE  C21017660   2.883   3.096   9.547 -0.9482 -0.4303  0.0426
  158SAPE  H10R17661   2.967   3.165   9.527  0.0750 -1.6062  0.1569
  158SAPE  H10S17662   2.780   3.127   9.518 -0.5473  0.0993 -0.8822
  158SAPE  C21117663   2.916   2.973   9.465 -0.4537 -0.4336 -1.2984
  158SAPE  H11R17664   3.022   2.944   9.476 -0.3275 -0.7585 -3.0387
  158SAPE  C21217665   2.841   2.897   9.385  0.3177 -0.9076 -0.2942
  158SAPE  H12R17666   2.889   2.807   9.343 -0.1629 -2.3856  2.0888
  158SAPE  C21317667   2.700   2.917   9.349  0.5249 -0.3618  0.0702
  158SAPE  H13R17668   2.688   2.892   9.241 -0.0219  0.8430 -0.1615
  158SAPE  H13S17669   2.660   3.021   9.354 -0.6646 -0.7911 -0.1911
  158SAPE  C21417670   2.604   2.836   9.436  0.8289  0.8733  0.0692
  158SAPE  H14R17671   2.617   2.862   9.542  0.4731  0.8548  0.1183
  158SAPE  C21517672   2.517   2.742   9.407 -0.6435  0.0556 -0.3942
  158SAPE  H15R17673   2.452   2.700   9.485 -0.7332 -0.6010 -0.8134
  158SAPE  C21617674   2.501   2.685   9.269 -0.5767 -0.1754  0.3770
  158SAPE  H16R17675   2.495   2.770   9.198 -1.0267 -1.6753 -1.4564
  158SAPE  H16S17676   2.402   2.640   9.246 -0.0322 -1.1553 -0.1511
  158SAPE  C21717677   2.611   2.585   9.227 -0.1632 -0.6950  0.5161
  158SAPE  H17R17678   2.584   2.483   9.260  0.9776 -1.2630 -0.2679
  158SAPE  H17S17679   2.711   2.608   9.270  0.6694 -0.6864 -1.3377
  158SAPE  C21817680   2.635   2.586   9.069  0.2354  0.0466 -0.5806
  158SAPE  H18R17681   2.665   2.689   9.039 -2.5385  0.9393 -0.5231
  158SAPE  H18S17682   2.537   2.550   9.030 -0.3385 -2.3086  2.6658
  158SAPE  C21917683   2.748   2.489   9.039 -0.1865  0.3122 -0.3632
  158SAPE  H19R17684   2.736   2.402   9.107  0.7318  0.9585  0.6524
  158SAPE  H19S17685   2.849   2.523   9.069 -0.2948 -1.8695  3.0885
  158SAPE  C22017686   2.767   2.440   8.897 -0.3030  0.2506  0.4338
  158SAPE  H20R17687   2.677   2.391   8.854  1.2883 -1.7132 -0.8417
  158SAPE  H20S17688   2.843   2.359   8.890 -0.9277 -0.2597 -0.5812
  158SAPE  H20T17689   2.801   2.520   8.827 -0.9803  0.1103 -0.0585
  158SAPE   C3317690   1.928   2.922   9.765 -0.4896  0.2804  0.5711
  158SAPE   H3X17691   1.997   2.865   9.832  2.1663 -0.8586 -2.8385
  158SAPE   H3Y17692   1.952   3.030   9.766  0.3683  0.0964  0.8208
  158SAPE   C3417693   1.961   2.869   9.629 -0.5122 -0.2916 -0.0887
  158SAPE   H4X17694   1.884   2.902   9.556 -0.2937 -0.3304 -0.3402
  158SAPE   H4Y17695   1.939   2.762   9.651 -1.6757  0.4935  3.1066
  158SAPE   C3517696   2.104   2.904   9.579 -0.0315  0.6406 -0.1357
  158SAPE   H5X17697   2.124   2.835   9.494  1.5189 -1.3834  1.7381
  158SAPE   H5Y17698   2.167   2.880   9.667  2.0817  1.8104 -1.2461
  158SAPE   C3617699   2.141   3.042   9.537  0.5437 -1.2345  0.0710
  158SAPE   H6X17700   2.132   3.100   9.631 -0.7902 -0.0522 -0.7355
  158SAPE   H6Y17701   2.056   3.089   9.482  1.0596  1.3523  1.3335
  158SAPE   C3717702   2.273   3.077   9.473 -0.0673 -0.2857  0.7915
  158SAPE   H7X17703   2.293   3.029   9.375  3.6858 -0.4381  1.4911
  158SAPE   H7Y17704   2.341   3.024   9.543 -0.9297 -2.8678 -0.2042
  158SAPE   C3817705   2.316   3.226   9.462 -0.1922 -0.5097  0.0941
  158SAPE   H8X17706   2.324   3.276   9.561  0.5590  1.6082 -0.9786
  158SAPE   H8Y17707   2.243   3.289   9.408  0.6307  1.9388  1.6560
  158SAPE   C3917708   2.447   3.243   9.387 -0.5083  0.7749  0.7575
  158SAPE   H9X17709   2.425   3.208   9.284  3.6068 -0.7970  0.2304
  158SAPE   H9Y17710   2.526   3.176   9.426 -2.1957 -0.4837  2.1572
  158SAPE  C31017711   2.497   3.389   9.377  0.5456  0.4235 -0.0195
  158SAPE  H10X17712   2.448   3.450   9.456 -0.3576  2.3266 -1.9388
  158SAPE  H10Y17713   2.467   3.430   9.278  1.6773  1.0570 -0.1169
  158SAPE  C31117714   2.649   3.403   9.376  0.3515 -0.1214 -0.5866
  158SAPE  H11X17715   2.684   3.342   9.463 -1.2847 -2.0169 -1.1565
  158SAPE  H11Y17716   2.684   3.507   9.390 -0.4216  0.4168 -2.4340
  158SAPE  C31217717   2.723   3.341   9.258 -0.3028 -0.9478 -0.0549
  158SAPE  H12X17718   2.702   3.232   9.248 -1.1005 -0.8602  0.5537
  158SAPE  H12Y17719   2.830   3.358   9.283 -0.4049  0.2051 -0.3644
  158SAPE  C31317720   2.692   3.402   9.116 -0.1546  0.8611  0.7467
  158SAPE  H13X17721   2.585   3.433   9.111  0.0186  1.5237  1.0303
  158SAPE  H13Y17722   2.710   3.315   9.050 -1.3966  0.2578  1.1774
  158SAPE  C31417723   2.788   3.516   9.076  0.7038  0.2323 -0.8896
  158SAPE  H14X17724   2.883   3.461   9.060  1.8251  1.9473 -0.3801
  158SAPE  H14Y17725   2.798   3.583   9.163 -0.8981 -1.7654  0.9492
  158SAPE  C31517726   2.736   3.591   8.955 -0.7366 -0.1107  0.7114
  158SAPE  H15X17727   2.660   3.667   8.984  0.2353  0.7133  1.1490
  158SAPE  H15Y17728   2.699   3.515   8.881 -1.5675  0.5538  0.4287
  158SAPE  C31617729   2.855   3.670   8.881 -0.3718 -0.5250  0.8612
  158SAPE  H16X17730   2.937   3.603   8.848  0.1504  0.6728 -0.3392
  158SAPE  H16Y17731   2.898   3.738   8.958  1.4500 -1.1888  0.4632
  158SAPE  C31717732   2.797   3.751   8.754 -0.0070  0.2484  0.0415
  158SAPE  H17X17733   2.722   3.824   8.790 -0.0523  0.1808  0.0834
  158SAPE  H17Y17734   2.754   3.685   8.676 -0.3140 -0.7383  1.0276
  158SAPE  C31817735   2.912   3.829   8.686  0.4824  0.0389 -0.0795
  158SAPE  H18X17736   2.959   3.906   8.750 -2.2847  2.2536 -0.5178
  158SAPE  H18Y17737   2.858   3.886   8.608  1.1987  1.3055  0.3321
  158SAPE  H18Z17738   2.987   3.758   8.645  0.2236 -1.5822  2.0601
  159SAPE     N17739   0.336   3.701   6.093  0.8729 -0.2817 -0.7258
  159SAPE   HN117740   0.429   3.723   6.050  1.2965  0.6583  0.6162
  159SAPE   HN217741   0.267   3.675   6.020  0.0784 -1.1456  0.3155
  159SAPE   HN317742   0.318   3.795   6.134  1.4051 -0.6465  0.3803
  159SAPE   C1217743   0.369   3.591   6.198  0.3698  0.6790  0.0765
  159SAPE  H12A17744   0.396   3.637   6.296  2.2375  0.6774 -0.4179
  159SAPE  H12B17745   0.448   3.519   6.171  0.6922 -0.1229  2.8816
  159SAPE   C1117746   0.242   3.504   6.225 -0.5471  0.4130 -0.2199
  159SAPE  H11A17747   0.267   3.438   6.311 -1.1347 -1.4351 -1.4016
  159SAPE  H11B17748   0.228   3.429   6.144 -0.5886  0.0618  0.1079
  159SAPE     P17749   0.062   3.619   6.370  0.1581 -0.8438 -0.0104
  159SAPE   O1317750   0.095   3.756   6.404  0.5892 -0.7018  0.0008
  159SAPE   O1417751  -0.081   3.585   6.372  0.3827 -0.2664  0.1819
  159SAPE   O1217752   0.123   3.581   6.236  0.0375  0.1707  0.7773
  159SAPE   O1117753   0.130   3.528   6.482 -0.2856 -0.0021  0.2801
  159SAPE    C117754   0.198   3.582   6.603 -0.6170  0.1991  0.4312
  159SAPE    HA17755   0.266   3.666   6.576 -1.1880  1.1459  1.8253
  159SAPE    HB17756   0.116   3.626   6.664 -0.2127  1.5502  0.0462
  159SAPE    C217757   0.279   3.481   6.686  0.1524  0.5362  0.2721
  159SAPE    HS17758   0.343   3.526   6.765 -0.6213 -0.4914  1.5112
  159SAPE   O2117759   0.364   3.407   6.599  0.0282 -0.3546 -0.0544
  159SAPE   C2117760   0.459   3.465   6.534  0.7469 -1.3738  0.0815
  159SAPE   O2217761   0.489   3.584   6.535  0.2302 -0.4885 -0.7775
  159SAPE   C2217762   0.528   3.358   6.449 -0.2696  0.0355  0.0320
  159SAPE   H2R17763   0.541   3.261   6.502  1.4760 -0.2437 -0.8297
  159SAPE   H2S17764   0.474   3.340   6.353 -0.3541  0.2100  0.0464
  159SAPE    C317765   0.182   3.384   6.753 -0.2614 -0.1631  0.2300
  159SAPE    HX17766   0.103   3.349   6.683 -0.6816  1.4642 -0.1633
  159SAPE    HY17767   0.129   3.443   6.831 -0.4773  1.4007 -1.0407
  159SAPE   O3117768   0.254   3.279   6.817 -0.3484 -0.0459 -0.1053
  159SAPE   C3117769   0.213   3.157   6.789 -0.0152 -0.4881 -0.4763
  159SAPE   O3217770   0.119   3.127   6.716 -0.1339 -0.0952  0.1311
  159SAPE   C3217771   0.301   3.070   6.867 -0.2945  0.8365 -0.1879
  159SAPE   H2X17772   0.365   3.133   6.932  2.1330 -0.4633 -1.1953
  159SAPE   H2Y17773   0.375   3.022   6.801 -0.7125  0.6671 -0.5396
  159SAPE   C2317774   0.679   3.390   6.415  0.3270  0.3578 -0.1851
  159SAPE   H3R17775   0.694   3.481   6.353  3.7347  0.8309  1.1250
  159SAPE   H3S17776   0.725   3.309   6.355  0.5481 -1.2794  2.0432
  159SAPE   C2417777   0.780   3.412   6.538 -0.0673 -0.4569 -0.2427
  159SAPE   H4R17778   0.736   3.495   6.596  3.5048  3.0070 -2.0246
  159SAPE   H4S17779   0.873   3.457   6.498 -0.6728 -0.3029 -1.5170
  159SAPE   C2517780   0.808   3.286   6.608  0.4330 -0.2404 -0.6957
  159SAPE   H5R17781   0.849   3.214   6.536  1.1044  0.9795 -1.5649
  159SAPE   C2617782   0.789   3.249   6.731  0.3813  0.0056 -0.1442
  159SAPE   H6R17783   0.833   3.156   6.769  0.7246 -0.4321 -1.5606
  159SAPE   C2717784   0.728   3.332   6.848  0.2059  0.0023  0.5295
  159SAPE   H7R17785   0.755   3.439   6.842 -1.0119  0.2396 -2.5898
  159SAPE   H7S17786   0.784   3.293   6.936  1.8166  1.1032  0.0345
  159SAPE   C2817787   0.583   3.320   6.877 -0.1306  0.2012  0.1329
  159SAPE   H8R17788   0.535   3.247   6.810 -0.2024 -1.9077  2.3318
  159SAPE   C2917789   0.521   3.370   6.982  0.6546  0.2410 -0.0008
  159SAPE   H9R17790   0.412   3.363   6.976  0.7404 -0.3220 -3.8597
  159SAPE  C21017791   0.577   3.455   7.096  0.1397  0.0740 -0.0687
  159SAPE  H10R17792   0.594   3.556   7.052 -1.7434 -0.1168 -1.3510
  159SAPE  H10S17793   0.680   3.421   7.122  0.0494  0.6373  1.1101
  159SAPE  C21117794   0.485   3.464   7.214 -0.8349  0.4191 -0.0473
  159SAPE  H11R17795   0.506   3.394   7.296  1.0394  0.9109 -0.0618
  159SAPE  C21217796   0.373   3.533   7.216  0.5201 -0.0066  0.2454
  159SAPE  H12R17797   0.304   3.529   7.301 -1.3873 -1.8637 -1.2822
  159SAPE  C21317798   0.321   3.620   7.104  0.0477  0.2278  0.4832
  159SAPE  H13R17799   0.360   3.599   7.002 -0.7285  2.7316 -0.3881
  159SAPE  H13S17800   0.353   3.724   7.127 -1.6328  0.5321  1.5861
  159SAPE  C21417801   0.175   3.623   7.085  0.3538  0.4111  0.0257
  159SAPE  H14R17802   0.119   3.528   7.074  0.7125  0.2483 -0.4141
  159SAPE  C21517803   0.098   3.732   7.085  0.2083 -0.0796  0.2836
  159SAPE  H15R17804  -0.009   3.721   7.064  0.7939 -0.3044 -3.2978
  159SAPE  C21617805   0.136   3.885   7.109 -0.0851 -0.0496  0.1932
  159SAPE  H16R17806   0.129   3.942   7.014  1.3954 -0.0624  0.0418
  159SAPE  H16S17807   0.245   3.894   7.132 -0.0058  0.3442 -0.3055
  159SAPE  C21717808   0.056   3.950   7.226  0.3937  0.5643 -0.2156
  159SAPE  H17R17809   0.098   3.896   7.314  1.1392  1.0728 -0.2520
  159SAPE  H17S17810  -0.051   3.921   7.221  0.7053 -1.3607  2.2865
  159SAPE  C21817811   0.085   4.095   7.238  0.1803  0.7782 -0.0794
  159SAPE  H18R17812   0.033   4.134   7.328  0.8936  0.5996  0.4182
  159SAPE  H18S17813   0.045   4.151   7.151 -3.0470 -0.7095  0.3020
  159SAPE  C21917814   0.238   4.121   7.267  0.5040  0.1102 -0.5721
  159SAPE  H19R17815   0.303   4.087   7.183  1.4604  0.5758 -0.0278
  159SAPE  H19S17816   0.265   4.073   7.363  2.8446 -2.9703 -2.5839
  159SAPE  C22017817   0.258   4.272   7.294  0.3566  0.1875 -0.4397
  159SAPE  H20R17818   0.235   4.346   7.215 -0.4325  1.0288  0.5473
  159SAPE  H20S17819   0.366   4.288   7.317  0.9838 -2.7859 -0.8575
  159SAPE  H20T17820   0.191   4.296   7.380 -0.2406  0.7145 -1.0478
  159SAPE   C3317821   0.224   2.964   6.942  0.3493  0.6866 -0.2147
  159SAPE   H3X17822   0.162   2.906   6.870 -1.7847  0.4978  1.6508
  159SAPE   H3Y17823   0.157   3.012   7.017 -1.5255 -0.9476 -0.7749
  159SAPE   C3417824   0.318   2.863   7.012  0.2324 -0.4335  0.1106
  159SAPE   H4X17825   0.379   2.927   7.079  1.2204 -1.7314  0.4906
  159SAPE   H4Y17826   0.381   2.796   6.951  1.2799  0.0537  0.6350
  159SAPE   C3517827   0.235   2.765   7.100 -0.5476  0.4811 -0.7283
  159SAPE   H5X17828   0.172   2.706   7.029  1.0248 -0.2680 -1.5370
  159SAPE   H5Y17829   0.163   2.826   7.159 -1.4137 -0.3550 -0.8900
  159SAPE   C3617830   0.307   2.670   7.197  0.4689 -0.5690  0.2528
  159SAPE   H6X17831   0.369   2.619   7.121 -1.6473  0.7638 -2.5679
  159SAPE   H6Y17832   0.235   2.597   7.239  0.1492  0.0795  0.8681
  159SAPE   C3717833   0.383   2.732   7.321  0.2900  0.3947  0.4382
  159SAPE   H7X17834   0.320   2.801   7.380 -0.3729  0.1171  0.0729
  159SAPE   H7Y17835   0.467   2.795   7.285  0.7834  0.8640  2.3174
  159SAPE   C3817836   0.438   2.625   7.422 -0.3007 -0.8066  0.0798
  159SAPE   H8X17837   0.525   2.662   7.481 -1.7409  0.0065  1.7575
  159SAPE   H8Y17838   0.465   2.530   7.371  0.8077 -0.9075  0.8243
  159SAPE   C3917839   0.325   2.574   7.513 -0.0659  0.0035  0.2828
  159SAPE   H9X17840   0.339   2.466   7.535 -0.8689 -0.9627 -3.2713
  159SAPE   H9Y17841   0.227   2.567   7.461  0.9571 -2.8199 -1.5209
  159SAPE  C31017842   0.307   2.644   7.651 -0.7134 -0.4009 -0.0098
  159SAPE  H10X17843   0.248   2.735   7.625  0.0278  0.0833 -0.0083
  159SAPE  H10Y17844   0.409   2.677   7.679  0.2690 -0.3421 -3.2200
  159SAPE  C31117845   0.235   2.555   7.746 -0.1164  0.1159 -0.2352
  159SAPE  H11X17846   0.292   2.466   7.780  1.0840  0.7304 -0.5739
  159SAPE  H11Y17847   0.143   2.516   7.696  0.7238 -0.4996 -1.3635
  159SAPE  C31217848   0.201   2.636   7.871 -0.5224 -0.3506 -0.2214
  159SAPE  H12X17849   0.150   2.728   7.835 -0.7644 -0.7704 -0.9558
  159SAPE  H12Y17850   0.302   2.664   7.908  0.6484 -1.2895 -2.5566
  159SAPE  C31317851   0.130   2.564   7.983  0.6650 -0.0639 -0.9233
  159SAPE  H13X17852   0.178   2.473   8.024 -2.8293 -0.9796  1.6344
  159SAPE  H13Y17853   0.032   2.527   7.946 -1.3382  2.8109  1.0508
  159SAPE  C31417854   0.095   2.649   8.102 -0.1567 -0.0069  0.0706
  159SAPE  H14X17855   0.047   2.740   8.060  1.4217  1.1764  0.6873
  159SAPE  H14Y17856   0.186   2.696   8.147  0.6845  2.8035 -3.9905
  159SAPE  C31517857   0.014   2.583   8.224  0.7877 -0.8557  1.1600
  159SAPE  H15X17858  -0.083   2.538   8.192  0.4173  0.4908  0.2982
  159SAPE  H15Y17859  -0.023   2.665   8.289 -0.8146 -0.7059  0.1383
  159SAPE  C31617860   0.096   2.474   8.302 -0.7706  0.5023 -0.7242
  159SAPE  H16X17861   0.186   2.527   8.341 -0.5468 -0.9276  0.8511
  159SAPE  H16Y17862   0.127   2.398   8.227 -0.3095 -0.7594  0.6931
  159SAPE  C31717863   0.030   2.399   8.416  0.4484 -0.0845 -0.0387
  159SAPE  H17X17864  -0.067   2.354   8.384 -1.2692  3.2350  0.0712
  159SAPE  H17Y17865  -0.004   2.473   8.492  0.0249 -2.3921  2.1836
  159SAPE  C31817866   0.121   2.307   8.505  0.1067 -0.6332  0.3139
  159SAPE  H18X17867   0.225   2.346   8.509 -0.4035  0.7099  1.3541
  159SAPE  H18Y17868   0.134   2.212   8.450  0.6787  0.6393 -1.8636
  159SAPE  H18Z17869   0.085   2.288   8.609 -1.1622 -1.4305 -0.2451
  160SAPE     N17870   4.957   2.444   6.082 -0.0168  0.1206  0.1656
  160SAPE   HN117871   5.053   2.403   6.087 -0.1497 -0.0918  1.2831
  160SAPE   HN217872   4.899   2.417   6.164  1.8751  1.1533  1.9523
  160SAPE   HN317873   4.912   2.417   5.993  0.0385  1.5003 -0.3052
  160SAPE   C1217874   4.978   2.594   6.078  0.1302  0.2078  0.3149
  160SAPE  H12A17875   4.878   2.623   6.040 -0.4310 -0.1337  1.4797
  160SAPE  H12B17876   5.054   2.613   6.000  0.2789  1.7329  0.7974
  160SAPE   C1117877   5.028   2.655   6.208  0.0407  0.3869 -0.1571
  160SAPE  H11A17878   5.013   2.764   6.199 -0.2630  0.2901 -0.9239
  160SAPE  H11B17879   5.137   2.631   6.206  0.5217  2.4007  0.2397
  160SAPE     P17880   4.854   2.674   6.394 -0.0613  0.2728  0.2758
  160SAPE   O1317881   4.787   2.756   6.293 -0.6833  0.4941  1.0207
  160SAPE   O1417882   4.765   2.573   6.452 -0.0610 -0.1089 -0.0145
  160SAPE   O1217883   4.970   2.602   6.323  0.3380  0.1753 -0.0533
  160SAPE   O1117884   4.918   2.753   6.512  0.2055  0.0534  0.1111
  160SAPE    C117885   5.023   2.848   6.490  0.5073  0.3598 -0.3083
  160SAPE    HA17886   5.121   2.796   6.500  0.2300 -0.6322 -2.2629
  160SAPE    HB17887   5.019   2.891   6.388 -1.4140  1.4362  0.1783
  160SAPE    C217888   5.007   2.981   6.570 -0.4876 -0.1899  0.2024
  160SAPE    HS17889   5.099   3.031   6.532 -0.6757 -0.1798 -0.2482
  160SAPE   O2117890   5.013   2.952   6.711  0.2332 -0.2112 -0.3966
  160SAPE   C2117891   5.131   2.969   6.763  0.0011 -0.3522  0.1360
  160SAPE   O2217892   5.236   2.975   6.701  0.2748 -0.7034  0.1051
  160SAPE   C2217893   5.131   2.948   6.919 -0.1177 -0.7682 -0.0819
  160SAPE   H2R17894   5.091   3.044   6.958 -1.4613 -0.4874 -2.0300
  160SAPE   H2S17895   5.061   2.872   6.961 -1.1206  1.0713  1.7837
  160SAPE    C317896   4.895   3.078   6.530  0.4721  1.1484  0.4943
  160SAPE    HX17897   4.896   3.088   6.420 -1.1152  2.1889  0.5393
  160SAPE    HY17898   4.909   3.178   6.576  0.3927  2.2535 -1.7632
  160SAPE   O3117899   4.767   3.019   6.548  0.1612  0.0630 -0.2169
  160SAPE   C3117900   4.695   3.048   6.660  0.5820 -0.3436  0.7582
  160SAPE   O3217901   4.714   3.142   6.736  0.0633  1.3820  0.2911
  160SAPE   C3217902   4.582   2.938   6.665 -0.2805  0.6816  0.0711
  160SAPE   H2X17903   4.622   2.837   6.691 -2.7598  0.4980  3.8719
  160SAPE   H2Y17904   4.530   2.941   6.567 -1.3580  0.8581  0.6429
  160SAPE   C2317905   5.267   2.906   6.980  0.1461 -0.1272 -0.2414
  160SAPE   H3R17906   5.340   2.981   6.943 -1.2388  0.2700 -2.3453
  160SAPE   H3S17907   5.301   2.805   6.947  0.4611  0.4921 -1.9151
  160SAPE   C2417908   5.268   2.907   7.131  0.6409 -0.2679  0.0010
  160SAPE   H4R17909   5.364   2.864   7.165 -0.4696  0.0290  3.9870
  160SAPE   H4S17910   5.190   2.841   7.177  0.8505 -0.4240  0.1330
  160SAPE   C2517911   5.257   3.045   7.196  0.0105  0.2422  0.0218
  160SAPE   H5R17912   5.194   3.118   7.141  0.3183  1.2939  1.0284
  160SAPE   C2617913   5.312   3.093   7.309 -0.3591 -0.3014 -0.5607
  160SAPE   H6R17914   5.279   3.195   7.331 -3.0920 -0.6590 -2.4685
  160SAPE   C2717915   5.410   3.022   7.403  0.5811  0.1107  0.7415
  160SAPE   H7R17916   5.463   2.937   7.355  1.4963  0.7614  0.5698
  160SAPE   H7S17917   5.347   2.968   7.477 -1.8753  2.1902  0.3013
  160SAPE   C2817918   5.497   3.127   7.465 -0.2135  0.0096  0.1929
  160SAPE   H8R17919   5.540   3.193   7.389 -1.7394 -0.8764 -1.5080
  160SAPE   C2917920   5.516   3.145   7.595 -0.3066 -0.7320  0.2343
  160SAPE   H9R17921   5.580   3.231   7.623 -1.5979  0.3764 -0.0937
  160SAPE  C21017922   5.470   3.060   7.714  0.0832 -0.9630  0.3372
  160SAPE  H10R17923   5.371   3.016   7.690  0.4029 -0.9724 -1.0777
  160SAPE  H10S17924   5.441   3.120   7.803 -3.2941 -0.1818 -1.1497
  160SAPE  C21117925   5.575   2.954   7.740 -0.6500  0.1015 -0.2195
  160SAPE  H11R17926   5.647   2.930   7.660 -1.6672 -2.6006 -0.4128
  160SAPE  C21217927   5.594   2.894   7.862  0.0260 -0.1699  0.0242
  160SAPE  H12R17928   5.677   2.825   7.880 -1.0774 -1.6229 -0.2389
  160SAPE  C21317929   5.511   2.926   7.989 -0.1555  0.3801  0.2800
  160SAPE  H13R17930   5.404   2.937   7.960  0.1533 -0.1476 -1.1570
  160SAPE  H13S17931   5.536   3.027   8.030 -1.1987  1.1632 -0.9197
  160SAPE  C21417932   5.521   2.824   8.104 -0.0195 -0.0124 -0.0182
  160SAPE  H14R17933   5.572   2.729   8.082  2.2853  0.9981  0.6556
  160SAPE  C21517934   5.494   2.848   8.236 -0.4985  0.7761 -0.4247
  160SAPE  H15R17935   5.535   2.780   8.312 -1.4275  0.4488 -0.2065
  160SAPE  C21617936   5.438   2.975   8.296  0.4427 -0.1359 -0.2642
  160SAPE  H16R17937   5.341   2.951   8.345 -0.9613 -0.5565 -3.0711
  160SAPE  H16S17938   5.411   3.048   8.218  0.9093  0.8006  0.4343
  160SAPE  C21717939   5.545   3.046   8.392  0.2765  0.3008  0.1446
  160SAPE  H17R17940   5.516   3.150   8.416  1.9360  0.3719  2.1159
  160SAPE  H17S17941   5.648   3.046   8.349 -0.5345 -2.3294 -2.1111
  160SAPE  C21817942   5.552   2.968   8.525 -0.0572  0.6902 -0.0161
  160SAPE  H18R17943   5.582   2.862   8.510  1.3513  1.1180 -0.3921
  160SAPE  H18S17944   5.448   2.953   8.562 -0.2944  0.2805 -0.8314
  160SAPE  C21917945   5.647   3.028   8.635  0.0647  0.3797  0.7954
  160SAPE  H19R17946   5.646   2.962   8.724  2.9727  1.2890  1.6021
  160SAPE  H19S17947   5.606   3.126   8.667  0.8836  0.9689  0.0839
  160SAPE  C22017948   5.788   3.040   8.595 -0.3448 -0.2254  0.5643
  160SAPE  H20R17949   5.844   3.096   8.673 -0.2428  0.0833  0.2701
  160SAPE  H20S17950   5.801   3.098   8.502  4.0704 -1.6828  0.0106
  160SAPE  H20T17951   5.835   2.943   8.565  1.1380  0.0639  1.7886
  160SAPE   C3317952   4.493   2.955   6.788  0.2335 -0.0963 -0.1928
  160SAPE   H3X17953   4.392   2.910   6.789 -0.3942  1.2919 -0.0020
  160SAPE   H3Y17954   4.471   3.063   6.779  0.5971 -0.0290 -0.3163
  160SAPE   C3417955   4.542   2.936   6.931  0.5097  0.0195 -0.0042
  160SAPE   H4X17956   4.461   2.969   6.999 -0.3522 -2.4652  0.2977
  160SAPE   H4Y17957   4.628   3.004   6.953  0.8638 -0.3367 -0.2738
  160SAPE   C3517958   4.590   2.793   6.961 -0.1705  0.1038 -0.0412
  160SAPE   H5X17959   4.671   2.766   6.891  0.5666  1.6045  0.1840
  160SAPE   H5Y17960   4.509   2.725   6.927 -0.7150  1.2981 -1.2597
  160SAPE   C3617961   4.623   2.768   7.112 -0.1140  0.1394 -0.5000
  160SAPE   H6X17962   4.656   2.663   7.131 -1.2604 -0.0287  0.7153
  160SAPE   H6Y17963   4.533   2.785   7.174 -0.5446 -0.7292 -0.8776
  160SAPE   C3717964   4.732   2.869   7.160 -0.3989 -0.1037  0.2224
  160SAPE   H7X17965   4.685   2.970   7.148 -1.3494 -0.6914 -1.3347
  160SAPE   H7Y17966   4.818   2.874   7.090 -1.1000  1.1824 -0.6016
  160SAPE   C3817967   4.792   2.844   7.294  0.3806 -0.1297  0.1414
  160SAPE   H8X17968   4.827   2.740   7.308  0.2281 -0.1249  0.5788
  160SAPE   H8Y17969   4.707   2.855   7.365 -0.9928  4.8116 -1.8630
  160SAPE   C3917970   4.902   2.942   7.341  0.4273 -0.2218  0.2777
  160SAPE   H9X17971   4.887   3.039   7.289 -2.0755 -0.9004 -0.3518
  160SAPE   H9Y17972   4.999   2.906   7.300  1.2083  2.3265 -0.3107
  160SAPE  C31017973   4.908   2.977   7.490  0.0002 -0.4006 -0.0864
  160SAPE  H10X17974   4.801   2.999   7.512  0.3506 -0.3533  1.7343
  160SAPE  H10Y17975   4.959   3.071   7.517 -2.3415  0.7299  0.6768
  160SAPE  C31117976   4.961   2.862   7.574 -0.2799  0.2662  0.1253
  160SAPE  H11X17977   5.069   2.838   7.562 -0.3028 -0.4961  1.2982
  160SAPE  H11Y17978   4.897   2.773   7.557 -2.9343  1.3883  3.2341
  160SAPE  C31217979   4.958   2.892   7.721  0.1981 -0.3501 -0.5862
  160SAPE  H12X17980   5.030   2.975   7.737 -1.7891  1.5625 -1.1745
  160SAPE  H12Y17981   4.992   2.811   7.790  1.3155  0.5351 -0.0770
  160SAPE  C31317982   4.815   2.920   7.786  0.1502  0.8164 -1.0193
  160SAPE  H13X17983   4.746   2.837   7.759  0.0238  0.7102 -0.3841
  160SAPE  H13Y17984   4.773   3.007   7.731 -0.9424 -0.5149 -2.3335
  160SAPE  C31417985   4.814   2.957   7.933  0.3408 -0.7373 -0.2635
  160SAPE  H14X17986   4.844   2.866   7.990  1.8472 -1.7319 -2.4956
  160SAPE  H14Y17987   4.714   2.997   7.958  0.9756  2.3428 -2.0977
  160SAPE  C31517988   4.904   3.072   7.979  0.3321  0.4147  0.3148
  160SAPE  H15X17989   4.867   3.159   7.920  0.7755  0.3141 -0.1167
  160SAPE  H15Y17990   5.009   3.048   7.954  0.0274 -2.2220  1.2486
  160SAPE  C31617991   4.893   3.092   8.130  0.3888  0.2926 -0.6812
  160SAPE  H16X17992   4.787   3.097   8.161  1.5858 -0.5565  4.5321
  160SAPE  H16Y17993   4.941   3.188   8.156  0.0880 -0.4102  3.0645
  160SAPE  C31717994   4.943   2.975   8.225  0.9227  0.3132  0.1290
  160SAPE  H17X17995   4.871   2.892   8.209 -1.5306  2.3373 -0.0473
  160SAPE  H17Y17996   4.926   3.012   8.328  0.2600 -0.9887  0.5111
  160SAPE  C31817997   5.080   2.941   8.190  0.1071 -0.9124  0.2367
  160SAPE  H18X17998   5.098   2.920   8.082 -0.6039  2.8542 -0.7804
  160SAPE  H18Y17999   5.108   2.844   8.235  0.1948 -1.4398 -0.9085
  160SAPE  H18Z18000   5.161   3.012   8.219  0.7857 -2.0433  1.1975
  161SAPE     N18001   5.404   3.577   5.889 -0.2396 -0.1172  0.3556
  161SAPE   HN118002   5.401   3.475   5.870 -3.8339  0.0475 -0.7452
  161SAPE   HN218003   5.306   3.611   5.881 -0.4675 -0.9211 -0.3791
  161SAPE   HN318004   5.452   3.612   5.803 -1.8816 -1.0689 -1.0026
  161SAPE   C1218005   5.460   3.605   6.028  0.4316  0.3921 -0.5461
  161SAPE  H12A18006   5.428   3.705   6.064 -1.4897 -0.6463  0.8366
  161SAPE  H12B18007   5.569   3.594   6.012  0.2482  0.1625 -1.7149
  161SAPE   C1118008   5.421   3.500   6.138 -0.1806 -0.5849  0.8904
  161SAPE  H11A18009   5.482   3.532   6.225 -0.9842 -0.3669  1.3814
  161SAPE  H11B18010   5.452   3.402   6.097  0.4968 -0.6765  1.6198
  161SAPE     P18011   5.220   3.405   6.271  0.2979  0.1487 -0.3332
  161SAPE   O1318012   5.081   3.437   6.287 -0.3081 -0.2012 -0.2961
  161SAPE   O1418013   5.245   3.276   6.206 -0.6984  0.2753 -0.6650
  161SAPE   O1218014   5.283   3.516   6.170 -0.4608 -0.0232  0.4990
  161SAPE   O1118015   5.285   3.430   6.413 -0.2428  0.1913 -0.4249
  161SAPE    C118016   5.226   3.533   6.501  0.2371 -0.1732  0.3982
  161SAPE    HA18017   5.299   3.617   6.507 -1.1415  0.9964  1.7981
  161SAPE    HB18018   5.135   3.584   6.461 -0.2348 -0.5255  1.0000
  161SAPE    C218019   5.203   3.474   6.639 -0.1484  0.0922  0.0396
  161SAPE    HS18020   5.190   3.558   6.710  0.0752  0.9129 -0.8837
  161SAPE   O2118021   5.326   3.401   6.669  0.4355  0.5127 -0.6274
  161SAPE   C2118022   5.345   3.383   6.799 -0.0867  0.1165  0.8361
  161SAPE   O2218023   5.266   3.397   6.891  0.0589  0.5614  0.1120
  161SAPE   C2218024   5.490   3.327   6.815 -0.6031 -0.0034  0.7047
  161SAPE   H2R18025   5.498   3.246   6.739  1.1105  0.5967  0.2123
  161SAPE   H2S18026   5.562   3.403   6.779 -1.0154  0.2872  0.4734
  161SAPE    C318027   5.073   3.381   6.639  0.6547 -0.0095  0.4254
  161SAPE    HX18028   5.095   3.309   6.558 -0.3995  0.2967 -0.1421
  161SAPE    HY18029   4.985   3.435   6.597  0.2265 -0.1277  1.1520
  161SAPE   O3118030   5.037   3.302   6.753 -0.0311 -0.0411 -0.2849
  161SAPE   C3118031   4.978   3.383   6.848 -0.1998  0.4880  0.0204
  161SAPE   O3218032   4.941   3.493   6.820 -0.7669 -0.3663  0.4122
  161SAPE   C3218033   4.946   3.314   6.978 -0.3942  0.1629  0.2451
  161SAPE   H2X18034   5.031   3.245   6.997  0.5773  0.3153 -2.9723
  161SAPE   H2Y18035   4.852   3.255   6.969 -0.0428 -0.5339  0.9332
  161SAPE   C2318036   5.522   3.270   6.955  0.4249 -0.8238  0.7345
  161SAPE   H3R18037   5.436   3.204   6.979 -2.4530  2.6737  1.0077
  161SAPE   H3S18038   5.533   3.339   7.041  0.0099 -1.7892  1.5738
  161SAPE   C2418039   5.656   3.187   6.961 -0.1761  0.0754 -1.2127
  161SAPE   H4R18040   5.647   3.104   6.888  0.3163 -2.9042  1.8665
  161SAPE   H4S18041   5.664   3.142   7.062  0.7162 -0.6457 -1.5953
  161SAPE   C2518042   5.773   3.275   6.937  0.6051 -0.8218  0.0306
  161SAPE   H5R18043   5.809   3.284   6.833  0.5420 -0.7332  0.0161
  161SAPE   C2618044   5.842   3.338   7.032  0.2201  1.0913  0.1773
  161SAPE   H6R18045   5.934   3.390   7.002  1.8095 -1.1503  0.9538
  161SAPE   C2718046   5.802   3.350   7.179  0.3521  0.2242 -0.2240
  161SAPE   H7R18047   5.695   3.339   7.206  0.4180  2.3109  1.1932
  161SAPE   H7S18048   5.818   3.456   7.211  0.0905  0.9639 -2.4042
  161SAPE   C2818049   5.891   3.252   7.240 -0.3833 -0.0101  0.0801
  161SAPE   H8R18050   5.861   3.150   7.210 -3.9369  0.5778  1.2172
  161SAPE   C2918051   5.995   3.272   7.319  0.1100 -0.1708  0.1676
  161SAPE   H9R18052   6.056   3.183   7.342 -0.7481 -0.8696 -0.2256
  161SAPE  C21018053   6.036   3.410   7.375 -0.8330 -0.5432  0.4933
  161SAPE  H10R18054   5.988   3.493   7.319  0.0012 -0.0486  0.4958
  161SAPE  H10S18055   6.144   3.429   7.358 -0.9811 -0.2497 -0.1591
  161SAPE  C21118056   5.992   3.420   7.518  0.0470 -0.6822  0.1032
  161SAPE  H11R18057   5.883   3.437   7.519  0.2490  1.0130 -1.4418
  161SAPE  C21218058   6.066   3.409   7.632 -0.0004 -0.0765  0.1638
  161SAPE  H12R18059   6.016   3.414   7.729  1.2216 -0.9097  0.8585
  161SAPE  C21318060   6.217   3.396   7.651 -0.1394 -0.0748  0.1877
  161SAPE  H13R18061   6.272   3.434   7.562  0.2540 -0.1296  0.4051
  161SAPE  H13S18062   6.233   3.287   7.661 -0.3402 -0.1136  0.0897
  161SAPE  C21418063   6.264   3.476   7.772  0.5819  0.2696  0.9755
  161SAPE  H14R18064   6.234   3.582   7.769  1.2978  0.4787 -1.5814
  161SAPE  C21518065   6.324   3.439   7.886 -0.1683  0.0600  0.8606
  161SAPE  H15R18066   6.371   3.516   7.948  0.1881 -1.0647  2.0303
  161SAPE  C21618067   6.371   3.299   7.919 -0.1038 -0.1046  0.9369
  161SAPE  H16R18068   6.476   3.304   7.957  0.3588 -0.5168 -0.2268
  161SAPE  H16S18069   6.380   3.228   7.834 -0.5135 -0.6971  1.3802
  161SAPE  C21718070   6.271   3.242   8.025  0.2997  0.5462  0.4583
  161SAPE  H17R18071   6.291   3.133   8.028 -1.1926  0.1317 -1.7423
  161SAPE  H17S18072   6.167   3.242   7.986  0.0147  1.0557  1.2094
  161SAPE  C21818073   6.276   3.309   8.165  0.1636 -0.2889  0.1886
  161SAPE  H18R18074   6.292   3.418   8.148  1.8455 -0.6853 -1.1079
  161SAPE  H18S18075   6.368   3.269   8.214  0.6774  1.7247  0.9773
  161SAPE  C21918076   6.151   3.289   8.247  0.1261  0.2015  0.2627
  161SAPE  H19R18077   6.057   3.330   8.205 -1.6744 -0.9941  2.8604
  161SAPE  H19S18078   6.161   3.330   8.349 -3.3480 -1.7395  1.5477
  161SAPE  C22018079   6.119   3.140   8.264  0.1940  0.5073 -0.6036
  161SAPE  H20R18080   6.202   3.094   8.321 -2.4391 -1.4865  1.9597
  161SAPE  H20S18081   6.107   3.080   8.172 -0.1366  0.6104 -0.6287
  161SAPE  H20T18082   6.034   3.124   8.335  1.0929  0.2803  0.4517
  161SAPE   C3318083   4.946   3.424   7.087  0.0665 -1.0101 -0.5735
  161SAPE   H3X18084   4.852   3.483   7.077 -1.1569 -2.8255 -0.3583
  161SAPE   H3Y18085   5.042   3.480   7.078  0.0996 -1.0450 -0.4416
  161SAPE   C3418086   4.964   3.367   7.231 -0.1901  0.1562 -0.0022
  161SAPE   H4X18087   5.060   3.312   7.244 -1.4877 -1.8308  1.8089
  161SAPE   H4Y18088   4.888   3.289   7.252  0.8881 -0.7889  0.5628
  161SAPE   C3518089   4.961   3.467   7.344  0.2046 -1.0697 -0.6101
  161SAPE   H5X18090   4.867   3.525   7.352 -1.3722 -3.1708 -2.4504
  161SAPE   H5Y18091   5.037   3.547   7.337 -1.3365  0.6300  1.1345
  161SAPE   C3618092   4.994   3.394   7.471  0.1107 -0.0410  0.0134
  161SAPE   H6X18093   5.083   3.330   7.452 -1.6955 -2.6361 -0.2440
  161SAPE   H6Y18094   4.920   3.314   7.495  1.9558 -1.5587  0.9465
  161SAPE   C3718095   5.008   3.475   7.604  0.2211  0.3201 -0.2913
  161SAPE   H7X18096   4.917   3.536   7.626  0.6301  0.2730  1.7413
  161SAPE   H7Y18097   5.085   3.555   7.597  1.3693 -0.6827  0.5317
  161SAPE   C3818098   5.045   3.387   7.722  0.1650  0.2925 -0.0799
  161SAPE   H8X18099   5.151   3.358   7.707 -0.1689  0.1552 -2.5949
  161SAPE   H8Y18100   4.981   3.297   7.736  1.4518 -0.7360 -0.5828
  161SAPE   C3918101   5.041   3.461   7.861 -0.4290 -0.1222 -0.2463
  161SAPE   H9X18102   4.936   3.492   7.883 -1.4045 -2.4699 -1.2675
  161SAPE   H9Y18103   5.106   3.550   7.849  1.4331 -1.6040 -1.6184
  161SAPE  C31018104   5.095   3.377   7.978  1.0854 -0.0520  0.4943
  161SAPE  H10X18105   5.195   3.345   7.941  1.4486 -0.4147  1.7468
  161SAPE  H10Y18106   5.017   3.298   7.975 -0.0607  1.0442  0.6972
  161SAPE  C31118107   5.091   3.437   8.119 -0.2684 -0.1407  0.5101
  161SAPE  H11X18108   4.985   3.463   8.135 -0.6325  0.8968 -2.8473
  161SAPE  H11Y18109   5.150   3.529   8.101 -0.8971 -0.2002 -2.3521
  161SAPE  C31218110   5.158   3.347   8.222 -0.1003 -0.1054 -0.6018
  161SAPE  H12X18111   5.260   3.329   8.184  0.0328 -0.1813 -0.2157
  161SAPE  H12Y18112   5.113   3.249   8.248  1.8759 -0.5691  1.3892
  161SAPE  C31318113   5.175   3.430   8.349 -0.2443  1.0182 -0.0435
  161SAPE  H13X18114   5.230   3.522   8.319  2.1171 -0.2942 -0.0161
  161SAPE  H13Y18115   5.240   3.355   8.399 -1.7245 -1.0202 -1.0305
  161SAPE  C31418116   5.051   3.443   8.446  0.1018 -0.1889 -0.6905
  161SAPE  H14X18117   4.985   3.354   8.434  0.3055 -0.6456  1.2296
  161SAPE  H14Y18118   4.988   3.532   8.426 -0.5171 -0.2354  0.8959
  161SAPE  C31518119   5.086   3.461   8.595  0.4962  0.0617  0.1179
  161SAPE  H15X18120   5.133   3.376   8.649 -1.3889 -1.2544 -0.2051
  161SAPE  H15Y18121   4.992   3.477   8.653  0.2424  0.3655 -0.3801
  161SAPE  C31618122   5.168   3.587   8.611  0.2530 -1.0581  0.7007
  161SAPE  H16X18123   5.131   3.664   8.539  2.2641 -0.2513  0.4696
  161SAPE  H16Y18124   5.272   3.576   8.575  0.2752  1.0997 -0.0520
  161SAPE  C31718125   5.191   3.635   8.759 -0.3232 -0.8893  0.1463
  161SAPE  H17X18126   5.226   3.545   8.814  0.9632 -0.5713 -0.1219
  161SAPE  H17Y18127   5.096   3.660   8.810 -0.1505 -2.8438  1.5487
  161SAPE  C31818128   5.308   3.736   8.771  1.0920  0.2868 -0.5116
  161SAPE  H18X18129   5.292   3.778   8.873 -0.4157  0.1640 -0.6752
  161SAPE  H18Y18130   5.293   3.812   8.691  0.1188 -0.4807 -1.0785
  161SAPE  H18Z18131   5.405   3.683   8.764  2.0391  1.8395  0.2266
  162SAPE     N18132   0.907   5.357   6.267 -0.2278  0.3627  0.5268
  162SAPE   HN118133   0.961   5.281   6.311  1.2447  0.3838 -1.1396
  162SAPE   HN218134   0.836   5.322   6.199 -0.4919  3.0364 -0.7011
  162SAPE   HN318135   0.972   5.414   6.209  0.6861  1.6831  2.7428
  162SAPE   C1218136   0.830   5.433   6.372  0.4173 -0.1392  0.0997
  162SAPE  H12A18137   0.898   5.457   6.456 -0.4933 -2.3821  1.5585
  162SAPE  H12B18138   0.750   5.364   6.406  2.8107 -3.2829 -0.2244
  162SAPE   C1118139   0.775   5.571   6.317 -0.3391  0.2290 -0.2667
  162SAPE  H11A18140   0.854   5.638   6.275 -0.1591 -1.1021 -2.1522
  162SAPE  H11B18141   0.741   5.622   6.409  0.1331 -0.5971  0.3747
  162SAPE     P18142   0.581   5.671   6.180  0.8625  0.1731  0.1013
  162SAPE   O1318143   0.627   5.705   6.046 -0.0674 -0.3814  0.3944
  162SAPE   O1418144   0.442   5.631   6.194  0.0563  0.0834 -0.1754
  162SAPE   O1218145   0.668   5.550   6.227  0.3692  0.3631 -0.3227
  162SAPE   O1118146   0.613   5.788   6.273 -0.3970 -0.6780 -0.6471
  162SAPE    C118147   0.523   5.872   6.335 -0.2070 -0.1205  0.0146
  162SAPE    HA18148   0.535   5.973   6.289 -1.0296 -1.1675 -2.7213
  162SAPE    HB18149   0.419   5.836   6.327  0.5091 -2.2974 -0.0004
  162SAPE    C218150   0.554   5.875   6.490  0.2692 -0.7158  0.0742
  162SAPE    HS18151   0.649   5.931   6.505 -1.4315  2.1953  0.5515
  162SAPE   O2118152   0.561   5.741   6.543 -0.1542  0.2004  0.2794
  162SAPE   C2118153   0.461   5.659   6.543  0.2195 -0.4595  0.3920
  162SAPE   O2218154   0.345   5.684   6.520 -0.4714 -0.2158  0.3785
  162SAPE   C2218155   0.509   5.515   6.578  0.0907 -0.3396 -0.2445
  162SAPE   H2R18156   0.469   5.455   6.494  0.8185  0.0521 -0.8825
  162SAPE   H2S18157   0.619   5.509   6.564  0.2872  1.5627  0.1718
  162SAPE    C318158   0.456   5.964   6.566 -0.2588  0.3829 -0.1714
  162SAPE    HX18159   0.352   5.937   6.537 -0.9046  3.0771 -0.7230
  162SAPE    HY18160   0.464   6.069   6.531 -2.3044  1.2254  1.6198
  162SAPE   O3118161   0.484   5.957   6.710  0.3674  0.4870  0.1453
  162SAPE   C3118162   0.596   6.017   6.748  0.6375 -0.3278 -0.4191
  162SAPE   O3218163   0.662   6.091   6.678  0.4104  0.7474  0.2460
  162SAPE   C3218164   0.647   5.965   6.885  0.4983 -0.8106 -0.1735
  162SAPE   H2X18165   0.742   6.019   6.907 -1.1547  1.7923  0.9744
  162SAPE   H2Y18166   0.676   5.858   6.873  0.9933 -0.5091 -1.9584
  162SAPE   C2318167   0.481   5.465   6.717  0.3185 -0.0230 -0.1561
  162SAPE   H3R18168   0.474   5.354   6.724 -1.9517 -0.0522 -1.9440
  162SAPE   H3S18169   0.384   5.507   6.751  1.3802  1.9316  0.6051
  162SAPE   C2418170   0.587   5.519   6.823 -0.1465 -0.0404  0.0031
  162SAPE   H4R18171   0.558   5.488   6.925  0.7379 -0.2715  0.1872
  162SAPE   H4S18172   0.572   5.629   6.835 -0.3723  0.0668 -1.1221
  162SAPE   C2518173   0.733   5.497   6.791 -0.2493  0.1714 -0.1131
  162SAPE   H5R18174   0.774   5.517   6.691  1.5579 -1.0145  0.3513
  162SAPE   C2618175   0.831   5.455   6.872  0.6600  0.1791  0.2666
  162SAPE   H6R18176   0.934   5.470   6.835  0.9160  3.2076  1.8586
  162SAPE   C2718177   0.804   5.435   7.023 -0.3403  0.5239  0.8575
  162SAPE   H7R18178   0.877   5.367   7.072  0.5249  1.7143  1.2623
  162SAPE   H7S18179   0.713   5.371   7.028 -0.2339  0.0817 -1.5657
  162SAPE   C2818180   0.791   5.561   7.100 -0.4829  0.7552 -0.0233
  162SAPE   H8R18181   0.813   5.651   7.041 -0.7701 -0.2464 -1.7290
  162SAPE   C2918182   0.738   5.582   7.222  0.4271  1.1478  0.2349
  162SAPE   H9R18183   0.734   5.686   7.257 -1.6387  0.6963  1.4898
  162SAPE  C21018184   0.682   5.476   7.316 -0.1388  0.7007 -0.0474
  162SAPE  H10R18185   0.646   5.387   7.260  0.3570 -1.7341  3.2155
  162SAPE  H10S18186   0.592   5.515   7.368  1.0740  1.4851  1.5740
  162SAPE  C21118187   0.784   5.415   7.407 -0.1790  0.0381 -0.5257
  162SAPE  H11R18188   0.887   5.447   7.384 -0.7234  1.8664 -0.5869
  162SAPE  C21218189   0.763   5.363   7.534  0.3662  0.5107 -0.3340
  162SAPE  H12R18190   0.845   5.323   7.596 -1.1310 -0.4614  1.1208
  162SAPE  C21318191   0.629   5.338   7.597 -0.0470  1.0801 -0.7956
  162SAPE  H13R18192   0.629   5.233   7.633 -0.0414  1.1887 -0.4769
  162SAPE  H13S18193   0.557   5.343   7.513 -2.1117  0.6215  0.8619
  162SAPE  C21418194   0.583   5.427   7.706 -0.5200 -0.4580  0.1371
  162SAPE  H14R18195   0.589   5.533   7.676  2.1837 -1.1336 -2.0517
  162SAPE  C21518196   0.507   5.392   7.808 -0.0951 -0.0883 -0.2350
  162SAPE  H15R18197   0.479   5.473   7.876  0.8215 -0.5282  0.6927
  162SAPE  C21618198   0.452   5.263   7.858  0.7182  0.5722  0.2631
  162SAPE  H16R18199   0.494   5.173   7.809 -0.2677 -0.1074  0.6241
  162SAPE  H16S18200   0.342   5.253   7.842  1.0197 -1.1527 -0.8475
  162SAPE  C21718201   0.485   5.244   8.008 -0.2778 -0.2963  0.0319
  162SAPE  H17R18202   0.595   5.260   8.012  0.1198 -2.0770 -1.8158
  162SAPE  H17S18203   0.480   5.135   8.029  1.3207 -0.4804 -0.3914
  162SAPE  C21818204   0.407   5.328   8.114 -0.0937  0.7430  0.5093
  162SAPE  H18R18205   0.298   5.319   8.094  0.5031  1.0586 -3.6615
  162SAPE  H18S18206   0.422   5.437   8.101 -2.3266  1.1221  0.6597
  162SAPE  C21918207   0.446   5.287   8.252  0.0823 -0.1635 -0.3123
  162SAPE  H19R18208   0.557   5.295   8.259 -0.0918  1.5070  1.4359
  162SAPE  H19S18209   0.416   5.181   8.255 -0.6552  0.0523  0.1360
  162SAPE  C22018210   0.393   5.389   8.353  0.3788  0.7915 -0.0107
  162SAPE  H20R18211   0.400   5.349   8.457  0.5910 -0.4189 -0.4742
  162SAPE  H20S18212   0.288   5.411   8.322 -1.0103 -0.3313  3.3382
  162SAPE  H20T18213   0.442   5.488   8.342  2.5274 -0.1950  0.3282
  162SAPE   C3318214   0.546   5.991   6.999 -0.5014 -0.7099 -0.0932
  162SAPE   H3X18215   0.450   5.949   6.961 -0.1511  0.6256 -2.7343
  162SAPE   H3Y18216   0.538   6.102   7.002  0.4453 -0.6358  0.0132
  162SAPE   C3418217   0.591   5.940   7.137  0.4819 -0.4769  0.5872
  162SAPE   H4X18218   0.688   5.979   7.175  0.2911  1.3161 -0.6292
  162SAPE   H4Y18219   0.619   5.833   7.127  1.6057 -0.0516 -1.4951
  162SAPE   C3518220   0.486   5.950   7.254 -0.1557 -0.0805 -0.0515
  162SAPE   H5X18221   0.390   5.902   7.226 -0.0662 -0.4374  0.2473
  162SAPE   H5Y18222   0.471   6.059   7.267  0.7770 -0.1118  1.4730
  162SAPE   C3618223   0.543   5.886   7.385 -0.0055  0.2309  1.1116
  162SAPE   H6X18224   0.641   5.934   7.405 -0.6029  2.1696 -0.3806
  162SAPE   H6Y18225   0.532   5.775   7.378 -0.0184  0.3452 -2.0578
  162SAPE   C3718226   0.451   5.918   7.497  0.4605 -0.7803  0.4851
  162SAPE   H7X18227   0.349   5.889   7.463  0.9383 -0.7191 -1.0797
  162SAPE   H7Y18228   0.442   6.028   7.507 -0.5424 -0.7499 -0.4892
  162SAPE   C3818229   0.475   5.848   7.630 -0.1953  0.1081  0.2463
  162SAPE   H8X18230   0.583   5.854   7.657  0.3314  0.4372 -1.7351
  162SAPE   H8Y18231   0.451   5.740   7.621 -1.9186  0.4972 -0.1619
  162SAPE   C3918232   0.389   5.921   7.725  0.1560  0.7237  0.2291
  162SAPE   H9X18233   0.281   5.912   7.700  0.1068  0.6739  0.4557
  162SAPE   H9Y18234   0.421   6.027   7.721  0.9468  0.4449 -1.3060
  162SAPE  C31018235   0.406   5.865   7.868  0.0603  0.3784 -0.4898
  162SAPE  H10X18236   0.498   5.907   7.914 -0.4838  2.1868 -0.9842
  162SAPE  H10Y18237   0.406   5.754   7.865 -0.2133  0.3285  0.8516
  162SAPE  C31118238   0.291   5.899   7.970  0.1373 -0.0057  0.4726
  162SAPE  H11X18239   0.193   5.875   7.923  0.8183 -1.1185 -0.4268
  162SAPE  H11Y18240   0.308   6.003   8.003 -0.0547 -0.4775  2.1801
  162SAPE  C31218241   0.316   5.817   8.094  0.1083 -0.3263 -0.1131
  162SAPE  H12X18242   0.419   5.840   8.131  0.1424 -0.0342 -0.3955
  162SAPE  H12Y18243   0.326   5.710   8.065 -0.6798 -1.2628  2.7037
  162SAPE  C31318244   0.217   5.839   8.207  0.3219 -0.2679  0.5140
  162SAPE  H13X18245   0.116   5.802   8.177  0.3238  0.8744 -1.0310
  162SAPE  H13Y18246   0.202   5.948   8.219 -2.4276 -0.3968 -0.8128
  162SAPE  C31418247   0.255   5.773   8.341 -0.1072  0.1430 -0.2665
  162SAPE  H14X18248   0.302   5.673   8.337 -0.7283 -0.5208  4.0472
  162SAPE  H14Y18249   0.155   5.772   8.390 -0.0102 -1.9310 -0.0311
  162SAPE  C31518250   0.348   5.860   8.435 -0.2077  0.5855  0.8110
  162SAPE  H15X18251   0.295   5.957   8.446 -1.2494  0.1625 -0.2371
  162SAPE  H15Y18252   0.442   5.876   8.378  0.8138  2.3252  2.8522
  162SAPE  C31618253   0.383   5.786   8.565 -0.3027  0.1498 -0.1718
  162SAPE  H16X18254   0.421   5.686   8.535  0.3400 -0.1042  1.4191
  162SAPE  H16Y18255   0.295   5.770   8.631 -0.4363 -2.7218 -0.9222
  162SAPE  C31718256   0.495   5.868   8.638  0.1988  1.0582 -0.3301
  162SAPE  H17X18257   0.453   5.959   8.687 -2.3607  0.4831 -1.2803
  162SAPE  H17Y18258   0.566   5.911   8.564  1.4241  1.8894  1.2623
  162SAPE  C31818259   0.579   5.789   8.744 -0.1848 -0.1567  0.2359
  162SAPE  H18X18260   0.500   5.747   8.810 -0.0402 -2.2779 -0.8350
  162SAPE  H18Y18261   0.649   5.849   8.805  0.2247  0.8386 -1.1516
  162SAPE  H18Z18262   0.633   5.710   8.687  3.6696 -1.4260  5.0039
  163SAPE     N18263   3.558   3.957   6.646  0.4396  0.2860 -0.8450
  163SAPE   HN118264   3.562   3.962   6.750 -4.3152 -0.5596 -0.4128
  163SAPE   HN218265   3.633   4.023   6.617  0.7934  1.6101  2.5458
  163SAPE   HN318266   3.463   3.992   6.625  0.0078 -0.2702  0.1075
  163SAPE   C1218267   3.588   3.810   6.606  0.3408 -0.2975 -0.6190
  163SAPE  H12A18268   3.611   3.799   6.498  1.8845 -1.8740 -0.1575
  163SAPE  H12B18269   3.504   3.749   6.647  0.6133  1.0777  2.2408
  163SAPE   C1118270   3.712   3.761   6.681 -0.0684  0.0578  1.0366
  163SAPE  H11A18271   3.699   3.763   6.792 -0.9911 -2.5909  1.0634
  163SAPE  H11B18272   3.796   3.824   6.648 -1.3372  1.1063 -0.2946
  163SAPE     P18273   3.875   3.558   6.654  0.0482 -0.3255  0.6155
  163SAPE   O1318274   3.871   3.418   6.608  0.0904 -0.4848  0.5384
  163SAPE   O1418275   3.972   3.644   6.580 -0.6939 -1.0581 -0.4542
  163SAPE   O1218276   3.729   3.620   6.646  0.2565  0.2314  0.3062
  163SAPE   O1118277   3.906   3.570   6.807 -0.2264  0.1587 -0.4270
  163SAPE    C118278   4.028   3.543   6.875  1.0540  0.5255 -0.1236
  163SAPE    HA18279   4.067   3.451   6.828 -0.1743  0.1118 -0.3553
  163SAPE    HB18280   4.100   3.627   6.865  2.3094 -0.3305  1.2806
  163SAPE    C218281   4.005   3.523   7.025 -0.3228 -0.3135 -0.2438
  163SAPE    HS18282   4.102   3.491   7.070 -0.2213  2.0133  1.3881
  163SAPE   O2118283   3.910   3.426   7.050  0.0458  0.4637 -0.1119
  163SAPE   C2118284   3.948   3.300   7.024  0.8567  0.5484 -0.7375
  163SAPE   O2218285   4.056   3.266   6.975  0.2394  0.2915  0.7189
  163SAPE   C2218286   3.850   3.198   7.091 -0.3475 -1.0484 -0.1049
  163SAPE   H2R18287   3.841   3.224   7.199 -0.7006  0.8774 -0.5694
  163SAPE   H2S18288   3.749   3.209   7.045  0.5000 -1.8442 -2.2777
  163SAPE    C318289   3.977   3.658   7.103 -0.5155  0.5183 -0.1043
  163SAPE    HX18290   3.867   3.673   7.098 -0.9191 -0.3524  3.5017
  163SAPE    HY18291   4.025   3.739   7.044  2.4516 -1.8612 -1.1909
  163SAPE   O3118292   4.020   3.653   7.241  0.5038 -0.2232 -0.0092
  163SAPE   C3118293   4.098   3.756   7.291  0.0088  0.1800 -0.1872
  163SAPE   O3218294   4.108   3.866   7.241  0.2475 -0.3132  0.3624
  163SAPE   C3218295   4.159   3.700   7.419  0.3252 -0.3712  0.4771
  163SAPE   H2X18296   4.243   3.633   7.391 -0.2076 -1.8689  2.2707
  163SAPE   H2Y18297   4.076   3.643   7.467 -1.1512  1.5896  0.3794
  163SAPE   C2318298   3.888   3.046   7.075 -1.1020 -0.2420 -0.1455
  163SAPE   H3R18299   3.998   3.039   7.088 -0.8699  0.4388 -1.4971
  163SAPE   H3S18300   3.869   3.026   6.967  0.7660 -0.2755 -0.4969
  163SAPE   C2418301   3.839   2.940   7.180 -0.8501  0.0437  0.1223
  163SAPE   H4R18302   3.866   2.972   7.283 -0.5041  0.6763 -0.1584
  163SAPE   H4S18303   3.894   2.847   7.157  1.9553  1.4753  0.5682
  163SAPE   C2518304   3.690   2.911   7.162 -0.3655 -0.2565  0.3437
  163SAPE   H5R18305   3.668   2.861   7.067  0.4299 -0.6876  0.3823
  163SAPE   C2618306   3.588   2.932   7.256 -0.0852 -0.1944 -0.0773
  163SAPE   H6R18307   3.491   2.885   7.232  0.0086  0.0676 -1.0262
  163SAPE   C2718308   3.605   2.978   7.398 -0.1242  0.2225  0.1829
  163SAPE   H7R18309   3.508   3.025   7.425 -0.6576  0.1052 -1.4543
  163SAPE   H7S18310   3.681   3.058   7.401  0.3221 -0.2051  0.5413
  163SAPE   C2818311   3.659   2.876   7.497  0.5051  0.2940 -0.3638
  163SAPE   H8R18312   3.713   2.788   7.459  0.2728 -0.5702  1.2258
  163SAPE   C2918313   3.651   2.890   7.632  0.2659 -0.0348 -0.1702
  163SAPE   H9R18314   3.709   2.819   7.693 -1.3340 -1.3281 -0.0997
  163SAPE  C21018315   3.574   2.999   7.704  0.2150 -0.2011 -0.1227
  163SAPE  H10R18316   3.516   3.065   7.637 -0.0032  2.0794  2.1723
  163SAPE  H10S18317   3.646   3.066   7.756  0.5138 -2.3712  2.4947
  163SAPE  C21118318   3.478   2.942   7.805 -0.3449  0.5283 -0.2086
  163SAPE  H11R18319   3.423   2.854   7.769  1.7276 -0.8605 -0.1899
  163SAPE  C21218320   3.467   2.956   7.939 -0.0157  0.2526  0.0894
  163SAPE  H12R18321   3.391   2.900   7.995 -0.2982  1.0716  0.5349
  163SAPE  C21318322   3.545   3.054   8.027 -0.1450 -0.4456  0.6059
  163SAPE  H13R18323   3.589   3.134   7.964 -0.8417 -0.3335  0.2511
  163SAPE  H13S18324   3.625   2.996   8.078  1.4359  0.0341 -1.1952
  163SAPE  C21418325   3.470   3.125   8.134 -0.4101  0.3278 -0.1929
  163SAPE  H14R18326   3.380   3.185   8.114 -0.8352 -0.4653 -0.6943
  163SAPE  C21518327   3.498   3.136   8.269  0.1725  0.0418  0.0493
  163SAPE  H15R18328   3.435   3.208   8.324 -1.6200 -1.0474 -0.5050
  163SAPE  C21618329   3.607   3.075   8.353  0.3196 -0.1582 -0.9771
  163SAPE  H16R18330   3.695   3.080   8.286  0.6490  1.7127 -0.4621
  163SAPE  H16S18331   3.583   2.971   8.385  2.7043 -0.0604  1.4185
  163SAPE  C21718332   3.643   3.160   8.475  0.5448 -0.1086  0.6166
  163SAPE  H17R18333   3.727   3.102   8.520 -0.5113 -0.5031  2.1730
  163SAPE  H17S18334   3.570   3.165   8.559  0.2081 -0.2369  0.3287
  163SAPE  C21818335   3.694   3.303   8.444  0.2092  0.4351  0.2421
  163SAPE  H18R18336   3.623   3.352   8.374 -1.0955 -1.5386  0.1113
  163SAPE  H18S18337   3.792   3.301   8.391  0.6679 -0.4002  1.0820
  163SAPE  C21918338   3.714   3.395   8.570  0.6189  0.0908 -0.2917
  163SAPE  H19R18339   3.774   3.484   8.543 -0.1248  0.8929  0.6067
  163SAPE  H19S18340   3.746   3.334   8.657 -0.7146 -2.2184 -1.3242
  163SAPE  C22018341   3.581   3.452   8.621  0.0688  0.2199  0.4465
  163SAPE  H20R18342   3.530   3.511   8.542  0.1090  0.2420  0.4365
  163SAPE  H20S18343   3.581   3.498   8.723 -1.1316  1.7556 -0.2128
  163SAPE  H20T18344   3.502   3.376   8.636 -2.0843  2.7001  2.7686
  163SAPE   C3318345   4.200   3.805   7.529  0.0222 -0.5783 -0.7175
  163SAPE   H3X18346   4.125   3.886   7.523 -1.0719 -1.6318 -1.6662
  163SAPE   H3Y18347   4.299   3.854   7.512  0.1254 -0.2636  0.6532
  163SAPE   C3418348   4.201   3.749   7.675  0.0204 -0.4880 -0.3276
  163SAPE   H4X18349   4.273   3.666   7.691  0.0760 -0.2617  0.7102
  163SAPE   H4Y18350   4.099   3.715   7.703 -0.2856  1.8727  1.8007
  163SAPE   C3518351   4.232   3.869   7.767 -0.0198 -0.9402  0.1603
  163SAPE   H5X18352   4.151   3.944   7.766  0.9533  0.2582  2.4819
  163SAPE   H5Y18353   4.322   3.924   7.732 -1.9657  0.9776 -2.1404
  163SAPE   C3618354   4.251   3.817   7.910 -0.2095  0.1101 -0.1569
  163SAPE   H6X18355   4.305   3.720   7.911 -0.1777  0.1299  1.2480
  163SAPE   H6Y18356   4.147   3.804   7.947 -0.9971 -0.0316 -2.2477
  163SAPE   C3718357   4.323   3.917   8.007  0.3620 -0.2553 -0.4599
  163SAPE   H7X18358   4.290   4.020   7.981  0.7450  0.3009  1.1620
  163SAPE   H7Y18359   4.434   3.921   7.999  0.6695 -3.2742  0.7955
  163SAPE   C3818360   4.295   3.872   8.147 -0.5380 -0.1247 -0.0316
  163SAPE   H8X18361   4.336   3.774   8.178 -0.2884 -0.2742 -0.8165
  163SAPE   H8Y18362   4.184   3.870   8.156 -0.5019 -1.6019  0.3428
  163SAPE   C3918363   4.341   3.966   8.265  0.0371 -0.2342 -0.4479
  163SAPE   H9X18364   4.272   3.960   8.352 -1.6718  2.2375 -1.5081
  163SAPE   H9Y18365   4.332   4.068   8.222 -0.8428  0.5993  1.5854
  163SAPE  C31018366   4.485   3.961   8.317 -0.4789  0.3593  0.4581
  163SAPE  H10X18367   4.546   4.019   8.244 -0.9086 -2.0113 -1.9217
  163SAPE  H10Y18368   4.526   3.858   8.318  0.4720  0.7223  0.1135
  163SAPE  C31118369   4.489   4.036   8.449 -0.5395  0.3065  0.0943
  163SAPE  H11X18370   4.598   4.030   8.469 -0.7245  2.2654  2.0843
  163SAPE  H11Y18371   4.453   3.978   8.537  0.6349  0.3220  0.6053
  163SAPE  C31218372   4.447   4.178   8.441 -0.5926 -0.2892 -0.2944
  163SAPE  H12X18373   4.336   4.184   8.434 -0.8176 -3.4400 -0.8892
  163SAPE  H12Y18374   4.485   4.213   8.343 -2.9012  1.4178 -0.6616
  163SAPE  C31318375   4.493   4.255   8.565  0.0698  0.3972 -0.2302
  163SAPE  H13X18376   4.599   4.228   8.585 -0.6144 -0.6024  2.4740
  163SAPE  H13Y18377   4.432   4.220   8.650 -0.7136 -2.0627 -1.7167
  163SAPE  C31418378   4.481   4.412   8.539 -0.1535 -1.3074 -0.5583
  163SAPE  H14X18379   4.375   4.439   8.518 -0.0617 -1.5162 -1.3134
  163SAPE  H14Y18380   4.543   4.429   8.449 -0.3936  3.7929 -0.0524
  163SAPE  C31518381   4.549   4.495   8.640 -0.8875  0.0174 -0.1220
  163SAPE  H15X18382   4.620   4.432   8.697 -0.8166  1.1199  1.0730
  163SAPE  H15Y18383   4.471   4.539   8.707  1.5922  1.4572  2.0086
  163SAPE  C31618384   4.628   4.616   8.581 -0.1607 -0.6972 -0.2004
  163SAPE  H16X18385   4.558   4.677   8.519 -0.4246 -0.6181  0.1723
  163SAPE  H16Y18386   4.699   4.576   8.506  1.7413  1.9921  0.0013
  163SAPE  C31718387   4.700   4.700   8.689  0.0900  0.0972 -0.1648
  163SAPE  H17X18388   4.759   4.776   8.633 -0.9897  0.9861 -0.1422
  163SAPE  H17Y18389   4.778   4.638   8.737 -0.6770  0.1395  1.1769
  163SAPE  C31818390   4.626   4.762   8.810 -0.0426 -0.3790  0.5647
  163SAPE  H18X18391   4.689   4.837   8.861  1.1702  1.5842 -3.3887
  163SAPE  H18Y18392   4.594   4.676   8.872  0.5312 -0.7530  0.3562
  163SAPE  H18Z18393   4.542   4.823   8.770 -0.7973 -0.8869  1.3273
  164SAPE     N18394   6.177   0.078   6.036  0.3220  0.0999  0.1798
  164SAPE   HN118395   6.125   0.144   5.975  1.5517  1.0800  0.1491
  164SAPE   HN218396   6.247   0.028   5.978 -0.0241 -2.4913  1.8555
  164SAPE   HN318397   6.113   0.001   6.066 -1.8686  1.8578  0.3261
  164SAPE   C1218398   6.236   0.113   6.172  0.3676  0.1880  0.1866
  164SAPE  H12A18399   6.211   0.025   6.235 -0.7563  0.1590 -0.2745
  164SAPE  H12B18400   6.183   0.201   6.215  2.5107  0.6498  2.0687
  164SAPE   C1118401   6.387   0.133   6.165 -0.0597 -0.2203 -0.2067
  164SAPE  H11A18402   6.433   0.034   6.144  3.7908  0.7934  2.3772
  164SAPE  H11B18403   6.427   0.163   6.264 -1.9836 -0.1193  0.5757
  164SAPE     P18404   6.404   0.377   6.070 -0.3305 -0.2042 -0.5164
  164SAPE   O1318405   6.536   0.437   6.090 -0.1780 -0.8239  0.1922
  164SAPE   O1418406   6.330   0.420   5.956 -0.0259 -0.7360 -0.1096
  164SAPE   O1218407   6.433   0.222   6.058 -0.2292  0.8164  0.0145
  164SAPE   O1118408   6.320   0.390   6.203  0.4329 -0.6135  0.4452
  164SAPE    C118409   6.297   0.528   6.235  1.0383 -0.0957 -0.2487
  164SAPE    HA18410   6.391   0.576   6.268 -0.5261  1.7782  1.7410
  164SAPE    HB18411   6.259   0.582   6.146  0.4455  0.6495  0.4419
  164SAPE    C218412   6.185   0.548   6.340 -0.7245 -0.1699  0.6043
  164SAPE    HS18413   6.189   0.655   6.371  3.4927 -0.3265  1.1299
  164SAPE   O2118414   6.198   0.461   6.448 -0.0831  0.0989 -0.0205
  164SAPE   C2118415   6.258   0.500   6.553 -0.2412  0.6583 -0.3429
  164SAPE   O2218416   6.338   0.595   6.564 -0.5174  0.2663 -0.3362
  164SAPE   C2218417   6.228   0.400   6.664  0.1107 -0.4320 -0.3625
  164SAPE   H2R18418   6.121   0.370   6.654  0.0742  0.3806 -3.5266
  164SAPE   H2S18419   6.310   0.326   6.671  2.5016  2.1424  1.0953
  164SAPE    C318420   6.059   0.528   6.266  0.1780 -0.1227  0.3336
  164SAPE    HX18421   6.059   0.441   6.197  0.0351  0.0462  0.1197
  164SAPE    HY18422   6.046   0.602   6.184 -1.6494 -1.7422 -0.9368
  164SAPE   O3118423   5.943   0.532   6.354  0.9660  1.1033 -0.1954
  164SAPE   C3118424   5.890   0.416   6.391 -0.2453  0.1567  0.6478
  164SAPE   O3218425   5.920   0.310   6.336 -0.0043  0.4912 -0.4445
  164SAPE   C3218426   5.786   0.436   6.508 -0.2522  0.2675  0.1370
  164SAPE   H2X18427   5.711   0.512   6.478 -2.0339 -1.2960  0.5223
  164SAPE   H2Y18428   5.854   0.452   6.595 -0.9554 -1.4481  1.0535
  164SAPE   C2318429   6.254   0.469   6.796  1.1964 -0.0189 -0.2061
  164SAPE   H3R18430   6.358   0.499   6.819  1.4352 -1.2683  0.4448
  164SAPE   H3S18431   6.241   0.388   6.871 -1.2978  0.6968  0.2373
  164SAPE   C2418432   6.138   0.565   6.838 -0.7197 -0.1136  0.0287
  164SAPE   H4R18433   6.135   0.645   6.761 -2.3612  0.4632  0.6583
  164SAPE   H4S18434   6.180   0.616   6.927 -0.8628  1.2514 -0.6534
  164SAPE   C2518435   6.009   0.504   6.883  0.5992 -0.1284 -0.3378
  164SAPE   H5R18436   5.947   0.456   6.806  2.3738 -1.9355 -0.7120
  164SAPE   C2618437   5.964   0.500   7.015 -0.3451  0.5174  0.4695
  164SAPE   H6R18438   5.877   0.436   7.038  0.2965 -1.3513 -1.9285
  164SAPE   C2718439   6.037   0.536   7.137 -0.0646  0.1155  0.4265
  164SAPE   H7R18440   6.145   0.509   7.132 -0.6542 -2.5537  0.6735
  164SAPE   H7S18441   5.997   0.477   7.222 -0.6781  1.1200  0.8400
  164SAPE   C2818442   6.041   0.686   7.172 -0.1523  0.6288  0.3754
  164SAPE   H8R18443   6.064   0.748   7.084 -1.1630  0.2092 -0.2068
  164SAPE   C2918444   6.025   0.735   7.293 -0.5752 -0.2196  0.2600
  164SAPE   H9R18445   6.020   0.845   7.295  1.5904  0.0919 -3.4618
  164SAPE  C21018446   5.986   0.668   7.423 -0.7575  0.2726 -0.0120
  164SAPE  H10R18447   5.909   0.594   7.395 -0.0603  0.1668 -1.8292
  164SAPE  H10S18448   5.949   0.746   7.492 -3.1179 -1.2718  0.5844
  164SAPE  C21118449   6.103   0.589   7.477  0.1952 -0.4493 -0.2444
  164SAPE  H11R18450   6.177   0.552   7.404  0.3168 -1.6919  0.4714
  164SAPE  C21218451   6.145   0.557   7.606  0.2829 -0.0380 -0.2146
  164SAPE  H12R18452   6.237   0.503   7.633  1.1178  2.8673  3.6745
  164SAPE  C21318453   6.067   0.603   7.725 -0.7432  1.0464  0.1727
  164SAPE  H13R18454   6.012   0.698   7.709 -2.8395 -0.2329 -0.7618
  164SAPE  H13S18455   6.144   0.638   7.796 -0.5453  0.1987  0.3856
  164SAPE  C21418456   5.985   0.482   7.779 -0.2337  0.1413  0.7106
  164SAPE  H14R18457   5.988   0.393   7.714  0.2348 -0.5511  1.6575
  164SAPE  C21518458   5.906   0.477   7.885 -0.1797 -0.0892  0.1616
  164SAPE  H15R18459   5.842   0.388   7.891 -0.6278  0.1390 -1.0749
  164SAPE  C21618460   5.884   0.593   7.978 -0.1730 -0.0174  0.3318
  164SAPE  H16R18461   5.809   0.661   7.931 -0.4157 -0.9767 -0.7079
  164SAPE  H16S18462   5.976   0.654   7.994  1.0038 -1.5331 -0.4265
  164SAPE  C21718463   5.810   0.566   8.108  0.0189  0.1777 -0.3576
  164SAPE  H17R18464   5.718   0.505   8.097 -0.6478  0.1776  3.7180
  164SAPE  H17S18465   5.769   0.652   8.164  2.0027 -0.3831  2.1703
  164SAPE  C21818466   5.899   0.497   8.212  1.2493  0.0843  0.3704
  164SAPE  H18R18467   6.002   0.538   8.204  0.4885  1.7351 -2.8584
  164SAPE  H18S18468   5.919   0.394   8.175 -0.2922 -0.0213 -0.2682
  164SAPE  C21918469   5.848   0.506   8.353  0.4817 -0.0142 -0.4903
  164SAPE  H19R18470   5.772   0.426   8.342  1.6159 -1.3731  0.9742
  164SAPE  H19S18471   5.801   0.604   8.374 -0.6075 -0.3561 -1.2736
  164SAPE  C22018472   5.953   0.465   8.460  0.4015 -1.4196 -0.4994
  164SAPE  H20R18473   6.030   0.539   8.492 -1.5214  0.2662  0.4351
  164SAPE  H20S18474   6.025   0.389   8.423  2.5499  0.3316 -0.1365
  164SAPE  H20T18475   5.907   0.415   8.548  2.5498  0.3267  1.7737
  164SAPE   C3318476   5.711   0.298   6.531  0.1588 -0.2648  0.3931
  164SAPE   H3X18477   5.788   0.240   6.587  0.6063 -0.0838 -0.0254
  164SAPE   H3Y18478   5.679   0.247   6.438  0.5169  0.6091 -0.2243
  164SAPE   C3418479   5.587   0.317   6.624 -0.3540 -0.3207  0.5682
  164SAPE   H4X18480   5.518   0.230   6.626 -0.3633 -0.3478  3.5057
  164SAPE   H4Y18481   5.542   0.408   6.579  1.4707  1.0549  1.3437
  164SAPE   C3518482   5.622   0.352   6.770  0.3623  0.5137 -0.6138
  164SAPE   H5X18483   5.688   0.441   6.774 -0.9418  1.5025 -0.4127
  164SAPE   H5Y18484   5.676   0.264   6.812  1.1212  0.6246 -1.3307
  164SAPE   C3618485   5.495   0.385   6.853 -0.1668  0.1072  0.0290
  164SAPE   H6X18486   5.427   0.297   6.850  1.6040 -1.3112  0.1163
  164SAPE   H6Y18487   5.451   0.472   6.800  1.6124  0.6707 -0.5609
  164SAPE   C3718488   5.537   0.416   6.999  0.4859  0.0612  0.3949
  164SAPE   H7X18489   5.447   0.445   7.056  0.4449  0.6633  0.0392
  164SAPE   H7Y18490   5.604   0.505   6.995  0.8776 -0.1671  1.5686
  164SAPE   C3818491   5.614   0.301   7.066 -0.3669  0.1612  0.0525
  164SAPE   H8X18492   5.704   0.292   7.001 -0.2966  2.4273 -0.2330
  164SAPE   H8Y18493   5.548   0.211   7.072 -0.6562  0.4644  1.9029
  164SAPE   C3918494   5.670   0.320   7.208  0.1207 -0.6886  0.2730
  164SAPE   H9X18495   5.736   0.410   7.211 -2.5430  1.3874  1.0764
  164SAPE   H9Y18496   5.728   0.229   7.236  1.5517  0.7895  2.4711
  164SAPE  C31018497   5.557   0.324   7.302  1.0304  0.8286  0.6457
  164SAPE  H10X18498   5.498   0.231   7.289  1.5295  0.3694  1.5947
  164SAPE  H10Y18499   5.488   0.405   7.269 -1.9138 -0.7770  2.4634
  164SAPE  C31118500   5.607   0.335   7.451 -0.2178 -0.3163 -0.2298
  164SAPE  H11X18501   5.684   0.415   7.449 -1.3503  0.7981 -2.0153
  164SAPE  H11Y18502   5.673   0.246   7.468 -0.1187 -0.3662 -0.8547
  164SAPE  C31218503   5.502   0.342   7.567 -0.6027 -0.6194  1.0572
  164SAPE  H12X18504   5.450   0.245   7.574 -1.9991  0.0657  0.5930
  164SAPE  H12Y18505   5.426   0.422   7.554  0.3126  0.0170 -0.7502
  164SAPE  C31318506   5.569   0.368   7.701  0.3312  0.0767 -0.2802
  164SAPE  H13X18507   5.626   0.463   7.693 -0.2070  0.2896 -2.5866
  164SAPE  H13Y18508   5.632   0.284   7.735 -1.1952  0.5557  4.4209
  164SAPE  C31418509   5.463   0.364   7.812 -0.1921 -0.1026 -0.4513
  164SAPE  H14X18510   5.437   0.258   7.833  0.6965 -0.1606  0.4477
  164SAPE  H14Y18511   5.364   0.395   7.772 -0.5575 -1.0521 -0.3055
  164SAPE  C31518512   5.506   0.424   7.950  0.3272 -0.0577 -0.2942
  164SAPE  H15X18513   5.566   0.515   7.929 -0.6283  0.7860  0.5179
  164SAPE  H15Y18514   5.563   0.346   8.006 -1.0293 -1.2779 -0.5449
  164SAPE  C31618515   5.382   0.455   8.037 -0.8468 -0.4329 -0.3240
  164SAPE  H16X18516   5.322   0.362   8.050 -2.1402  0.4872  0.4121
  164SAPE  H16Y18517   5.317   0.522   7.977 -0.9615 -1.4132 -1.3321
  164SAPE  C31718518   5.435   0.527   8.164  0.0045  0.4673 -0.3334
  164SAPE  H17X18519   5.503   0.605   8.123  2.6427 -1.1676  0.7102
  164SAPE  H17Y18520   5.500   0.456   8.219  1.0069 -0.4886 -2.6029
  164SAPE  C31818521   5.331   0.592   8.252  0.0454  0.0133 -0.6727
  164SAPE  H18X18522   5.274   0.668   8.195 -0.8369  0.1248  0.3367
  164SAPE  H18Y18523   5.387   0.655   8.325  0.6490  2.4109 -3.0495
  164SAPE  H18Z18524   5.253   0.522   8.288  0.9281 -0.0538  1.2200
  165SAPE     N18525   1.763   3.806   6.252  1.0047 -0.5471  0.5500
  165SAPE   HN118526   1.826   3.732   6.216 -1.2669 -0.4275 -4.4588
  165SAPE   HN218527   1.683   3.820   6.187  2.4556 -0.6051 -1.3177
  165SAPE   HN318528   1.810   3.898   6.250 -1.5246  0.8937 -2.5593
  165SAPE   C1218529   1.719   3.774   6.398  0.0773 -0.2503 -0.0221
  165SAPE  H12A18530   1.812   3.797   6.455  0.4717  0.2484 -0.8617
  165SAPE  H12B18531   1.697   3.665   6.399  2.2126 -0.7255  0.4066
  165SAPE   C1118532   1.617   3.876   6.443  0.3288 -0.2507  0.4401
  165SAPE  H11A18533   1.655   3.977   6.415  2.1883 -1.3207 -1.0957
  165SAPE  H11B18534   1.612   3.886   6.553 -1.8663  4.3693  0.1474
  165SAPE     P18535   1.430   3.918   6.247  0.2293  0.1326 -0.3184
  165SAPE   O1318536   1.540   3.937   6.149  0.3067 -0.0741  0.5405
  165SAPE   O1418537   1.313   3.840   6.204  0.5162 -0.0095 -0.3900
  165SAPE   O1218538   1.482   3.859   6.392  0.0231  0.0908 -0.1656
  165SAPE   O1118539   1.379   4.066   6.281  0.4399  0.0845  0.3015
  165SAPE    C118540   1.248   4.074   6.346 -0.8896  0.1183  0.1362
  165SAPE    HA18541   1.175   4.091   6.264  3.1415 -0.2636 -3.8901
  165SAPE    HB18542   1.221   3.987   6.410 -0.9175  1.1961  1.6383
  165SAPE    C218543   1.246   4.189   6.457 -0.3319 -0.2408 -0.3472
  165SAPE    HS18544   1.256   4.289   6.411 -1.8592 -0.1629 -0.5435
  165SAPE   O2118545   1.354   4.162   6.546  0.0990 -0.0238 -0.1021
  165SAPE   C2118546   1.466   4.238   6.533 -0.4287 -0.5755  0.1419
  165SAPE   O2218547   1.501   4.316   6.446  0.3796 -0.7807  0.6925
  165SAPE   C2218548   1.558   4.209   6.647  0.0532 -0.6264 -0.5393
  165SAPE   H2R18549   1.485   4.203   6.731 -0.3019  0.8021 -0.7135
  165SAPE   H2S18550   1.606   4.110   6.633  0.9596 -0.4284  1.0324
  165SAPE    C318551   1.112   4.193   6.542 -0.4462  0.2123  0.4945
  165SAPE    HX18552   1.096   4.090   6.580  0.1483  0.2242  0.7786
  165SAPE    HY18553   1.033   4.209   6.466 -1.3493 -0.9481  1.1591
  165SAPE   O3118554   1.105   4.290   6.643  0.4423 -0.2259  0.0317
  165SAPE   C3118555   1.077   4.414   6.598  0.0390  0.4200 -0.1238
  165SAPE   O3218556   1.071   4.456   6.487  0.5232  0.4327  0.3367
  165SAPE   C3218557   1.058   4.499   6.725  0.1881 -0.2990 -0.3446
  165SAPE   H2X18558   1.047   4.440   6.819 -3.1649  0.4105 -0.1659
  165SAPE   H2Y18559   0.956   4.542   6.720  0.5009  0.3604 -1.5778
  165SAPE   C2318560   1.667   4.315   6.688  0.8742 -0.3456  0.0866
  165SAPE   H3R18561   1.630   4.407   6.737  2.1532  0.2158  0.0622
  165SAPE   H3S18562   1.731   4.347   6.603  0.4826 -0.6800 -0.3338
  165SAPE   C2418563   1.779   4.251   6.779  0.2057  0.2586 -0.1015
  165SAPE   H4R18564   1.820   4.168   6.719 -0.4270  2.3303 -3.6786
  165SAPE   H4S18565   1.709   4.215   6.858 -0.6641  0.1184 -0.9236
  165SAPE   C2518566   1.895   4.336   6.825 -0.0626  0.3267 -0.8612
  165SAPE   H5R18567   1.959   4.373   6.743 -1.6175  2.5727 -1.1649
  165SAPE   C2618568   1.922   4.351   6.955 -0.2406 -0.0644 -0.3022
  165SAPE   H6R18569   2.012   4.407   6.983 -0.7191  0.6958 -0.2643
  165SAPE   C2718570   1.846   4.292   7.074  0.3306 -0.8894  0.1348
  165SAPE   H7R18571   1.921   4.292   7.157  1.8247  1.0711 -1.1244
  165SAPE   H7S18572   1.815   4.187   7.053 -2.1791  0.2934 -2.7977
  165SAPE   C2818573   1.725   4.369   7.118  0.3437 -0.3317  0.4539
  165SAPE   H8R18574   1.694   4.451   7.053  1.9962  0.3725  0.4957
  165SAPE   C2918575   1.658   4.341   7.233 -0.1363 -0.0581  0.6847
  165SAPE   H9R18576   1.580   4.411   7.267  0.3768 -1.0507  4.3587
  165SAPE  C21018577   1.692   4.235   7.327 -0.4394 -0.1660  0.3465
  165SAPE  H10R18578   1.755   4.158   7.280  0.9502  0.5391  1.0050
  165SAPE  H10S18579   1.595   4.183   7.342  0.7518 -2.4060  0.6935
  165SAPE  C21118580   1.759   4.288   7.451 -0.2829  0.6784 -0.6960
  165SAPE  H11R18581   1.862   4.321   7.437 -1.1855  5.0086  1.3200
  165SAPE  C21218582   1.712   4.279   7.574  0.4197  1.2613 -0.6074
  165SAPE  H12R18583   1.774   4.318   7.656 -3.0323  0.5526  2.6074
  165SAPE  C21318584   1.583   4.235   7.623 -0.0280  0.1269 -0.1250
  165SAPE  H13R18585   1.616   4.149   7.685  0.4981  0.1462 -0.3684
  165SAPE  H13S18586   1.514   4.201   7.542 -1.2607  1.8299  0.1672
  165SAPE  C21418587   1.528   4.341   7.700 -0.2427  0.1917  0.5637
  165SAPE  H14R18588   1.503   4.426   7.634 -1.7536  1.0163  2.1141
  165SAPE  C21518589   1.517   4.347   7.833  0.3799 -0.4444 -0.6559
  165SAPE  H15R18590   1.477   4.443   7.868  2.1359  0.2349 -0.4446
  165SAPE  C21618591   1.537   4.244   7.940 -0.2449  0.3391 -0.2105
  165SAPE  H16R18592   1.562   4.148   7.891 -2.3229  0.7594 -2.3096
  165SAPE  H16S18593   1.440   4.238   7.994 -0.5364  0.0316 -0.7624
  165SAPE  C21718594   1.646   4.290   8.041  0.5690 -0.6353 -0.0133
  165SAPE  H17R18595   1.611   4.376   8.101  1.9114 -0.5186  0.6164
  165SAPE  H17S18596   1.728   4.323   7.974 -1.9681 -1.5139 -3.8643
  165SAPE  C21818597   1.692   4.179   8.131  0.3330  0.5483  0.3818
  165SAPE  H18R18598   1.721   4.097   8.062  3.2889 -0.0993  2.1903
  165SAPE  H18S18599   1.597   4.146   8.178 -0.2738 -0.0417 -1.2017
  165SAPE  C21918600   1.808   4.209   8.219  0.0506 -0.9058 -0.8418
  165SAPE  H19R18601   1.831   4.118   8.278  1.6869 -1.6068 -2.4629
  165SAPE  H19S18602   1.778   4.288   8.290 -2.2514 -0.9797 -1.6453
  165SAPE  C22018603   1.939   4.246   8.149 -0.0086  0.4307 -0.1415
  165SAPE  H20R18604   2.012   4.271   8.229  0.4509 -0.8207 -0.1358
  165SAPE  H20S18605   1.936   4.329   8.076 -0.4203 -2.4211 -3.6213
  165SAPE  H20T18606   1.985   4.157   8.101 -0.8593 -0.7123  1.0545
  165SAPE   C3318607   1.169   4.604   6.719 -0.7163 -0.3911  0.0105
  165SAPE   H3X18608   1.129   4.680   6.788  0.5574 -2.1267  2.8344
  165SAPE   H3Y18609   1.186   4.665   6.627  1.0114 -0.5309  0.2008
  165SAPE   C3418610   1.302   4.556   6.771  0.3733  0.3782 -1.5352
  165SAPE   H4X18611   1.382   4.633   6.773  0.9930 -0.2706 -0.2997
  165SAPE   H4Y18612   1.330   4.477   6.697 -0.3910 -0.7940 -0.6156
  165SAPE   C3518613   1.301   4.494   6.909 -0.5309  0.1206 -0.4042
  165SAPE   H5X18614   1.408   4.466   6.920 -0.8636 -1.9534 -1.7887
  165SAPE   H5Y18615   1.242   4.401   6.922 -1.3322  0.6382 -0.2921
  165SAPE   C3618616   1.256   4.584   7.023 -0.0431 -0.2545 -0.6123
  165SAPE   H6X18617   1.146   4.586   7.007  0.0310 -0.5630 -1.1822
  165SAPE   H6Y18618   1.299   4.685   7.007 -1.1798  0.7841  2.2597
  165SAPE   C3718619   1.293   4.529   7.166 -0.0950 -0.6878 -0.3307
  165SAPE   H7X18620   1.402   4.527   7.185  0.4078  2.7608 -2.0481
  165SAPE   H7Y18621   1.261   4.425   7.190 -0.3708 -1.3849 -3.3016
  165SAPE   C3818622   1.229   4.612   7.278 -0.5935 -0.1262  0.0246
  165SAPE   H8X18623   1.118   4.607   7.285 -0.5862 -0.4953 -0.0754
  165SAPE   H8Y18624   1.246   4.720   7.260 -2.9035  0.0938 -1.2609
  165SAPE   C3918625   1.289   4.570   7.416 -0.1800 -0.2717 -0.4949
  165SAPE   H9X18626   1.399   4.567   7.400 -0.2069 -2.5951 -0.6037
  165SAPE   H9Y18627   1.259   4.472   7.459  2.8032 -1.9225 -1.8772
  165SAPE  C31018628   1.268   4.682   7.519 -0.1582  0.4429  0.2976
  165SAPE  H10X18629   1.157   4.686   7.521 -0.3747 -2.7116  2.4382
  165SAPE  H10Y18630   1.307   4.775   7.473  0.5306  0.4726  0.9234
  165SAPE  C31118631   1.332   4.666   7.646 -0.4252  0.5833  0.4126
  165SAPE  H11X18632   1.442   4.671   7.634 -0.5017 -1.3180 -1.8032
  165SAPE  H11Y18633   1.315   4.557   7.660  3.2981 -0.1422  0.3168
  165SAPE  C31218634   1.262   4.730   7.768 -0.3523  0.5371 -0.2963
  165SAPE  H12X18635   1.152   4.720   7.756 -0.3660  2.0168 -1.9099
  165SAPE  H12Y18636   1.278   4.837   7.742 -0.8408  0.9016  0.8460
  165SAPE  C31318637   1.319   4.705   7.903 -0.6189 -0.2618  0.4463
  165SAPE  H13X18638   1.429   4.718   7.914 -0.2970 -2.4248  0.0891
  165SAPE  H13Y18639   1.299   4.597   7.917  2.0425 -0.9858 -0.6456
  165SAPE  C31418640   1.249   4.792   8.009  0.3199 -0.2223 -0.6540
  165SAPE  H14X18641   1.247   4.735   8.104  2.5574 -2.8841 -2.0592
  165SAPE  H14Y18642   1.143   4.811   7.981  1.0178  0.8362 -2.8010
  165SAPE  C31518643   1.302   4.938   8.017  0.2971 -0.3787  0.0891
  165SAPE  H15X18644   1.219   5.003   8.053  0.7972  0.6912 -0.6429
  165SAPE  H15Y18645   1.335   4.965   7.915  1.0862 -1.2158  0.1062
  165SAPE  C31618646   1.421   4.967   8.106 -0.4940 -0.9467 -0.2943
  165SAPE  H16X18647   1.507   4.903   8.078  1.0499 -0.8298  3.5729
  165SAPE  H16Y18648   1.397   4.930   8.209 -1.5566 -0.7717 -0.4661
  165SAPE  C31718649   1.488   5.105   8.100  0.0240  0.0011 -0.5724
  165SAPE  H17X18650   1.545   5.115   8.194 -0.3820 -0.4525 -0.2680
  165SAPE  H17Y18651   1.407   5.180   8.095 -1.2436 -1.3295 -0.9840
  165SAPE  C31818652   1.587   5.111   7.985  0.3646 -0.3130  0.2857
  165SAPE  H18X18653   1.644   5.206   7.981  2.4420 -1.5359 -1.6734
  165SAPE  H18Y18654   1.531   5.121   7.889  3.7764  0.8248 -1.7667
  165SAPE  H18Z18655   1.659   5.026   7.980  1.0423  0.2742 -0.1038
  166SAPE     N18656   5.104   6.733   5.946 -0.2236 -0.1276 -0.4317
  166SAPE   HN118657   5.188   6.695   5.992  0.5139  1.6085 -0.2805
  166SAPE   HN218658   5.053   6.653   5.903  0.8838 -0.9614 -0.2142
  166SAPE   HN318659   5.127   6.778   5.854  1.2297 -1.3792 -0.7155
  166SAPE   C1218660   5.030   6.817   6.036  0.1203  0.1978 -0.3659
  166SAPE  H12A18661   5.017   6.777   6.139 -1.7619 -0.2261 -0.7245
  166SAPE  H12B18662   4.929   6.837   5.992  0.0929 -0.8864 -0.8260
  166SAPE   C1118663   5.111   6.944   6.043 -1.0596 -0.6771 -0.1824
  166SAPE  H11A18664   5.049   7.012   6.104 -2.0896 -1.7529  0.0117
  166SAPE  H11B18665   5.120   6.993   5.943 -0.0710  3.6954  1.8266
  166SAPE     P18666   5.370   6.982   6.084  0.1065 -0.0523 -0.0221
  166SAPE   O1318667   5.468   6.883   6.030  0.5271  0.4214  0.3055
  166SAPE   O1418668   5.345   7.105   6.004  0.1594  0.4374 -0.0105
  166SAPE   O1218669   5.234   6.913   6.107 -0.4793 -0.3113  0.4591
  166SAPE   O1118670   5.410   7.024   6.224  0.5751 -0.6662 -0.2282
  166SAPE    C118671   5.383   6.933   6.338 -0.5500 -0.0966  0.2424
  166SAPE    HA18672   5.392   6.829   6.300 -2.1639 -0.1368 -0.0986
  166SAPE    HB18673   5.471   6.942   6.407 -0.9852 -0.0192  0.7949
  166SAPE    C218674   5.249   6.948   6.411  0.3537  0.5108  0.2800
  166SAPE    HS18675   5.169   6.955   6.334  0.2051 -1.4703  0.2086
  166SAPE   O2118676   5.262   7.061   6.503 -0.4913 -0.7354  0.1861
  166SAPE   C2118677   5.223   7.176   6.461  0.3150  0.3286 -0.8353
  166SAPE   O2218678   5.181   7.200   6.348  0.2035 -0.3662  0.0442
  166SAPE   C2218679   5.254   7.286   6.566  0.0691  0.3648  0.0893
  166SAPE   H2R18680   5.252   7.231   6.662 -0.1934  0.6693  0.2615
  166SAPE   H2S18681   5.357   7.321   6.543  0.1172  0.9354  1.1183
  166SAPE    C318682   5.201   6.823   6.489 -0.2526  0.2771 -0.4479
  166SAPE    HX18683   5.193   6.753   6.403  0.6777 -0.6941  0.2394
  166SAPE    HY18684   5.105   6.851   6.537  0.2708 -0.4747  1.1007
  166SAPE   O3118685   5.303   6.777   6.578 -0.2043  0.9802  0.6352
  166SAPE   C3118686   5.286   6.809   6.703  0.7847 -0.5710  0.7038
  166SAPE   O3218687   5.189   6.874   6.747 -0.0149 -0.1890 -0.0898
  166SAPE   C3218688   5.392   6.739   6.787 -0.3039 -0.2456 -0.3416
  166SAPE   H2X18689   5.487   6.788   6.757 -0.5194 -0.3834 -1.2476
  166SAPE   H2Y18690   5.402   6.631   6.764  0.9827  0.2835 -2.5771
  166SAPE   C2318691   5.157   7.403   6.549 -0.3571  0.1555  0.2184
  166SAPE   H3R18692   5.057   7.354   6.555 -1.6967  2.2366 -2.7365
  166SAPE   H3S18693   5.164   7.454   6.451 -0.5258  1.4933  0.8828
  166SAPE   C2418694   5.164   7.500   6.669 -0.2709  0.1265 -0.3705
  166SAPE   H4R18695   5.157   7.443   6.764 -2.1728  1.1243  0.1339
  166SAPE   H4S18696   5.071   7.561   6.664 -1.1143 -0.8883  1.8023
  166SAPE   C2518697   5.288   7.582   6.675 -0.4546  0.0092 -0.7035
  166SAPE   H5R18698   5.313   7.617   6.573 -0.2087  1.7695 -0.0705
  166SAPE   C2618699   5.367   7.617   6.780  0.5566  0.3434  0.7952
  166SAPE   H6R18700   5.447   7.692   6.768 -0.2301  1.0572 -0.1996
  166SAPE   C2718701   5.353   7.566   6.920 -0.1465  0.2943  0.5040
  166SAPE   H7R18702   5.418   7.476   6.920 -0.9373 -0.2936  0.1716
  166SAPE   H7S18703   5.249   7.538   6.948  0.5167  0.9133  3.9566
  166SAPE   C2818704   5.415   7.660   7.024 -0.8530 -0.0311  0.5033
  166SAPE   H8R18705   5.442   7.761   6.990 -1.1678 -0.0920  0.0641
  166SAPE   C2918706   5.454   7.639   7.154  0.0457 -0.2184 -0.3010
  166SAPE   H9R18707   5.502   7.718   7.213  0.0872 -0.4389 -0.0363
  166SAPE  C21018708   5.448   7.512   7.228  0.3772  1.1347  0.6381
  166SAPE  H10R18709   5.445   7.420   7.165 -0.6953  0.2427  1.9302
  166SAPE  H10S18710   5.344   7.505   7.267  0.0985 -0.5208 -0.3066
  166SAPE  C21118711   5.559   7.478   7.323 -0.2814 -0.1644 -1.1265
  166SAPE  H11R18712   5.655   7.453   7.275  0.9505  2.4141 -0.1936
  166SAPE  C21218713   5.551   7.471   7.455  0.0412  0.4779  0.0096
  166SAPE  H12R18714   5.645   7.444   7.505 -0.0508 -2.8174 -1.3553
  166SAPE  C21318715   5.423   7.494   7.541 -0.4077  0.6175  0.2106
  166SAPE  H13R18716   5.417   7.426   7.629  2.1527  0.2259  0.1709
  166SAPE  H13S18717   5.328   7.478   7.487 -1.8503  0.1090  2.7399
  166SAPE  C21418718   5.421   7.634   7.590 -0.2423  0.9733 -0.4600
  166SAPE  H14R18719   5.377   7.719   7.535 -2.9836  0.1341  0.2785
  166SAPE  C21518720   5.486   7.680   7.695 -0.0038 -0.1312 -0.3330
  166SAPE  H15R18721   5.485   7.788   7.714 -0.5667  0.0904 -1.4975
  166SAPE  C21618722   5.573   7.595   7.785 -0.3147 -0.6032 -0.0740
  166SAPE  H16R18723   5.677   7.631   7.796 -0.7981  0.3900  1.5345
  166SAPE  H16S18724   5.594   7.492   7.750  0.7097 -0.3542 -0.2160
  166SAPE  C21718725   5.516   7.585   7.925 -0.3144  0.2312  0.3308
  166SAPE  H17R18726   5.591   7.544   7.997 -1.8916  0.2437  2.0503
  166SAPE  H17S18727   5.433   7.512   7.917  0.1060 -0.2171  0.0035
  166SAPE  C21818728   5.468   7.719   7.989 -0.5193  0.6030 -0.4122
  166SAPE  H18R18729   5.363   7.744   7.963 -0.3537  0.4051 -1.3035
  166SAPE  H18S18730   5.542   7.801   7.976  0.3153  0.0359  0.6044
  166SAPE  C21918731   5.465   7.714   8.148 -0.1303 -0.5799  0.2115
  166SAPE  H19R18732   5.561   7.676   8.189 -0.3701  0.1799  1.5628
  166SAPE  H19S18733   5.387   7.637   8.161  0.0024 -0.6922  0.3436
  166SAPE  C22018734   5.420   7.840   8.211 -0.4752  0.3341 -0.8085
  166SAPE  H20R18735   5.482   7.922   8.168 -0.1526  0.0044 -0.9849
  166SAPE  H20S18736   5.416   7.826   8.321  0.4780 -0.9847 -0.9210
  166SAPE  H20T18737   5.318   7.876   8.186  0.0002  2.2221 -0.2042
  166SAPE   C3318738   5.365   6.764   6.940 -0.2283  0.2159 -0.3782
  166SAPE   H3X18739   5.260   6.740   6.965 -0.5910  2.0207 -0.0006
  166SAPE   H3Y18740   5.373   6.875   6.948  1.5061  0.0793  0.3426
  166SAPE   C3418741   5.462   6.690   7.033  0.3153  0.6208  0.0354
  166SAPE   H4X18742   5.570   6.712   7.020  0.5571  1.7243  3.2151
  166SAPE   H4Y18743   5.438   6.584   7.009 -0.3277 -0.0530  3.2901
  166SAPE   C3518744   5.427   6.714   7.182 -0.2041 -0.4539 -0.4356
  166SAPE   H5X18745   5.321   6.680   7.187  0.6489 -3.9207 -2.4260
  166SAPE   H5Y18746   5.426   6.825   7.191  0.2445 -0.4969  0.1607
  166SAPE   C3618747   5.519   6.642   7.284 -0.3326  0.9046 -0.4159
  166SAPE   H6X18748   5.626   6.671   7.276  0.7216 -1.9544  1.6949
  166SAPE   H6Y18749   5.507   6.533   7.266 -2.0679  1.2052 -1.3138
  166SAPE   C3718750   5.472   6.674   7.421  0.7236  0.5325 -0.0838
  166SAPE   H7X18751   5.375   6.623   7.434  0.0386  2.2783  2.6716
  166SAPE   H7Y18752   5.461   6.784   7.433  0.3387  0.4081  0.7963
  166SAPE   C3818753   5.569   6.607   7.521  0.1587  0.0005 -1.0256
  166SAPE   H8X18754   5.673   6.622   7.484  0.6755  0.2053  0.4237
  166SAPE   H8Y18755   5.569   6.497   7.537  1.3817  0.0588 -0.4762
  166SAPE   C3918756   5.576   6.682   7.663 -0.2852  0.0196  0.0362
  166SAPE   H9X18757   5.615   6.786   7.664 -0.3193  0.0335  0.8068
  166SAPE   H9Y18758   5.636   6.616   7.730 -2.6084 -0.5887  1.6757
  166SAPE  C31018759   5.439   6.699   7.720  0.5570  0.3739  0.2556
  166SAPE  H10X18760   5.399   6.595   7.715  4.9853 -1.6058  1.6486
  166SAPE  H10Y18761   5.388   6.778   7.660  1.4844  0.5284 -0.3474
  166SAPE  C31118762   5.453   6.732   7.873  0.2506  0.0757 -0.0534
  166SAPE  H11X18763   5.504   6.830   7.884 -1.4035  0.8521  0.9431
  166SAPE  H11Y18764   5.525   6.664   7.923  0.6514  0.2016 -0.4498
  166SAPE  C31218765   5.313   6.729   7.936  0.0764  0.2713 -0.0806
  166SAPE  H12X18766   5.271   6.628   7.956 -0.3594  0.3619 -0.5121
  166SAPE  H12Y18767   5.244   6.773   7.860  1.4427 -1.3405 -2.3971
  166SAPE  C31318768   5.302   6.816   8.062 -0.3224  0.7714  0.5817
  166SAPE  H13X18769   5.220   6.771   8.122 -0.5678 -0.4761 -0.6595
  166SAPE  H13Y18770   5.280   6.921   8.033  2.3343  0.6582 -2.3181
  166SAPE  C31418771   5.426   6.831   8.161 -0.1430 -0.1333 -0.6992
  166SAPE  H14X18772   5.495   6.908   8.119  0.9463  0.3153  1.7427
  166SAPE  H14Y18773   5.470   6.730   8.170 -1.5877 -0.9380 -2.1722
  166SAPE  C31518774   5.381   6.899   8.293  0.2252 -0.6965  0.1089
  166SAPE  H15X18775   5.298   6.847   8.345 -1.8904  2.3047 -0.0197
  166SAPE  H15Y18776   5.332   6.996   8.272  0.3273 -0.1225  2.2644
  166SAPE  C31618777   5.500   6.922   8.384 -0.0027  0.4824  0.1995
  166SAPE  H16X18778   5.545   7.013   8.339 -0.2614 -0.7405 -2.8336
  166SAPE  H16Y18779   5.585   6.851   8.376 -1.1239 -1.0097  1.0676
  166SAPE  C31718780   5.467   6.973   8.527 -0.2933 -0.1621 -0.3916
  166SAPE  H17X18781   5.563   6.978   8.583  0.2119  1.5072 -1.3322
  166SAPE  H17Y18782   5.406   6.896   8.580  1.0488 -1.6869 -0.9863
  166SAPE  C31818783   5.384   7.107   8.527 -0.7026  0.4558 -0.5361
  166SAPE  H18X18784   5.361   7.140   8.631  1.1501  1.1266 -0.2956
  166SAPE  H18Y18785   5.286   7.093   8.477 -1.2794 -0.1569  0.7078
  166SAPE  H18Z18786   5.447   7.181   8.474 -0.1207  1.6555  1.6921
  167SAPE     N18787   0.833   1.227   6.469  0.0928 -0.0106 -0.2323
  167SAPE   HN118788   0.928   1.220   6.511 -0.3116 -0.7252  0.6035
  167SAPE   HN218789   0.794   1.323   6.475 -1.3165 -0.5178 -0.7639
  167SAPE   HN318790   0.779   1.172   6.539  2.2569 -1.0254  0.7355
  167SAPE   C1218791   0.832   1.192   6.323  0.0565  0.0983  0.2435
  167SAPE  H12A18792   0.744   1.242   6.279 -0.0374 -1.6767 -1.7738
  167SAPE  H12B18793   0.822   1.082   6.313 -0.8453  0.2768 -0.9816
  167SAPE   C1118794   0.952   1.254   6.243 -0.2417  0.0072 -0.2480
  167SAPE  H11A18795   0.954   1.359   6.279 -2.7096 -0.3334  1.0743
  167SAPE  H11B18796   0.928   1.245   6.135  2.6162 -0.7051 -0.9380
  167SAPE     P18797   1.137   1.074   6.195  0.4609  0.2237  0.3701
  167SAPE   O1318798   1.046   0.955   6.222 -0.0574  0.5189 -0.1102
  167SAPE   O1418799   1.173   1.111   6.054 -0.1759 -0.5663 -1.1187
  167SAPE   O1218800   1.085   1.198   6.274 -0.3566 -0.4735  0.1422
  167SAPE   O1118801   1.276   1.034   6.263  0.3928  0.5125  0.0804
  167SAPE    C118802   1.363   1.131   6.317  0.0464  0.6231  0.1798
  167SAPE    HA18803   1.440   1.158   6.243  3.5442  0.2680  3.3765
  167SAPE    HB18804   1.307   1.205   6.378 -0.6051 -1.0540  1.7269
  167SAPE    C218805   1.432   1.078   6.442 -0.7741 -0.0921 -0.2089
  167SAPE    HS18806   1.476   1.164   6.497  0.4390 -2.3678  2.6673
  167SAPE   O2118807   1.541   0.989   6.415 -0.3283  0.0408  0.0863
  167SAPE   C2118808   1.624   0.962   6.515 -0.7174 -0.1631  0.0322
  167SAPE   O2218809   1.632   1.027   6.618 -0.7267  0.2673  0.3263
  167SAPE   C2218810   1.691   0.829   6.486 -1.0891  0.3238  0.0197
  167SAPE   H2R18811   1.789   0.852   6.441  0.5247 -0.0705  3.0414
  167SAPE   H2S18812   1.722   0.795   6.587 -1.6480  1.0192  0.4379
  167SAPE    C318813   1.325   1.000   6.534 -0.9989 -0.7135  0.2121
  167SAPE    HX18814   1.318   0.899   6.489  0.6623 -1.4531  1.4860
  167SAPE    HY18815   1.234   1.063   6.525  1.0006  2.3233  0.0499
  167SAPE   O3118816   1.365   0.979   6.665 -0.4481 -0.1515 -0.5569
  167SAPE   C3118817   1.349   1.081   6.749 -0.0995 -0.4785 -0.0487
  167SAPE   O3218818   1.301   1.186   6.709 -0.3522 -0.1916 -0.1163
  167SAPE   C3218819   1.398   1.053   6.893 -0.6866 -0.1903 -0.0990
  167SAPE   H2X18820   1.507   1.073   6.904 -0.5395 -0.1732 -1.3844
  167SAPE   H2Y18821   1.385   0.944   6.911 -2.0069  0.3522  2.7251
  167SAPE   C2318822   1.607   0.730   6.408  0.1206  0.5639  0.5846
  167SAPE   H3R18823   1.570   0.769   6.311 -1.9079  2.5050  2.0322
  167SAPE   H3S18824   1.506   0.718   6.455 -0.2470 -0.0006 -0.3320
  167SAPE   C2418825   1.687   0.596   6.399 -0.7134 -0.4248 -0.3638
  167SAPE   H4R18826   1.729   0.574   6.500 -0.2181 -0.9891 -0.6908
  167SAPE   H4S18827   1.777   0.614   6.336 -0.4157 -0.1512  0.1307
  167SAPE   C2518828   1.598   0.487   6.348 -0.4852  0.5111  1.0257
  167SAPE   H5R18829   1.588   0.474   6.240  0.6331 -2.2171  1.1678
  167SAPE   C2618830   1.533   0.389   6.417 -0.3502  0.4230  0.0512
  167SAPE   H6R18831   1.489   0.300   6.369  1.3161  0.6484 -2.0028
  167SAPE   C2718832   1.548   0.377   6.564 -0.2212 -0.2239 -0.3297
  167SAPE   H7R18833   1.569   0.474   6.614  0.5665  0.2795 -1.5856
  167SAPE   H7S18834   1.646   0.325   6.574 -0.3471 -0.5731 -0.8778
  167SAPE   C2818835   1.439   0.298   6.640 -0.5111 -0.5954 -0.3761
  167SAPE   H8R18836   1.392   0.217   6.582 -0.9645 -0.5964 -0.0102
  167SAPE   C2918837   1.402   0.314   6.768 -0.2045 -0.6904  0.6485
  167SAPE   H9R18838   1.312   0.260   6.800 -0.9357  0.6491  0.9157
  167SAPE  C21018839   1.463   0.407   6.869 -0.1441  0.1643  0.2370
  167SAPE  H10R18840   1.572   0.425   6.858 -0.0325  0.4099  1.5495
  167SAPE  H10S18841   1.462   0.351   6.965  1.2132  0.8841  0.7065
  167SAPE  C21118842   1.411   0.545   6.885  0.1752 -0.1716 -0.0651
  167SAPE  H11R18843   1.461   0.615   6.817  1.7726  0.2067  1.4571
  167SAPE  C21218844   1.306   0.587   6.962 -1.0632  0.0193 -0.2719
  167SAPE  H12R18845   1.291   0.696   6.967  3.0651  0.8113 -1.0779
  167SAPE  C21318846   1.216   0.493   7.046  0.0193 -0.4204 -0.6042
  167SAPE  H13R18847   1.261   0.392   7.052 -0.8677 -0.7419  1.4779
  167SAPE  H13S18848   1.125   0.484   6.983  1.0929  1.3115 -2.5157
  167SAPE  C21418849   1.175   0.538   7.189  0.9114  0.9624 -0.6465
  167SAPE  H14R18850   1.129   0.638   7.192 -0.1874  0.4526 -0.1683
  167SAPE  C21518851   1.159   0.470   7.305  0.0617  0.4353 -0.7538
  167SAPE  H15R18852   1.122   0.522   7.396  1.0852  2.8941 -1.6594
  167SAPE  C21618853   1.184   0.324   7.326  0.0651 -0.0991  0.1624
  167SAPE  H16R18854   1.216   0.279   7.230 -0.1036 -2.3270  1.1003
  167SAPE  H16S18855   1.087   0.275   7.349 -0.5055 -1.5192 -4.3399
  167SAPE  C21718856   1.299   0.311   7.423 -0.2440 -0.0132  0.4037
  167SAPE  H17R18857   1.313   0.201   7.426 -0.0557 -0.2291 -3.2177
  167SAPE  H17S18858   1.267   0.346   7.524  0.9923  0.0416  0.7865
  167SAPE  C21818859   1.432   0.379   7.377  0.7957  0.2799  0.3783
  167SAPE  H18R18860   1.493   0.385   7.470 -0.2117  0.1905  1.0510
  167SAPE  H18S18861   1.411   0.482   7.340  0.5165  1.0534  2.5202
  167SAPE  C21918862   1.504   0.286   7.270  0.8106 -0.1661  0.1090
  167SAPE  H19R18863   1.433   0.242   7.198  0.9294 -1.0928  0.5352
  167SAPE  H19S18864   1.546   0.196   7.320 -1.7641 -2.2576 -1.2694
  167SAPE  C22018865   1.620   0.355   7.195  0.2785  0.1004  0.3011
  167SAPE  H20R18866   1.651   0.295   7.107 -1.4563  0.1190 -0.3637
  167SAPE  H20S18867   1.698   0.388   7.267  0.4601 -2.0492  1.1618
  167SAPE  H20T18868   1.581   0.451   7.156  0.4564  0.3460  0.7167
  167SAPE   C3318869   1.312   1.123   7.012 -0.5899 -0.2071  0.0747
  167SAPE   H3X18870   1.203   1.102   7.007 -0.6099 -0.1119  0.1135
  167SAPE   H3Y18871   1.332   1.232   7.010 -0.7044 -0.2026 -1.5932
  167SAPE   C3418872   1.354   1.062   7.147 -0.4330  0.3415 -0.5739
  167SAPE   H4X18873   1.299   1.124   7.221 -0.5484  1.2436 -1.3884
  167SAPE   H4Y18874   1.462   1.075   7.168 -0.7107  1.7699  0.1344
  167SAPE   C3518875   1.310   0.913   7.170 -0.5681 -0.5805  0.1308
  167SAPE   H5X18876   1.390   0.848   7.130  0.9960  1.8191 -0.8686
  167SAPE   H5Y18877   1.214   0.896   7.116 -1.2413  0.8573  0.7929
  167SAPE   C3618878   1.276   0.884   7.320  0.7051 -0.2516 -0.1574
  167SAPE   H6X18879   1.269   0.774   7.323 -3.1335 -0.1500 -1.2074
  167SAPE   H6Y18880   1.185   0.928   7.366  1.1917  0.6026  0.0095
  167SAPE   C3718881   1.384   0.932   7.416 -0.3793 -0.7867  0.5709
  167SAPE   H7X18882   1.381   1.043   7.421  0.6878 -0.7292  0.2208
  167SAPE   H7Y18883   1.486   0.897   7.387  0.4439  0.6360  1.6293
  167SAPE   C3818884   1.348   0.877   7.550  0.7205 -0.2773 -0.2474
  167SAPE   H8X18885   1.329   0.769   7.531 -4.2778  0.6514 -1.9391
  167SAPE   H8Y18886   1.248   0.913   7.581  0.9601  1.4966 -1.3886
  167SAPE   C3918887   1.451   0.901   7.665  0.5444 -0.3102  1.0699
  167SAPE   H9X18888   1.426   1.001   7.706  3.1331  1.2075 -0.7672
  167SAPE   H9Y18889   1.548   0.901   7.611  0.5860  0.8745  1.1245
  167SAPE  C31018890   1.430   0.816   7.777 -0.5381  0.3883 -0.2625
  167SAPE  H10X18891   1.464   0.714   7.749  1.0882  0.6718  0.5734
  167SAPE  H10Y18892   1.323   0.815   7.807 -0.2451  1.1207  0.8833
  167SAPE  C31118893   1.524   0.855   7.896  0.3958 -0.1247  0.3651
  167SAPE  H11X18894   1.497   0.955   7.936  3.3907  1.6922 -1.7335
  167SAPE  H11Y18895   1.630   0.854   7.862  0.8038  0.0277  1.5891
  167SAPE  C31218896   1.510   0.763   8.023 -0.2245 -0.7727  0.5827
  167SAPE  H12X18897   1.587   0.797   8.096  0.1539 -1.3720  0.4693
  167SAPE  H12Y18898   1.543   0.660   7.996 -0.5691 -0.5933 -0.5764
  167SAPE  C31318899   1.371   0.758   8.090 -0.3781 -0.2076 -0.4313
  167SAPE  H13X18900   1.293   0.758   8.011 -1.0815 -2.3566  0.1743
  167SAPE  H13Y18901   1.366   0.853   8.146  0.1752 -1.3922  1.7583
  167SAPE  C31418902   1.352   0.644   8.193  0.2524 -0.3770 -0.0425
  167SAPE  H14X18903   1.438   0.658   8.262 -0.8365 -0.3555  1.3455
  167SAPE  H14Y18904   1.356   0.549   8.136  0.1705 -0.0171 -0.6637
  167SAPE  C31518905   1.222   0.640   8.268  0.6894  0.8044 -0.0658
  167SAPE  H15X18906   1.239   0.549   8.329 -0.2852  0.9493  0.4372
  167SAPE  H15Y18907   1.128   0.616   8.216  1.7035 -0.4759 -1.3733
  167SAPE  C31618908   1.204   0.758   8.364 -0.2374  0.3968 -0.1044
  167SAPE  H16X18909   1.170   0.844   8.304  0.1869  1.2800  0.8890
  167SAPE  H16Y18910   1.303   0.787   8.405 -0.7434  0.8409  0.8392
  167SAPE  C31718911   1.104   0.733   8.477 -0.1178 -0.5923  0.5605
  167SAPE  H17X18912   1.099   0.625   8.503 -0.9066 -0.8282 -0.4943
  167SAPE  H17Y18913   1.003   0.751   8.434 -0.9763 -0.3581  2.5807
  167SAPE  C31818914   1.143   0.802   8.608  0.1922 -0.3435 -0.2215
  167SAPE  H18X18915   1.241   0.759   8.635 -0.1346  0.3539  2.2766
  167SAPE  H18Y18916   1.071   0.776   8.689 -1.2138 -0.6334 -1.5017
  167SAPE  H18Z18917   1.142   0.913   8.604 -0.3097 -0.3398 -0.1422
  168SAPE     N18918   2.581   0.584   6.297  0.5207  0.1147  0.3536
  168SAPE   HN118919   2.580   0.509   6.368  0.2384 -2.4770 -2.2219
  168SAPE   HN218920   2.679   0.563   6.272  0.4711  0.3833 -0.0785
  168SAPE   HN318921   2.563   0.680   6.334 -0.1364  0.6440 -1.2430
  168SAPE   C1218922   2.490   0.543   6.188  0.4473  0.1987 -0.6171
  168SAPE  H12A18923   2.496   0.628   6.116 -3.1507  1.2542  0.1090
  168SAPE  H12B18924   2.388   0.534   6.233  0.6031  2.5262  0.3777
  168SAPE   C1118925   2.531   0.416   6.117  0.2684  0.0164 -0.2947
  168SAPE  H11A18926   2.623   0.426   6.055  0.9795  0.0299  0.7379
  168SAPE  H11B18927   2.450   0.395   6.045  0.7340 -0.6992 -0.6231
  168SAPE     P18928   2.436   0.200   6.259  0.4996 -0.6239  0.2955
  168SAPE   O1318929   2.379   0.121   6.151  0.5033  0.2864 -0.0983
  168SAPE   O1418930   2.471   0.142   6.387 -0.3006 -0.4519  0.0604
  168SAPE   O1218931   2.549   0.302   6.203  0.0167  0.2104 -0.2715
  168SAPE   O1118932   2.319   0.310   6.293  0.1020  0.7793 -0.4019
  168SAPE    C118933   2.233   0.285   6.405 -0.2477  0.4626 -0.0064
  168SAPE    HA18934   2.188   0.186   6.386 -0.6301  0.9171 -1.6919
  168SAPE    HB18935   2.296   0.292   6.496 -0.7374  0.4241  0.3411
  168SAPE    C218936   2.130   0.391   6.408 -0.2379  0.0516  0.0548
  168SAPE    HS18937   2.108   0.427   6.305 -0.2297  1.1151  0.4117
  168SAPE   O2118938   2.168   0.501   6.496  0.0133  0.2381 -0.5186
  168SAPE   C2118939   2.095   0.614   6.497  0.0322 -0.0877  0.7257
  168SAPE   O2218940   2.016   0.637   6.409 -0.2902 -0.3028 -0.1944
  168SAPE   C2218941   2.138   0.720   6.604 -0.5913  0.1266  0.0730
  168SAPE   H2R18942   2.171   0.665   6.695 -0.0826 -0.6094 -0.5434
  168SAPE   H2S18943   2.225   0.776   6.564 -0.8661 -0.0667 -0.8035
  168SAPE    C318944   1.988   0.324   6.460  0.4365  0.1785  0.7590
  168SAPE    HX18945   1.963   0.242   6.389 -0.4131  0.4263  0.7566
  168SAPE    HY18946   1.916   0.409   6.467  1.5729  1.1935  0.3580
  168SAPE   O3118947   2.012   0.254   6.583  0.1585  0.0178  0.0312
  168SAPE   C3118948   1.994   0.331   6.698 -0.0137 -0.7934  0.5999
  168SAPE   O3218949   1.963   0.450   6.698  0.5771 -0.3802  0.1650
  168SAPE   C3218950   2.028   0.246   6.819  0.1502 -0.1519  1.3137
  168SAPE   H2X18951   2.137   0.238   6.800  0.1802  1.3191  0.6891
  168SAPE   H2Y18952   1.983   0.145   6.819  2.9186 -1.5539 -1.3671
  168SAPE   C2318953   2.015   0.817   6.643  0.9050 -0.1489  0.6187
  168SAPE   H3R18954   1.937   0.764   6.701  1.1389 -1.1358  0.0494
  168SAPE   H3S18955   1.980   0.858   6.546  0.9885 -0.9907  0.2244
  168SAPE   C2418956   2.072   0.933   6.725 -0.3759  0.0998  0.5531
  168SAPE   H4R18957   2.104   1.017   6.659 -1.5024  0.5664  0.5683
  168SAPE   H4S18958   2.161   0.900   6.782  1.5257  0.4130 -2.0362
  168SAPE   C2518959   1.962   0.978   6.816 -0.5183 -0.1972 -0.5367
  168SAPE   H5R18960   1.900   1.062   6.783 -2.3461 -1.4035 -0.2945
  168SAPE   C2618961   1.921   0.921   6.931 -0.3926  0.4885  0.0568
  168SAPE   H6R18962   1.851   0.977   6.995 -0.5762  0.1176  0.1823
  168SAPE   C2718963   1.973   0.789   6.978  0.0321  0.3689  0.4260
  168SAPE   H7R18964   2.050   0.813   7.055 -0.1597 -0.4070  0.8733
  168SAPE   H7S18965   2.035   0.736   6.902 -2.3836 -1.2438 -0.5336
  168SAPE   C2818966   1.862   0.688   7.008  0.6063  0.0480 -0.0145
  168SAPE   H8R18967   1.851   0.615   6.927 -3.0032  2.0720 -1.5718
  168SAPE   C2918968   1.779   0.679   7.109  0.3716  0.0734 -0.6231
  168SAPE   H9R18969   1.706   0.598   7.105 -0.6528  0.9874 -1.0112
  168SAPE  C21018970   1.757   0.767   7.223  0.5854  0.0786 -0.1353
  168SAPE  H10R18971   1.656   0.762   7.268 -0.8067  0.2053 -3.0081
  168SAPE  H10S18972   1.762   0.869   7.180  1.8446 -0.3246 -1.0175
  168SAPE  C21118973   1.871   0.750   7.322 -0.7529 -0.4504  1.1421
  168SAPE  H11R18974   1.962   0.801   7.288 -2.1654  1.4274 -0.0658
  168SAPE  C21218975   1.869   0.681   7.446  0.1485 -0.1556 -0.1620
  168SAPE  H12R18976   1.960   0.677   7.508 -1.2740 -1.0097  1.9883
  168SAPE  C21318977   1.748   0.621   7.515  0.1089  0.2098  0.0521
  168SAPE  H13R18978   1.736   0.519   7.471 -1.5268  0.6011 -0.4920
  168SAPE  H13S18979   1.650   0.669   7.492  1.1594  1.5262 -2.0212
  168SAPE  C21418980   1.765   0.615   7.660  0.2744  0.2541 -0.3595
  168SAPE  H14R18981   1.792   0.705   7.717 -1.0320 -0.7494  2.0500
  168SAPE  C21518982   1.731   0.519   7.746  0.7918 -0.2943  0.4337
  168SAPE  H15R18983   1.750   0.524   7.854  3.0658 -0.6749  0.1080
  168SAPE  C21618984   1.673   0.385   7.715  0.2307 -0.1759  0.3032
  168SAPE  H16R18985   1.725   0.312   7.781 -0.2998 -1.1316 -0.3007
  168SAPE  H16S18986   1.708   0.351   7.615  1.4926 -0.1731  0.7270
  168SAPE  C21718987   1.524   0.367   7.738 -0.0669 -0.1071 -0.2733
  168SAPE  H17R18988   1.502   0.268   7.692  2.0567 -0.7037 -0.1359
  168SAPE  H17S18989   1.487   0.450   7.675 -1.0909  1.1134  1.8359
  168SAPE  C21818990   1.473   0.371   7.883  0.0612 -0.1389  0.3027
  168SAPE  H18R18991   1.493   0.466   7.937 -1.6205 -0.7937  2.1948
  168SAPE  H18S18992   1.522   0.285   7.932 -0.6655 -1.4515 -1.1900
  168SAPE  C21918993   1.319   0.353   7.889 -0.2085 -0.1133  0.0135
  168SAPE  H19R18994   1.291   0.353   7.997 -0.2755 -1.3102  0.0042
  168SAPE  H19S18995   1.284   0.261   7.838 -1.3854 -0.0108  0.5876
  168SAPE  C22018996   1.247   0.471   7.824 -0.7615  0.1016 -0.5635
  168SAPE  H20R18997   1.289   0.497   7.724 -0.6050  0.9119 -0.2864
  168SAPE  H20S18998   1.268   0.558   7.889  0.1459 -1.4206  1.2707
  168SAPE  H20T18999   1.136   0.461   7.817 -1.0457  3.2080 -2.3026
  168SAPE   C3319000   1.992   0.315   6.951  0.2814 -0.9126 -0.0492
  168SAPE   H3X19001   1.882   0.322   6.964  0.3909  0.5014  0.3199
  168SAPE   H3Y19002   2.024   0.421   6.957  1.5568 -1.2112 -1.1275
  168SAPE   C3419003   2.064   0.256   7.074  0.2397 -0.3566 -0.1536
  168SAPE   H4X19004   2.169   0.293   7.077  0.5011 -1.0375  3.0251
  168SAPE   H4Y19005   2.073   0.147   7.056 -0.8662 -0.4212 -0.3912
  168SAPE   C3519006   1.991   0.291   7.200 -0.3150 -0.3795  0.3714
  168SAPE   H5X19007   1.887   0.252   7.194 -0.1238 -1.1616  1.8384
  168SAPE   H5Y19008   1.977   0.401   7.200  1.7745  0.0371 -2.9908
  168SAPE   C3619009   2.057   0.239   7.324  0.5101  0.2072  0.3276
  168SAPE   H6X19010   2.159   0.282   7.335  1.4223 -1.5379 -0.9666
  168SAPE   H6Y19011   2.072   0.129   7.323 -3.3794 -0.5109 -2.4036
  168SAPE   C3719012   1.962   0.272   7.446 -0.9392 -1.0295  0.4157
  168SAPE   H7X19013   1.879   0.197   7.447 -0.6301 -1.4072  2.1142
  168SAPE   H7Y19014   1.918   0.372   7.424 -0.2875 -0.7031  0.5678
  168SAPE   C3819015   2.030   0.281   7.582  0.5471  0.0323 -0.7427
  168SAPE   H8X19016   2.066   0.180   7.612 -2.2268 -1.1187 -0.9702
  168SAPE   H8Y19017   1.943   0.313   7.643 -0.0529  0.6892 -1.9016
  168SAPE   C3919018   2.138   0.388   7.608  1.1894  0.2212 -0.1909
  168SAPE   H9X19019   2.103   0.486   7.568  0.4084  0.1330  0.2572
  168SAPE   H9Y19020   2.220   0.373   7.534  1.2884  1.5484 -0.3833
  168SAPE  C31019021   2.192   0.383   7.746 -0.0467  0.2728 -0.4537
  168SAPE  H10X19022   2.280   0.449   7.763 -0.0303  0.3437 -0.8015
  168SAPE  H10Y19023   2.222   0.279   7.773  1.4171  0.8909  0.4309
  168SAPE  C31119024   2.085   0.428   7.842  0.0318  0.0682 -0.4561
  168SAPE  H11X19025   1.999   0.357   7.840 -0.1612  0.2953 -0.2206
  168SAPE  H11Y19026   2.053   0.529   7.810 -0.9185 -0.0607  0.0319
  168SAPE  C31219027   2.137   0.439   7.982  0.0645 -0.2692  0.4155
  168SAPE  H12X19028   2.236   0.488   7.969 -0.0254 -0.6776 -2.4458
  168SAPE  H12Y19029   2.158   0.336   8.016 -1.2218 -0.7686 -0.2509
  168SAPE  C31319030   2.047   0.502   8.091  0.3884  0.2107  0.1658
  168SAPE  H13X19031   2.037   0.611   8.073  1.4055  0.0268 -1.7925
  168SAPE  H13Y19032   2.097   0.492   8.189  2.2744  0.4699 -0.7132
  168SAPE  C31419033   1.920   0.428   8.108  0.3738 -0.2313  0.0294
  168SAPE  H14X19034   1.943   0.320   8.114 -0.9735 -0.6392 -1.3805
  168SAPE  H14Y19035   1.869   0.455   8.013  1.0675  0.4080 -0.1728
  168SAPE  C31519036   1.838   0.485   8.225  0.2109  0.5781  0.2370
  168SAPE  H15X19037   1.837   0.596   8.226 -2.0351  0.5994  0.2479
  168SAPE  H15Y19038   1.889   0.461   8.321  1.2930  0.6105 -0.3127
  168SAPE  C31619039   1.695   0.458   8.218  0.3557 -0.1397 -0.2192
  168SAPE  H16X19040   1.655   0.499   8.123  1.2683 -1.3146 -1.1400
  168SAPE  H16Y19041   1.640   0.492   8.309  0.5539 -2.3399  0.7970
  168SAPE  C31719042   1.667   0.307   8.207 -0.3662  0.2879 -0.8131
  168SAPE  H17X19043   1.707   0.262   8.114  1.2196 -2.8998  1.2381
  168SAPE  H17Y19044   1.556   0.306   8.206 -0.5345  3.5544  0.7873
  168SAPE  C31819045   1.727   0.223   8.331 -0.4409 -0.0375  0.0828
  168SAPE  H18X19046   1.694   0.257   8.431  1.2248 -1.2574  1.0857
  168SAPE  H18Y19047   1.838   0.231   8.330 -0.3732 -0.8744 -0.5216
  168SAPE  H18Z19048   1.715   0.113   8.319 -0.3636  0.0080 -0.4368
  169SAPE     N19049   1.768   2.647   6.340  0.2908  0.5086 -0.1199
  169SAPE   HN119050   1.863   2.620   6.308  0.6594  0.2355  1.1302
  169SAPE   HN219051   1.740   2.572   6.406  1.1465  0.5895  0.3510
  169SAPE   HN319052   1.711   2.649   6.253  0.1910  0.4144 -0.0567
  169SAPE   C1219053   1.758   2.773   6.410  0.2271 -0.0774  0.3953
  169SAPE  H12A19054   1.650   2.783   6.435  0.3416 -0.7396  1.1883
  169SAPE  H12B19055   1.778   2.842   6.325  0.4094 -1.8979 -1.1086
  169SAPE   C1119056   1.845   2.763   6.534  0.1682 -0.3824 -0.4775
  169SAPE  H11A19057   1.819   2.677   6.599 -0.9404  0.8457  0.7736
  169SAPE  H11B19058   1.815   2.853   6.593  0.2296 -0.0008 -1.0197
  169SAPE     P19059   2.087   2.857   6.526 -0.0351  0.0957  0.0270
  169SAPE   O1319060   2.219   2.802   6.518 -0.0272 -0.2984  0.5319
  169SAPE   O1419061   2.061   2.974   6.445 -0.6194 -0.2254  0.2926
  169SAPE   O1219062   1.984   2.747   6.494  0.0421  0.1989  0.1834
  169SAPE   O1119063   2.063   2.888   6.675  0.2437 -0.4704 -0.4846
  169SAPE    C119064   2.072   2.787   6.777  0.5869 -0.1809  0.3614
  169SAPE    HA19065   2.006   2.702   6.751  0.5259  0.1849 -0.7154
  169SAPE    HB19066   2.172   2.741   6.784  0.8365 -0.3768 -3.0497
  169SAPE    C219067   2.032   2.843   6.906  0.0605  0.4991 -0.4411
  169SAPE    HS19068   2.024   2.756   6.976  2.1378  0.0474 -0.7069
  169SAPE   O2119069   1.908   2.912   6.894  0.1261 -0.2285 -0.1359
  169SAPE   C2119070   1.802   2.836   6.880 -0.4497 -0.2947 -0.3855
  169SAPE   O2219071   1.799   2.716   6.867 -0.2546  0.2755  0.3850
  169SAPE   C2219072   1.677   2.920   6.904  0.2744 -0.1746 -0.4135
  169SAPE   H2R19073   1.667   2.999   6.827  1.7749 -1.6123 -2.1790
  169SAPE   H2S19074   1.594   2.845   6.898 -0.7060  0.9031 -0.7431
  169SAPE    C319075   2.142   2.930   6.965  0.9007 -0.7661 -1.4174
  169SAPE    HX19076   2.158   3.018   6.900  0.9878  0.2787 -0.0157
  169SAPE    HY19077   2.231   2.863   6.959 -0.1833 -2.1280 -3.3641
  169SAPE   O3119078   2.111   2.976   7.102  0.4451  0.5840  0.2611
  169SAPE   C3119079   2.128   2.888   7.195 -0.1629 -0.1604 -0.0762
  169SAPE   O3219080   2.189   2.783   7.182 -0.5902 -0.0005 -0.4482
  169SAPE   C3219081   2.067   2.946   7.318  0.2089  0.3541 -0.6095
  169SAPE   H2X19082   1.958   2.962   7.305  0.1814  0.4918 -0.2357
  169SAPE   H2Y19083   2.119   3.041   7.339  4.4369 -1.7113 -0.6179
  169SAPE   C2319084   1.681   2.981   7.045  0.4497 -0.0059  0.8807
  169SAPE   H3R19085   1.597   3.050   7.068 -0.1325 -0.0546 -0.9449
  169SAPE   H3S19086   1.765   3.053   7.055 -0.3718  0.8959  1.4708
  169SAPE   C2419087   1.679   2.880   7.159  0.0934  0.2321  0.2723
  169SAPE   H4R19088   1.697   2.938   7.251  0.2120  0.6191  0.0058
  169SAPE   H4S19089   1.768   2.814   7.147 -0.7154 -0.7841 -0.4184
  169SAPE   C2519090   1.550   2.800   7.181 -0.4073  0.0207  0.6200
  169SAPE   H5R19091   1.503   2.763   7.088  0.3742 -0.3599  0.3612
  169SAPE   C2619092   1.500   2.782   7.300 -0.2598  0.1118  0.2776
  169SAPE   H6R19093   1.414   2.714   7.312 -0.7300  0.9667  2.1091
  169SAPE   C2719094   1.542   2.831   7.441  0.8327 -0.2847 -0.1516
  169SAPE   H7R19095   1.458   2.816   7.511  2.1357 -0.7822  1.3786
  169SAPE   H7S19096   1.570   2.938   7.429 -3.5068  1.4633  2.8252
  169SAPE   C2819097   1.661   2.760   7.492 -0.2889  0.1109  0.6886
  169SAPE   H8R19098   1.733   2.731   7.414 -1.6298 -1.8115  0.1004
  169SAPE   C2919099   1.679   2.726   7.617  0.3498 -0.1302 -0.5440
  169SAPE   H9R19100   1.774   2.680   7.649  0.1742  1.3149  2.4058
  169SAPE  C21019101   1.582   2.757   7.732 -0.4523  0.0408  1.0856
  169SAPE  H10R19102   1.510   2.673   7.733  0.3703 -0.6755  1.4720
  169SAPE  H10S19103   1.512   2.840   7.710 -0.9443 -0.9518 -1.4074
  169SAPE  C21119104   1.665   2.778   7.858  0.3216  0.1021 -0.1612
  169SAPE  H11R19105   1.761   2.828   7.842  0.4066  0.0456  0.1705
  169SAPE  C21219106   1.625   2.736   7.981  0.4606 -0.4435  0.9167
  169SAPE  H12R19107   1.684   2.779   8.062  0.9868 -1.3288  1.0174
  169SAPE  C21319108   1.498   2.662   8.031  0.0445 -0.1440  0.2066
  169SAPE  H13R19109   1.510   2.553   8.018  0.3753  0.0129 -0.8849
  169SAPE  H13S19110   1.412   2.694   7.969  1.8250  1.3399 -1.6780
  169SAPE  C21419111   1.473   2.705   8.172  0.0118  0.4247  0.4219
  169SAPE  H14R19112   1.510   2.807   8.189  1.0650  0.2975 -0.9442
  169SAPE  C21519113   1.399   2.639   8.268  0.5374  0.2654  0.1516
  169SAPE  H15R19114   1.388   2.685   8.367 -1.5224 -0.3838  0.2682
  169SAPE  C21619115   1.341   2.495   8.253  0.8156  0.7418 -0.0501
  169SAPE  H16R19116   1.380   2.435   8.168 -0.0534 -1.0731  0.7892
  169SAPE  H16S19117   1.232   2.506   8.235  0.9917 -1.3655 -3.0431
  169SAPE  C21719118   1.370   2.415   8.376  0.5898  0.6350  0.9010
  169SAPE  H17R19119   1.479   2.393   8.385  0.5413 -1.0687 -1.6505
  169SAPE  H17S19120   1.317   2.317   8.370 -0.5041  1.2748 -0.4041
  169SAPE  C21819121   1.314   2.479   8.512  0.0203  0.3338  0.1448
  169SAPE  H18R19122   1.219   2.532   8.489  0.6235  0.9260 -1.0911
  169SAPE  H18S19123   1.380   2.563   8.543 -0.3609  0.4515  0.6345
  169SAPE  C21919124   1.287   2.368   8.618  0.5156  1.0603 -0.2084
  169SAPE  H19R19125   1.220   2.292   8.574  0.0987 -0.5504  2.9105
  169SAPE  H19S19126   1.218   2.405   8.697 -1.2941  0.5469 -1.5046
  169SAPE  C22019127   1.413   2.305   8.669 -0.0070  0.9724 -0.8312
  169SAPE  H20R19128   1.385   2.214   8.727 -0.8824  1.0693 -1.0864
  169SAPE  H20S19129   1.471   2.374   8.733  1.4549 -1.4358  0.6039
  169SAPE  H20T19130   1.475   2.283   8.580  0.1246  0.8000 -0.6986
  169SAPE   C3319131   2.091   2.843   7.438 -0.2859 -0.1932 -0.1404
  169SAPE   H3X19132   2.200   2.845   7.458 -0.3421  1.0955  0.1121
  169SAPE   H3Y19133   2.074   2.741   7.397 -1.0050  0.6776 -2.0880
  169SAPE   C3419134   2.032   2.886   7.572  1.0567 -0.1996  0.0224
  169SAPE   H4X19135   1.923   2.900   7.557  0.7911 -1.6892  0.4279
  169SAPE   H4Y19136   2.067   2.989   7.596 -0.3867  0.2747  0.1920
  169SAPE   C3519137   2.072   2.789   7.689  0.5545  0.1564  0.7805
  169SAPE   H5X19138   2.172   2.742   7.676  0.5425  0.3871 -0.2205
  169SAPE   H5Y19139   1.995   2.712   7.669  1.9711 -1.7566  2.2466
  169SAPE   C3619140   2.054   2.857   7.824  0.0564  0.4133 -0.6737
  169SAPE   H6X19141   1.953   2.898   7.841 -1.1033 -2.8664  1.5476
  169SAPE   H6Y19142   2.126   2.940   7.837  2.8574 -2.0183  0.6360
  169SAPE   C3719143   2.077   2.749   7.927  0.4871  0.4640  0.2258
  169SAPE   H7X19144   2.172   2.693   7.915  0.4927  0.5393 -0.0818
  169SAPE   H7Y19145   1.992   2.677   7.920 -1.2656  2.3282  1.2228
  169SAPE   C3819146   2.089   2.799   8.069  0.2312  0.0232 -0.6842
  169SAPE   H8X19147   2.007   2.870   8.090 -1.1162 -1.3008 -1.2881
  169SAPE   H8Y19148   2.185   2.852   8.086 -0.1610  1.6178 -2.9603
  169SAPE   C3919149   2.053   2.694   8.188  0.1150 -0.5211 -0.0685
  169SAPE   H9X19150   2.135   2.619   8.177  1.2402  0.7831 -0.9091
  169SAPE   H9Y19151   1.958   2.642   8.166 -0.2308 -0.0151  0.1991
  169SAPE  C31019152   2.041   2.754   8.331  0.4977  0.4225  0.8801
  169SAPE  H10X19153   2.133   2.806   8.363  1.4098  0.2349 -1.2718
  169SAPE  H10Y19154   2.023   2.666   8.397 -1.0013 -0.7736 -1.0019
  169SAPE  C31119155   1.922   2.853   8.339 -0.2330  0.4059  0.2209
  169SAPE  H11X19156   1.853   2.827   8.256  2.0954 -0.9549 -1.3836
  169SAPE  H11Y19157   1.972   2.950   8.320  1.4959 -0.8360 -2.0260
  169SAPE  C31219158   1.853   2.847   8.471 -0.3335 -0.0861 -0.2748
  169SAPE  H12X19159   1.802   2.944   8.488 -1.1079 -0.4821 -0.2721
  169SAPE  H12Y19160   1.934   2.833   8.546  0.0405  3.0475  0.0578
  169SAPE  C31319161   1.737   2.747   8.471  0.1507  0.2253  0.3948
  169SAPE  H13X19162   1.789   2.650   8.459  2.7201  1.5613  0.0187
  169SAPE  H13Y19163   1.671   2.761   8.383  0.9424 -2.1750 -0.6492
  169SAPE  C31419164   1.656   2.742   8.598  0.1554 -0.1788  0.0843
  169SAPE  H14X19165   1.715   2.716   8.689 -1.4741  0.8991  1.5236
  169SAPE  H14Y19166   1.564   2.684   8.577 -0.1476  0.8574 -1.7244
  169SAPE  C31519167   1.604   2.883   8.633  0.3612 -0.5740  0.3444
  169SAPE  H15X19168   1.569   2.941   8.544  0.3688 -1.1622 -0.0517
  169SAPE  H15Y19169   1.686   2.940   8.682  2.1491 -0.7848 -2.2088
  169SAPE  C31619170   1.493   2.872   8.734  0.0846  0.5767 -0.2177
  169SAPE  H16X19171   1.506   2.784   8.801 -2.6376 -0.9733 -1.5431
  169SAPE  H16Y19172   1.400   2.839   8.684  0.9999 -2.4065 -0.1362
  169SAPE  C31719173   1.462   2.992   8.817  0.4335 -0.0261  0.3517
  169SAPE  H17X19174   1.403   3.059   8.751  0.6357  0.5946  0.7955
  169SAPE  H17Y19175   1.551   3.049   8.851 -0.6119  1.3029  0.9605
  169SAPE  C31819176   1.380   2.970   8.947  0.1520  0.2277  0.0467
  169SAPE  H18X19177   1.362   3.071   8.990  2.1505 -0.0511  1.6716
  169SAPE  H18Y19178   1.439   2.926   9.030  0.1255  2.2542  1.2096
  169SAPE  H18Z19179   1.283   2.918   8.932 -0.9692  2.2142  0.0489
  170SAPE     N19180   0.776   0.272   6.216  0.6768 -0.0395  0.4037
  170SAPE   HN119181   0.828   0.351   6.259 -1.9744  1.3107  1.3526
  170SAPE   HN219182   0.831   0.219   6.146 -1.1250 -1.4013 -0.0591
  170SAPE   HN319183   0.693   0.307   6.163  0.0355 -2.1702 -0.1224
  170SAPE   C1219184   0.738   0.174   6.315 -1.2857 -0.6901 -0.3296
  170SAPE  H12A19185   0.702   0.078   6.273 -0.7688 -0.0105 -2.4309
  170SAPE  H12B19186   0.652   0.219   6.369 -1.0358 -1.1831  0.4945
  170SAPE   C1119187   0.850   0.138   6.406 -0.0670 -0.4176  0.3802
  170SAPE  H11A19188   0.798   0.085   6.490  0.5389  0.4177  1.3065
  170SAPE  H11B19189   0.894   0.229   6.453  0.3207  0.3979 -1.4722
  170SAPE     P19190   1.097   0.117   6.309  0.3052 -0.2601  0.0235
  170SAPE   O1319191   1.155   0.044   6.195  0.3132  0.3323  0.0615
  170SAPE   O1419192   1.083   0.260   6.287 -0.0843  0.2804 -0.2664
  170SAPE   O1219193   0.944   0.053   6.338 -0.2220 -0.3011 -0.4633
  170SAPE   O1119194   1.190   0.097   6.435  0.2557  0.7520 -0.1574
  170SAPE    C119195   1.207  -0.033   6.488 -0.2213  0.4375  0.2037
  170SAPE    HA19196   1.242  -0.104   6.410 -1.5201 -0.2698  0.2315
  170SAPE    HB19197   1.289  -0.022   6.562 -1.4727 -2.5685  2.2226
  170SAPE    C219198   1.094  -0.090   6.565 -0.3692  0.2159 -0.3514
  170SAPE    HS19199   1.006  -0.100   6.499  0.6629  0.3641 -1.7848
  170SAPE   O2119200   1.086  -0.006   6.681 -0.2634  0.1241  0.7557
  170SAPE   C2119201   0.965   0.007   6.726  0.2381  0.2969  0.5138
  170SAPE   O2219202   0.860  -0.041   6.682 -0.8710 -0.3971 -0.0033
  170SAPE   C2219203   0.960   0.102   6.845 -0.0839 -0.6377  0.7928
  170SAPE   H2R19204   0.972   0.203   6.800 -0.9960 -1.1393 -0.6511
  170SAPE   H2S19205   0.867   0.089   6.905 -0.1124 -1.6241  0.5482
  170SAPE    C319206   1.144  -0.228   6.614 -0.1535 -0.2230  0.5920
  170SAPE    HX19207   1.248  -0.214   6.652  0.4632  0.1642 -1.1387
  170SAPE    HY19208   1.166  -0.294   6.527 -1.8178 -1.1620  0.8530
  170SAPE   O3119209   1.052  -0.285   6.710 -0.2865 -0.0845 -0.3348
  170SAPE   C3119210   0.935  -0.332   6.655 -0.2077 -0.9119 -0.1346
  170SAPE   O3219211   0.914  -0.344   6.537  0.6105  0.3549 -0.4510
  170SAPE   C3219212   0.836  -0.370   6.765 -0.3880 -0.1457  0.0799
  170SAPE   H2X19213   0.742  -0.400   6.715 -1.3350  1.6340  0.6948
  170SAPE   H2Y19214   0.813  -0.274   6.817  0.6402 -0.4706  1.1728
  170SAPE   C2319215   1.087   0.083   6.928  0.1651  0.4731 -0.3103
  170SAPE   H3R19216   1.089   0.158   7.010 -0.3256  1.4949 -1.2056
  170SAPE   H3S19217   1.177   0.069   6.864 -0.5969 -1.5376 -1.0438
  170SAPE   C2419218   1.064  -0.050   7.018  0.2465  0.1304  0.4310
  170SAPE   H4R19219   1.079  -0.140   6.956 -0.3305 -0.0551  0.5528
  170SAPE   H4S19220   0.957  -0.067   7.041 -0.1717  1.6574 -0.2547
  170SAPE   C2519221   1.143  -0.048   7.145 -0.6289  0.8655  0.1834
  170SAPE   H5R19222   1.250  -0.050   7.120 -0.0621 -2.6873  2.1372
  170SAPE   C2619223   1.099  -0.061   7.269  0.0922 -0.4257 -0.2352
  170SAPE   H6R19224   1.168  -0.058   7.354  1.6911  0.3977 -1.4890
  170SAPE   C2719225   0.957  -0.083   7.306 -0.1047 -0.5259  0.4193
  170SAPE   H7R19226   0.902  -0.157   7.244 -0.1948 -0.7002  0.7055
  170SAPE   H7S19227   0.910   0.018   7.303  0.8269 -0.0286  1.8331
  170SAPE   C2819228   0.945  -0.132   7.443  0.5995 -0.4741 -0.3871
  170SAPE   H8R19229   0.960  -0.241   7.441  1.9207 -0.3708 -4.4729
  170SAPE   C2919230   0.930  -0.051   7.552 -0.3890  0.2613 -0.1813
  170SAPE   H9R19231   0.908  -0.108   7.644 -0.9906 -0.4442 -0.7410
  170SAPE  C21019232   0.925   0.097   7.553 -0.5889 -0.2854 -0.2046
  170SAPE  H10R19233   0.819   0.123   7.572 -1.0983 -1.8433 -0.8019
  170SAPE  H10S19234   0.961   0.149   7.461  0.2677  1.3100  0.9773
  170SAPE  C21119235   1.016   0.151   7.669  0.0372  0.1939  0.4709
  170SAPE  H11R19236   1.116   0.104   7.671 -1.2377 -2.7263  1.7427
  170SAPE  C21219237   0.981   0.249   7.751 -0.1806 -0.5209 -0.2730
  170SAPE  H12R19238   1.046   0.266   7.838 -0.9016 -0.2898  0.2318
  170SAPE  C21319239   0.849   0.324   7.746  0.1486 -0.3276  0.3680
  170SAPE  H13R19240   0.763   0.259   7.773 -1.2046  0.3420 -1.9667
  170SAPE  H13S19241   0.815   0.359   7.646  0.1693 -0.5085  0.2974
  170SAPE  C21419242   0.863   0.445   7.832 -0.2781  0.0445  0.4522
  170SAPE  H14R19243   0.883   0.539   7.778 -0.0959 -0.5036 -0.4550
  170SAPE  C21519244   0.857   0.447   7.965 -0.2715 -0.4060  0.0726
  170SAPE  H15R19245   0.875   0.543   8.016  2.4663 -1.1810  0.7649
  170SAPE  C21619246   0.825   0.324   8.047  0.2441  0.0514 -0.7385
  170SAPE  H16R19247   0.795   0.241   7.980 -0.4296  1.3921 -2.1639
  170SAPE  H16S19248   0.729   0.347   8.099 -0.7732 -2.5615 -1.2740
  170SAPE  C21719249   0.924   0.292   8.155 -0.1040 -0.5927 -0.6035
  170SAPE  H17R19250   0.930   0.376   8.227  1.5836  0.1480 -1.5447
  170SAPE  H17S19251   1.021   0.290   8.101 -0.3983  2.8807 -1.5413
  170SAPE  C21819252   0.881   0.159   8.221 -0.8507  0.2708 -0.2217
  170SAPE  H18R19253   0.874   0.082   8.141 -0.8382  0.2917 -0.2428
  170SAPE  H18S19254   0.782   0.176   8.268 -0.0381  0.9666  1.3041
  170SAPE  C21919255   0.978   0.130   8.338 -0.7879  0.5517  0.1689
  170SAPE  H19R19256   1.082   0.117   8.300 -0.2431  0.7925  1.5299
  170SAPE  H19S19257   0.961   0.026   8.375  0.8481 -0.4830 -1.7229
  170SAPE  C22019258   0.980   0.224   8.463 -0.5762 -0.1851  0.0941
  170SAPE  H20R19259   0.877   0.250   8.495 -1.2272 -0.3594 -1.7411
  170SAPE  H20S19260   1.033   0.318   8.439 -2.1858  0.3542 -1.6028
  170SAPE  H20T19261   1.028   0.174   8.550  1.0865  1.3624  0.1134
  170SAPE   C3319262   0.880  -0.473   6.871 -0.1793 -0.2530  0.0145
  170SAPE   H3X19263   0.987  -0.473   6.901  0.6311 -0.0842 -2.6239
  170SAPE   H3Y19264   0.862  -0.578   6.842  0.6209 -0.6525  0.9023
  170SAPE   C3419265   0.793  -0.441   6.990  0.1068 -0.1636 -0.6332
  170SAPE   H4X19266   0.689  -0.464   6.960  0.1685  0.8349 -1.6760
  170SAPE   H4Y19267   0.800  -0.335   7.025  2.1435 -1.2175  2.6695
  170SAPE   C3519268   0.830  -0.527   7.116 -0.5220 -0.3076 -0.8548
  170SAPE   H5X19269   0.940  -0.510   7.127 -0.5559 -0.8270  0.6010
  170SAPE   H5Y19270   0.817  -0.637   7.111  2.7243 -0.9085  0.8584
  170SAPE   C3619271   0.775  -0.472   7.240 -0.1713 -0.0671 -0.2722
  170SAPE   H6X19272   0.674  -0.516   7.254  0.5337 -1.8767 -0.6411
  170SAPE   H6Y19273   0.766  -0.362   7.233 -0.0445 -0.0893 -0.8243
  170SAPE   C3719274   0.859  -0.521   7.358 -0.1609  0.0643  0.1422
  170SAPE   H7X19275   0.945  -0.453   7.373  0.7805 -0.4140 -2.5526
  170SAPE   H7Y19276   0.898  -0.621   7.333 -1.1284 -0.1528 -0.5574
  170SAPE   C3819277   0.764  -0.538   7.483 -0.0252 -0.7357  0.2689
  170SAPE   H8X19278   0.706  -0.629   7.456  0.5142 -1.6286  1.9747
  170SAPE   H8Y19279   0.708  -0.442   7.481  1.2642  0.0556 -2.5886
  170SAPE   C3919280   0.837  -0.555   7.618 -0.5922  0.4901 -0.2223
  170SAPE   H9X19281   0.896  -0.461   7.623  1.2108 -0.5758 -0.4889
  170SAPE   H9Y19282   0.911  -0.639   7.622 -1.3870 -0.2145  2.7983
  170SAPE  C31019283   0.730  -0.571   7.728 -0.4557 -0.3228 -0.1618
  170SAPE  H10X19284   0.685  -0.669   7.697  0.1379  0.3467 -3.5835
  170SAPE  H10Y19285   0.659  -0.488   7.710  1.2328  0.4886 -4.3093
  170SAPE  C31119286   0.773  -0.574   7.879 -0.5794  0.2855  0.4019
  170SAPE  H11X19287   0.817  -0.474   7.900  0.9741 -0.1000 -0.8439
  170SAPE  H11Y19288   0.861  -0.637   7.903 -0.5429 -0.0012 -0.4582
  170SAPE  C31219289   0.647  -0.595   7.971 -1.0539 -0.0305 -0.1867
  170SAPE  H12X19290   0.596  -0.673   7.912  0.4902 -0.2921 -1.2520
  170SAPE  H12Y19291   0.588  -0.501   7.963 -1.7662 -0.4031  0.6394
  170SAPE  C31319292   0.672  -0.631   8.116 -0.1627  0.0732  0.3264
  170SAPE  H13X19293   0.758  -0.701   8.115  1.1594  1.6473 -0.1266
  170SAPE  H13Y19294   0.583  -0.684   8.155 -0.1777 -1.7092 -1.8983
  170SAPE  C31419295   0.700  -0.502   8.204  0.0284 -0.4451  0.2324
  170SAPE  H14X19296   0.618  -0.431   8.177 -0.8804 -1.7229 -0.5139
  170SAPE  H14Y19297   0.795  -0.459   8.167 -0.0171  0.3497  1.0083
  170SAPE  C31519298   0.711  -0.541   8.345 -0.1249  0.4462 -0.7380
  170SAPE  H15X19299   0.612  -0.574   8.385 -0.4605 -1.7869 -3.1633
  170SAPE  H15Y19300   0.723  -0.453   8.412 -2.2681 -0.0197  0.3687
  170SAPE  C31619301   0.804  -0.654   8.387 -0.2782  0.0769  0.5627
  170SAPE  H16X19302   0.779  -0.746   8.331  2.6063 -0.2234 -0.4299
  170SAPE  H16Y19303   0.794  -0.692   8.491  1.0411 -0.0958  0.6450
  170SAPE  C31719304   0.951  -0.637   8.363  0.6633 -0.6227  0.3194
  170SAPE  H17X19305   0.983  -0.541   8.408 -0.4003  0.2804 -0.7786
  170SAPE  H17Y19306   0.976  -0.644   8.255 -0.6353  2.2410 -0.2484
  170SAPE  C31819307   1.025  -0.754   8.424 -0.2327  0.6072 -0.5247
  170SAPE  H18X19308   1.129  -0.751   8.386  0.2590 -2.5940  0.3507
  170SAPE  H18Y19309   0.974  -0.846   8.389 -0.0966 -0.2491  1.4249
  170SAPE  H18Z19310   1.003  -0.742   8.532 -0.2942  0.2531 -0.4983
  171SAPE     N19311   4.291   0.348   6.287 -0.3018 -0.2430  0.6469
  171SAPE   HN119312   4.221   0.285   6.243  2.7096 -2.9265 -0.7865
  171SAPE   HN219313   4.236   0.425   6.328 -2.5192 -1.6469  0.4528
  171SAPE   HN319314   4.350   0.376   6.206 -0.0853  0.6249  1.0939
  171SAPE   C1219315   4.368   0.266   6.386 -0.2275 -0.0016  0.0592
  171SAPE  H12A19316   4.295   0.200   6.437  1.1213 -0.3694  1.5777
  171SAPE  H12B19317   4.408   0.338   6.461 -1.8583 -0.0499  1.0082
  171SAPE   C1119318   4.478   0.184   6.313  0.1590  0.0728 -1.3241
  171SAPE  H11A19319   4.523   0.113   6.386 -0.6588  1.4877  0.6542
  171SAPE  H11B19320   4.561   0.245   6.272  0.7812 -0.2035 -0.5072
  171SAPE     P19321   4.347  -0.023   6.197  0.2263 -0.5469  0.1420
  171SAPE   O1319322   4.234  -0.003   6.099 -0.3534  0.3011 -0.0695
  171SAPE   O1419323   4.433  -0.138   6.158 -0.2893 -0.0178 -0.1755
  171SAPE   O1219324   4.428   0.111   6.203 -0.5066 -0.5846  0.0754
  171SAPE   O1119325   4.281  -0.049   6.341 -0.6261 -0.3404 -0.1937
  171SAPE    C119326   4.268  -0.172   6.400 -0.1828 -0.4805  0.3634
  171SAPE    HA19327   4.175  -0.221   6.363  0.1042 -1.4805  0.9157
  171SAPE    HB19328   4.347  -0.244   6.372 -0.0525  0.4349 -1.8629
  171SAPE    C219329   4.264  -0.162   6.554 -0.1943  0.3431 -0.3817
  171SAPE    HS19330   4.219  -0.063   6.579  0.8301  1.0866 -1.3909
  171SAPE   O2119331   4.393  -0.182   6.607  0.1999  0.3750 -0.2590
  171SAPE   C2119332   4.460  -0.076   6.631  0.7999  0.7642  0.1340
  171SAPE   O2219333   4.416   0.036   6.650  0.0512  0.2143  0.1787
  171SAPE   C2219334   4.608  -0.114   6.611  0.0508  0.1361  0.4195
  171SAPE   H2R19335   4.605  -0.225   6.616 -0.4353 -0.0945 -2.9560
  171SAPE   H2S19336   4.641  -0.097   6.507  0.9107  1.3360  0.8633
  171SAPE    C319337   4.168  -0.274   6.595  0.8025 -0.3342 -0.1908
  171SAPE    HX19338   4.199  -0.368   6.546  1.1220 -0.2501 -0.1523
  171SAPE    HY19339   4.068  -0.245   6.556  0.5823 -0.2405  0.4312
  171SAPE   O3119340   4.159  -0.313   6.739  0.4566 -0.4132  0.0396
  171SAPE   C3119341   4.095  -0.229   6.817 -0.4225 -0.7308  0.2703
  171SAPE   O3219342   4.050  -0.119   6.784 -0.0992 -0.2082 -0.4162
  171SAPE   C3219343   4.101  -0.279   6.958 -0.6454  0.4241  0.0371
  171SAPE   H2X19344   4.201  -0.304   7.000 -1.5387  0.1452  2.1523
  171SAPE   H2Y19345   4.040  -0.372   6.958  0.4440 -0.3134  0.1427
  171SAPE   C2319346   4.698  -0.034   6.704  0.8895 -0.1642  0.4388
  171SAPE   H3R19347   4.690   0.075   6.686  2.1546 -0.0813  0.2462
  171SAPE   H3S19348   4.798  -0.043   6.656  0.6991  0.9641 -0.1993
  171SAPE   C2419349   4.693  -0.078   6.849  0.8419 -0.3595 -0.3017
  171SAPE   H4R19350   4.599  -0.039   6.892  0.4112 -1.8240  0.1243
  171SAPE   H4S19351   4.777  -0.029   6.904 -1.7002 -1.1608  4.8384
  171SAPE   C2519352   4.717  -0.228   6.860  0.4666 -0.3927 -0.5432
  171SAPE   H5R19353   4.635  -0.298   6.839  0.5444 -0.4331 -0.7168
  171SAPE   C2619354   4.822  -0.290   6.919 -0.4110  0.3582  0.7306
  171SAPE   H6R19355   4.809  -0.396   6.944 -1.8388  0.6505  1.2818
  171SAPE   C2719356   4.947  -0.226   6.973 -0.4656 -1.0050 -0.7449
  171SAPE   H7R19357   4.917  -0.137   7.032 -0.1705  0.4138 -2.6162
  171SAPE   H7S19358   5.008  -0.185   6.889  0.8685  2.0492  1.5146
  171SAPE   C2819359   5.032  -0.331   7.046  0.3854  0.4226 -0.0404
  171SAPE   H8R19360   5.078  -0.402   6.975  1.2004  0.1781  0.7172
  171SAPE   C2919361   5.073  -0.325   7.171  0.0250 -0.1538  0.9679
  171SAPE   H9R19362   5.136  -0.408   7.205  0.7397 -0.5697 -1.2201
  171SAPE  C21019363   5.030  -0.218   7.277  0.6163  0.5343 -0.4899
  171SAPE  H10R19364   4.999  -0.125   7.225 -2.0853 -0.7325 -1.3574
  171SAPE  H10S19365   5.122  -0.185   7.330  0.6852  1.8199 -1.3665
  171SAPE  C21119366   4.912  -0.255   7.373  0.0736  0.0669 -0.2689
  171SAPE  H11R19367   4.823  -0.284   7.315  0.7443 -1.8479 -0.4445
  171SAPE  C21219368   4.907  -0.243   7.506 -0.8229  0.3963  0.1317
  171SAPE  H12R19369   4.820  -0.293   7.551  0.6534 -1.9470  0.5383
  171SAPE  C21319370   5.013  -0.183   7.603  0.1137 -0.9705  0.5152
  171SAPE  H13R19371   4.956  -0.107   7.661  0.9991 -0.4575  0.7199
  171SAPE  H13S19372   5.092  -0.130   7.546 -2.5603  1.3093 -1.3847
  171SAPE  C21419373   5.066  -0.297   7.689 -0.0923  0.8963  0.0715
  171SAPE  H14R19374   5.131  -0.365   7.632 -0.0983  1.8101 -1.0656
  171SAPE  C21519375   5.071  -0.296   7.825  0.4433 -0.5831 -0.1980
  171SAPE  H15R19376   5.118  -0.379   7.880  0.4554  0.0310  0.7389
  171SAPE  C21619377   5.001  -0.187   7.905 -1.1694  1.3940  0.3540
  171SAPE  H16R19378   4.897  -0.193   7.866 -0.5728 -2.3825 -1.1055
  171SAPE  H16S19379   5.041  -0.084   7.896  1.5896  0.5289  1.6116
  171SAPE  C21719380   4.990  -0.208   8.057  0.4759  0.0314 -0.2748
  171SAPE  H17R19381   5.092  -0.197   8.101  0.2450  0.8531  0.0722
  171SAPE  H17S19382   4.940  -0.303   8.087  0.0066  0.2025 -0.5111
  171SAPE  C21819383   4.904  -0.088   8.115 -0.2696 -1.0237 -0.2358
  171SAPE  H18R19384   4.818  -0.077   8.047  0.0832  2.9561 -0.2681
  171SAPE  H18S19385   4.961   0.006   8.099 -0.4097 -0.8116  0.4808
  171SAPE  C21919386   4.871  -0.097   8.266 -0.2335  0.2761  0.0879
  171SAPE  H19R19387   4.821  -0.193   8.292 -0.0992  0.6650  1.9446
  171SAPE  H19S19388   4.794  -0.024   8.299  0.4645  0.6549  0.9122
  171SAPE  C22019389   4.987  -0.081   8.359  0.1255  0.1061 -0.1516
  171SAPE  H20R19390   5.028   0.020   8.343 -1.8104  0.7311 -1.6107
  171SAPE  H20S19391   5.062  -0.159   8.335  0.2354  0.3922 -0.7398
  171SAPE  H20T19392   4.955  -0.082   8.465  1.2867  2.7518  0.2936
  171SAPE   C3319393   4.028  -0.188   7.053 -0.3354 -0.0228 -0.5987
  171SAPE   H3X19394   3.931  -0.162   7.005 -0.6604  0.9510  0.5400
  171SAPE   H3Y19395   4.076  -0.088   7.058 -0.7234  0.1470 -0.1860
  171SAPE   C3419396   4.015  -0.253   7.192 -0.8572 -0.3777  0.7199
  171SAPE   H4X19397   3.970  -0.353   7.176 -3.1004  0.9630 -2.3885
  171SAPE   H4Y19398   3.949  -0.198   7.263 -0.8021 -0.1304  0.5809
  171SAPE   C3519399   4.157  -0.273   7.262 -0.8472  0.4705 -0.7925
  171SAPE   H5X19400   4.211  -0.176   7.268  0.9030 -0.5536  1.9253
  171SAPE   H5Y19401   4.221  -0.341   7.202 -0.7512  0.0111 -0.1783
  171SAPE   C3619402   4.156  -0.311   7.410  0.5836  0.5369 -0.6332
  171SAPE   H6X19403   4.258  -0.291   7.450  0.1442  0.9358  0.2984
  171SAPE   H6Y19404   4.139  -0.420   7.427  2.3191  0.2043 -0.7819
  171SAPE   C3719405   4.055  -0.221   7.486  0.0455 -0.1597 -0.1903
  171SAPE   H7X19406   3.953  -0.257   7.462 -0.7415  2.6355 -1.4218
  171SAPE   H7Y19407   4.060  -0.118   7.446  2.0382  0.7203  2.0252
  171SAPE   C3819408   4.067  -0.218   7.637  0.5540 -0.0850 -0.6708
  171SAPE   H8X19409   4.174  -0.214   7.668  0.4071  0.4226 -0.2192
  171SAPE   H8Y19410   4.024  -0.314   7.672 -0.5606  0.9690  0.9476
  171SAPE   C3919411   3.981  -0.110   7.700  0.1173  0.3601 -0.3960
  171SAPE   H9X19412   3.871  -0.122   7.687 -0.2995  1.1208  1.9520
  171SAPE   H9Y19413   4.021  -0.014   7.662  0.8175 -0.2355 -1.2006
  171SAPE  C31019414   4.007  -0.102   7.858  0.6800  0.3433  0.5721
  171SAPE  H10X19415   3.931  -0.031   7.896  0.2646  0.4062 -0.3558
  171SAPE  H10Y19416   4.109  -0.062   7.877  0.2421  2.1240 -0.5577
  171SAPE  C31119417   3.998  -0.232   7.940  0.4442 -0.3393  0.1030
  171SAPE  H11X19418   4.088  -0.296   7.924 -0.5677 -1.3493 -1.9883
  171SAPE  H11Y19419   3.904  -0.286   7.915 -1.1842  1.0006  2.9402
  171SAPE  C31219420   4.001  -0.207   8.087  0.4160  0.6883  0.0710
  171SAPE  H12X19421   3.905  -0.160   8.118 -0.3111  0.4999 -1.8131
  171SAPE  H12Y19422   4.091  -0.148   8.112  2.3974 -2.0261 -0.1775
  171SAPE  C31319423   3.999  -0.342   8.168 -0.4248 -0.2282  0.1565
  171SAPE  H13X19424   4.094  -0.398   8.152  0.5232  1.6340 -1.1130
  171SAPE  H13Y19425   3.917  -0.405   8.128 -1.3738  1.4018 -0.5700
  171SAPE  C31419426   3.966  -0.341   8.318 -0.2594 -0.3045  0.7008
  171SAPE  H14X19427   3.968  -0.450   8.340  1.3115 -0.7644 -1.4907
  171SAPE  H14Y19428   3.871  -0.284   8.326  0.6264  1.7818 -2.2906
  171SAPE  C31519429   4.062  -0.267   8.404  0.0157 -0.3732 -0.3477
  171SAPE  H15X19430   4.111  -0.179   8.358  0.6862 -0.6658 -0.2017
  171SAPE  H15Y19431   4.146  -0.333   8.433  2.3487  2.2814 -0.6543
  171SAPE  C31619432   3.989  -0.228   8.541  0.0400  0.4912  0.3667
  171SAPE  H16X19433   3.973  -0.319   8.602 -4.1264  1.2403  0.7147
  171SAPE  H16Y19434   3.883  -0.202   8.520 -0.2980  0.5756  2.0649
  171SAPE  C31719435   4.060  -0.134   8.634  0.2571 -0.5155  0.7459
  171SAPE  H17X19436   4.011  -0.116   8.732  0.8726  1.9009  0.6700
  171SAPE  H17Y19437   4.047  -0.033   8.591  1.4830  0.5294  2.6810
  171SAPE  C31819438   4.210  -0.152   8.643  0.0947 -0.6553  0.3195
  171SAPE  H18X19439   4.219  -0.252   8.691 -1.4893 -0.8835  0.1887
  171SAPE  H18Y19440   4.269  -0.076   8.699 -0.2753  0.3788 -0.6593
  171SAPE  H18Z19441   4.258  -0.155   8.543 -2.0009  2.2445 -0.9179
  172SAPE     N19442   4.905   5.570   6.278  0.7054  0.1320  0.0975
  172SAPE   HN119443   4.972   5.494   6.302  1.6457  1.1889  0.9125
  172SAPE   HN219444   4.847   5.530   6.201  1.5902 -1.3717  0.1598
  172SAPE   HN319445   4.956   5.654   6.244 -2.1824  1.7201 -0.6167
  172SAPE   C1219446   4.826   5.627   6.389 -0.3040 -0.8631  0.1758
  172SAPE  H12A19447   4.899   5.679   6.455 -0.3517  0.0704 -0.4931
  172SAPE  H12B19448   4.772   5.546   6.443  0.8351 -0.7746  1.5045
  172SAPE   C1119449   4.723   5.727   6.328 -0.9576  0.1886 -0.3364
  172SAPE  H11A19450   4.681   5.777   6.418 -0.1104 -1.2251  0.9077
  172SAPE  H11B19451   4.631   5.680   6.289 -2.1759  0.4178  2.0819
  172SAPE     P19452   4.722   5.933   6.160  0.0299  0.3191 -0.3069
  172SAPE   O1319453   4.779   6.060   6.200 -0.2613 -0.3730  0.4989
  172SAPE   O1419454   4.729   5.903   6.014 -0.0980  0.0581  0.0462
  172SAPE   O1219455   4.794   5.822   6.244 -0.3129 -0.1031 -0.6520
  172SAPE   O1119456   4.568   5.925   6.203  0.2068 -0.0378 -0.3827
  172SAPE    C119457   4.474   6.034   6.200 -0.3105 -0.1390 -0.2694
  172SAPE    HA19458   4.526   6.131   6.190  0.7724 -0.4778  1.5990
  172SAPE    HB19459   4.412   6.009   6.111 -0.9764  0.0457  0.1310
  172SAPE    C219460   4.381   6.034   6.326 -0.1246 -0.3341  0.9372
  172SAPE    HS19461   4.313   6.122   6.319  0.9162  0.5084  0.9984
  172SAPE   O2119462   4.464   6.047   6.441  0.0602 -0.4283  0.4765
  172SAPE   C2119463   4.491   6.177   6.473 -0.0454 -0.4528 -0.0873
  172SAPE   O2219464   4.440   6.275   6.413  0.2140  0.5209  0.4974
  172SAPE   C2219465   4.584   6.180   6.597  0.2155 -0.4352  0.1532
  172SAPE   H2R19466   4.684   6.152   6.558  0.2990  0.0547  0.0123
  172SAPE   H2S19467   4.599   6.285   6.629  1.0763 -0.8814  1.2686
  172SAPE    C319468   4.300   5.903   6.339 -0.2744  0.0594 -0.7189
  172SAPE    HX19469   4.374   5.822   6.356 -0.7874 -0.3933 -0.6361
  172SAPE    HY19470   4.235   5.881   6.251 -1.4939  2.0165 -0.3624
  172SAPE   O3119471   4.221   5.892   6.466  0.0908  0.0729 -0.4323
  172SAPE   C3119472   4.113   5.969   6.480 -0.1592 -0.7995  0.0981
  172SAPE   O3219473   4.061   6.039   6.393  0.1513  0.4143  0.8737
  172SAPE   C3219474   4.062   5.962   6.623  0.5719  0.5419  0.2532
  172SAPE   H2X19475   4.156   5.976   6.681  0.1099  2.6937  0.5505
  172SAPE   H2Y19476   4.003   5.868   6.621 -0.7824  1.3924 -0.9623
  172SAPE   C2319477   4.550   6.094   6.720 -0.6002 -0.1017 -0.4943
  172SAPE   H3R19478   4.635   6.081   6.791 -0.3597 -0.5974 -0.8654
  172SAPE   H3S19479   4.529   5.996   6.673 -1.7840  0.9264 -2.2076
  172SAPE   C2419480   4.423   6.125   6.790  0.6286  0.0571 -0.9805
  172SAPE   H4R19481   4.417   6.047   6.869  0.0546 -0.6891 -1.7503
  172SAPE   H4S19482   4.329   6.115   6.732 -1.5226  2.2430  1.8171
  172SAPE   C2519483   4.435   6.263   6.860 -0.3064 -0.1646 -0.5712
  172SAPE   H5R19484   4.393   6.349   6.805 -0.4870  0.4504  0.4933
  172SAPE   C2619485   4.483   6.288   6.980  0.7039 -0.5720 -0.3797
  172SAPE   H6R19486   4.475   6.394   7.011 -1.9972 -0.5485 -0.9129
  172SAPE   C2719487   4.530   6.193   7.078  0.2432  0.2566 -0.3974
  172SAPE   H7R19488   4.622   6.225   7.132 -0.0177 -3.4718  2.7335
  172SAPE   H7S19489   4.551   6.095   7.032 -0.6926 -0.1831  0.0896
  172SAPE   C2819490   4.424   6.162   7.184  0.1090  0.7507  0.0937
  172SAPE   H8R19491   4.337   6.108   7.146  0.1955  0.1763  0.6998
  172SAPE   C2919492   4.420   6.202   7.314  0.9477 -0.3250  0.2279
  172SAPE   H9R19493   4.337   6.171   7.378  0.0328  2.0204  0.2940
  172SAPE  C21019494   4.522   6.278   7.393 -0.1662  0.0471 -0.4019
  172SAPE  H10R19495   4.479   6.371   7.436  2.0215  0.6160  0.6998
  172SAPE  H10S19496   4.598   6.318   7.322  1.1469 -1.8997 -0.1792
  172SAPE  C21119497   4.588   6.194   7.499  0.1436 -0.3201  0.5571
  172SAPE  H11R19498   4.654   6.114   7.460  0.5452  0.7890 -1.1685
  172SAPE  C21219499   4.571   6.203   7.626 -0.4064 -0.5804 -0.1672
  172SAPE  H12R19500   4.638   6.145   7.692 -0.3221 -0.1584  0.1224
  172SAPE  C21319501   4.490   6.310   7.695  0.0384  0.3374  0.3414
  172SAPE  H13R19502   4.399   6.264   7.741 -2.7889  4.3177 -0.7999
  172SAPE  H13S19503   4.433   6.373   7.625 -0.4452  0.5741  0.9362
  172SAPE  C21419504   4.568   6.385   7.804 -0.0661  0.1100  0.4157
  172SAPE  H14R19505   4.595   6.318   7.887 -1.1900  0.6305  1.2314
  172SAPE  C21519506   4.616   6.510   7.805  0.8994  0.0348 -0.0366
  172SAPE  H15R19507   4.671   6.543   7.895 -1.6431  0.2476  1.5429
  172SAPE  C21619508   4.602   6.611   7.694 -0.1164 -0.2949 -0.6757
  172SAPE  H16R19509   4.603   6.567   7.592  0.6942  0.5705 -1.0552
  172SAPE  H16S19510   4.698   6.667   7.687  0.6193 -1.4451 -0.1388
  172SAPE  C21719511   4.498   6.718   7.723  0.3094  0.4597  1.1823
  172SAPE  H17R19512   4.487   6.749   7.829 -0.6307  1.4612  0.8067
  172SAPE  H17S19513   4.402   6.671   7.693  1.7774 -1.1343 -1.4959
  172SAPE  C21819514   4.508   6.848   7.639  0.1688 -0.1175 -0.0422
  172SAPE  H18R19515   4.593   6.913   7.669 -1.1752  2.5274 -1.6081
  172SAPE  H18S19516   4.414   6.906   7.646 -0.4617 -1.2223  1.3076
  172SAPE  C21919517   4.543   6.823   7.491 -0.3284 -0.1398  0.2728
  172SAPE  H19R19518   4.474   6.742   7.458  0.8172 -1.4874  1.0613
  172SAPE  H19S19519   4.646   6.781   7.482 -0.2422  0.0174  0.4998
  172SAPE  C22019520   4.525   6.948   7.402 -0.1935  0.5125 -0.2668
  172SAPE  H20R19521   4.421   6.982   7.418 -0.1449 -0.4507  2.6504
  172SAPE  H20S19522   4.539   6.948   7.292  1.0391 -2.7472 -0.2321
  172SAPE  H20T19523   4.596   7.028   7.432  1.8548 -1.3174 -0.0071
  172SAPE   C3319524   3.979   6.082   6.658  1.0567 -0.6707  0.5772
  172SAPE   H3X19525   3.893   6.089   6.588  0.5029 -0.3028  1.2743
  172SAPE   H3Y19526   4.037   6.177   6.661  0.9119 -0.5086 -0.9422
  172SAPE   C3419527   3.906   6.077   6.793  0.9259  0.1624 -1.0835
  172SAPE   H4X19528   3.843   5.985   6.791  1.5440 -0.3137  0.1710
  172SAPE   H4Y19529   3.841   6.165   6.807  0.6601 -0.5226  3.4209
  172SAPE   C3519530   4.001   6.077   6.912  0.1564  0.5571  0.1922
  172SAPE   H5X19531   4.077   6.157   6.904 -0.7833  1.4198 -0.4161
  172SAPE   H5Y19532   4.069   5.990   6.899  1.1043  1.6633 -3.2522
  172SAPE   C3619533   3.934   6.068   7.050 -1.1322  0.0655 -0.5225
  172SAPE   H6X19534   3.865   5.981   7.051 -0.0632 -0.8076  0.5166
  172SAPE   H6Y19535   3.880   6.163   7.068 -1.8491 -0.0880 -1.7726
  172SAPE   C3719536   4.029   6.038   7.165 -0.0930  0.6899  0.5473
  172SAPE   H7X19537   4.105   6.118   7.167 -0.6807  1.2365  2.0705
  172SAPE   H7Y19538   4.091   5.948   7.144  1.5388  1.9592 -0.3102
  172SAPE   C3819539   3.960   6.041   7.304 -0.2420  0.4186  0.2652
  172SAPE   H8X19540   3.892   5.954   7.315 -0.6096  0.4761 -1.3451
  172SAPE   H8Y19541   3.901   6.135   7.314  0.4046  1.0781 -1.6304
  172SAPE   C3919542   4.057   6.039   7.418 -0.5625  0.6611  0.5002
  172SAPE   H9X19543   4.120   6.131   7.426  0.7354 -0.2261  0.8438
  172SAPE   H9Y19544   4.127   5.952   7.417  0.0651  1.1542  0.0843
  172SAPE  C31019545   3.976   6.045   7.549 -0.3429 -0.5412  0.4497
  172SAPE  H10X19546   3.929   5.948   7.577  0.6476 -1.3517 -0.6303
  172SAPE  H10Y19547   3.892   6.116   7.533  0.8532  1.3206  1.9948
  172SAPE  C31119548   4.061   6.077   7.670 -0.1102  0.9332  0.2093
  172SAPE  H11X19549   4.111   6.176   7.670  1.8035  0.0349 -1.1355
  172SAPE  H11Y19550   4.144   6.003   7.665 -0.8058 -0.0792  2.3726
  172SAPE  C31219551   3.982   6.066   7.801  0.3820  0.0737  0.1326
  172SAPE  H12X19552   3.984   5.960   7.833 -0.1970  0.3458  1.1585
  172SAPE  H12Y19553   3.874   6.090   7.789  0.7555  0.7144 -2.4451
  172SAPE  C31319554   4.049   6.143   7.921 -0.5988 -0.0054 -0.4189
  172SAPE  H13X19555   3.986   6.135   8.013  2.1488 -0.1388  1.5790
  172SAPE  H13Y19556   4.062   6.250   7.894  0.0015 -0.3111 -1.3722
  172SAPE  C31419557   4.183   6.077   7.971 -0.1048  0.0249 -0.4900
  172SAPE  H14X19558   4.255   6.073   7.887  0.9655 -0.3101  0.4163
  172SAPE  H14Y19559   4.175   5.968   7.993 -1.4244 -0.0689 -1.3790
  172SAPE  C31519560   4.239   6.162   8.090 -0.2660  0.2757  0.1700
  172SAPE  H15X19561   4.155   6.185   8.159 -0.2556  0.6486  0.0586
  172SAPE  H15Y19562   4.279   6.257   8.049  1.3726 -0.7431 -0.7041
  172SAPE  C31619563   4.351   6.083   8.153 -0.4036  0.0248 -0.1183
  172SAPE  H16X19564   4.403   6.007   8.091 -1.5671 -1.8525  1.1472
  172SAPE  H16Y19565   4.304   6.030   8.238 -0.6241  2.4748  1.3828
  172SAPE  C31719566   4.460   6.173   8.218  0.7248  0.1263  0.2711
  172SAPE  H17X19567   4.528   6.211   8.139  0.4289  2.3291  1.0068
  172SAPE  H17Y19568   4.529   6.117   8.283  0.3112  1.6279  2.0912
  172SAPE  C31819569   4.409   6.298   8.296  0.0039  0.5011 -0.0643
  172SAPE  H18X19570   4.358   6.274   8.392 -1.1109  0.7241 -0.5962
  172SAPE  H18Y19571   4.347   6.362   8.231  2.3429  1.0112 -1.9259
  172SAPE  H18Z19572   4.488   6.372   8.323 -1.6140  2.4840 -0.5538
  173SOPE     N19573   6.713   3.929  10.822  0.0262  0.7326  0.0826
  173SOPE   HN119574   6.713   3.827  10.803 -1.9225  0.5444  0.9067
  173SOPE   HN219575   6.668   3.979  10.742 -0.3799 -1.8281 -1.3834
  173SOPE   HN319576   6.810   3.967  10.829 -0.6011  2.2751  1.0064
  173SOPE   C1219577   6.643   3.959  10.954 -0.3592  0.7570 -0.2260
  173SOPE  H12A19578   6.721   4.014  11.011  0.7651 -0.2234 -0.7544
  173SOPE  H12B19579   6.625   3.863  11.005 -2.1676  0.6473 -0.9817
  173SOPE   C1119580   6.514   4.034  10.930 -0.2387  0.2909 -0.0253
  173SOPE  H11A19581   6.460   4.054  11.025 -0.4949 -2.4980  0.4841
  173SOPE  H11B19582   6.443   3.969  10.875  0.0946  0.4639 -0.6738
  173SOPE     P19583   6.473   4.180  10.725 -0.2694  0.2971 -0.2487
  173SOPE   O1319584   6.516   4.308  10.662  0.2022 -0.1997 -0.4421
  173SOPE   O1419585   6.327   4.157  10.736 -0.2830 -0.2997 -0.1522
  173SOPE   O1219586   6.542   4.159  10.871  0.0509  0.2927  0.0188
  173SOPE   O1119587   6.539   4.060  10.650 -0.5972  0.6830  0.3539
  173SOPE    C119588   6.468   3.942  10.601  0.2398 -0.0920 -0.4930
  173SOPE    HA19589   6.385   3.913  10.669  0.3675  1.1596  0.2245
  173SOPE    HB19590   6.535   3.854  10.588 -1.6185 -1.2732 -3.3004
  173SOPE    C219591   6.417   3.969  10.453 -0.1214  0.6035 -0.2003
  173SOPE    HS19592   6.343   4.052  10.454  0.2886  0.9759 -0.5603
  173SOPE   O2119593   6.364   3.851  10.399 -0.0435 -0.7896  0.0568
  173SOPE   C2119594   6.241   3.817  10.435 -0.8891 -0.0067 -0.4050
  173SOPE   O2219595   6.170   3.870  10.521 -0.2161  0.5022 -0.6833
  173SOPE   C2219596   6.210   3.682  10.369 -0.2630 -0.2850  0.6237
  173SOPE   H2R19597   6.155   3.629  10.450  0.5892  0.7429  1.9176
  173SOPE   H2S19598   6.306   3.631  10.346  0.4686  0.6990  1.4093
  173SOPE    C319599   6.538   4.018  10.369  0.0707  0.0957 -0.2831
  173SOPE    HX19600   6.636   3.968  10.389  0.3242  1.2973  1.7207
  173SOPE    HY19601   6.555   4.124  10.396 -1.3250  0.0599  0.8408
  173SOPE   O3119602   6.517   4.013  10.224 -0.0526 -0.2660 -0.3155
  173SOPE   C3119603   6.594   3.932  10.155  0.3708  0.0745  0.1442
  173SOPE   O3219604   6.686   3.866  10.195  0.1058 -0.6809  0.0163
  173SOPE   C3219605   6.543   3.921  10.006  0.1914  0.1257 -0.3751
  173SOPE   H2X19606   6.517   4.021   9.965  0.7619 -0.5876 -2.5768
  173SOPE   H2Y19607   6.458   3.849  10.007  1.9101 -2.0009  0.5921
  173SOPE   C2319608   6.112   3.682  10.245 -0.3223  0.4706  0.0829
  173SOPE   H3R19609   6.178   3.704  10.158 -0.2027 -0.1679  0.0088
  173SOPE   H3S19610   6.029   3.756  10.249 -0.4298  0.3315  0.4815
  173SOPE   C2419611   6.055   3.542  10.226 -0.0240 -0.6926 -0.5811
  173SOPE   H4R19612   6.133   3.464  10.244  1.1380  0.4574 -0.4915
  173SOPE   H4S19613   5.966   3.532  10.291 -0.4770  0.4656 -1.0015
  173SOPE   C2519614   6.008   3.530  10.083  0.2931  0.4181  0.4347
  173SOPE   H5R19615   5.915   3.470  10.072  2.0673 -3.1701  2.9948
  173SOPE   H5S19616   5.998   3.636  10.051  1.8000  0.2914 -0.5344
  173SOPE   C2619617   6.111   3.491   9.973 -0.7611  0.4237 -0.8724
  173SOPE   H6R19618   6.195   3.562   9.989 -0.6539 -0.2525  2.3502
  173SOPE   H6S19619   6.157   3.391   9.984 -0.5775  0.5529 -0.4391
  173SOPE   C2719620   6.047   3.478   9.833 -0.4856 -0.2836  0.0653
  173SOPE   H7R19621   5.965   3.403   9.846  0.3260 -1.4835 -1.4854
  173SOPE   H7S19622   5.994   3.569   9.797 -0.9863 -0.4220  0.4334
  173SOPE   C2819623   6.139   3.390   9.745 -0.1922 -0.0234  0.1049
  173SOPE   H8R19624   6.174   3.298   9.795  0.5549  1.1110  1.7488
  173SOPE   H8S19625   6.066   3.349   9.671 -0.5658 -1.1373  1.0667
  173SOPE   C2919626   6.258   3.459   9.679 -0.3542 -0.6987 -0.1996
  173SOPE   H9119627   6.352   3.454   9.736  0.1474  0.4138 -0.8994
  173SOPE  C21019628   6.266   3.523   9.561 -0.1610  0.6625  0.7188
  173SOPE  H10119629   6.361   3.560   9.519 -0.5257  0.1694 -0.5890
  173SOPE  C21119630   6.161   3.553   9.454  0.3022 -0.3771  0.3775
  173SOPE  H11R19631   6.160   3.659   9.420 -1.3562 -1.0914 -2.1287
  173SOPE  H11S19632   6.062   3.526   9.496  0.8663 -0.3246  1.7909
  173SOPE  C21219633   6.180   3.481   9.322  0.6054  0.1886  0.2337
  173SOPE  H12R19634   6.145   3.376   9.333 -0.2577  0.6945  3.3485
  173SOPE  H12S19635   6.287   3.488   9.294  0.2512  2.0848 -0.8515
  173SOPE  C21319636   6.093   3.543   9.207  0.0725  0.1051 -0.4301
  173SOPE  H13R19637   6.115   3.651   9.194  0.3424  0.0052 -0.8189
  173SOPE  H13S19638   5.984   3.523   9.214  0.1189 -0.1001 -0.2782
  173SOPE  C21419639   6.129   3.491   9.067 -0.3584  0.3839  0.2573
  173SOPE  H14R19640   6.095   3.385   9.066  0.5019  0.0956  0.4905
  173SOPE  H14S19641   6.239   3.484   9.051  0.1042  0.2776  2.9406
  173SOPE  C21519642   6.059   3.557   8.951  0.2470  0.4631 -0.2876
  173SOPE  H15R19643   6.136   3.629   8.918 -0.8291  1.7233 -0.1429
  173SOPE  H15S19644   5.981   3.623   8.995  1.3557  1.2886  0.5070
  173SOPE  C21619645   6.012   3.466   8.838 -0.0244 -0.7778 -0.5098
  173SOPE  H16R19646   5.913   3.494   8.797  0.4975 -2.0820 -2.9191
  173SOPE  H16S19647   5.994   3.368   8.887  0.3275 -0.0159  1.1806
  173SOPE  C21719648   6.125   3.451   8.724  0.5464  0.4052 -0.4251
  173SOPE  H17R19649   6.222   3.420   8.768  0.3790 -0.5169 -0.6876
  173SOPE  H17S19650   6.124   3.553   8.681  0.4303  0.2678 -0.7507
  173SOPE  C21819651   6.093   3.339   8.621  0.1390 -0.4840 -0.2235
  173SOPE  H18R19652   6.178   3.321   8.552  1.3447  0.7985  0.8839
  173SOPE  H18S19653   6.004   3.365   8.558 -0.1092  0.0440  0.3340
  173SOPE  H18T19654   6.062   3.247   8.675 -0.7813 -0.8042 -1.2610
  173SOPE   C3319655   6.660   3.865   9.927 -0.3225 -0.5551  0.6373
  173SOPE   H3X19656   6.682   3.764   9.966 -0.7413 -1.8495 -2.2135
  173SOPE   H3Y19657   6.749   3.931   9.920 -1.3561  1.0221  1.7838
  173SOPE   C3419658   6.630   3.838   9.779 -0.0724  0.4133  0.9039
  173SOPE   H4X19659   6.557   3.754   9.775  1.3309 -0.9101  1.9260
  173SOPE   H4Y19660   6.721   3.783   9.747  2.0247  2.3764  3.0847
  173SOPE   C3519661   6.605   3.946   9.679 -0.2170  0.6389  0.1854
  173SOPE   H5X19662   6.688   4.019   9.693 -0.0424  0.5163 -0.1830
  173SOPE   H5Y19663   6.512   4.003   9.699 -0.5881  0.4080 -0.8125
  173SOPE   C3619664   6.636   3.904   9.538 -0.4125  0.3071  0.5378
  173SOPE   H6X19665   6.736   3.858   9.519 -0.0912  0.7346  1.1517
  173SOPE   H6Y19666   6.638   4.001   9.486 -1.0505 -0.6367 -1.3260
  173SOPE   C3719667   6.528   3.819   9.463  0.1685  0.4304  0.1900
  173SOPE   H7X19668   6.433   3.860   9.506  1.4131  1.6650  1.9059
  173SOPE   H7Y19669   6.538   3.710   9.478  0.4696  0.6156  1.4492
  173SOPE   C3819670   6.531   3.847   9.312 -0.2007  0.0179 -0.0356
  173SOPE   H8X19671   6.633   3.840   9.267 -0.3877  1.5229 -0.7444
  173SOPE   H8Y19672   6.504   3.955   9.309  2.2945  0.8515  2.5462
  173SOPE   C3919673   6.435   3.761   9.230  0.0970 -0.2502  0.0725
  173SOPE   H9X19674   6.337   3.764   9.283  0.1347  1.5737  0.0890
  173SOPE   H9Y19675   6.481   3.659   9.236  2.9206  0.8655 -0.8486
  173SOPE  C31019676   6.423   3.791   9.079 -0.4253 -0.5993 -0.0004
  173SOPE  H10X19677   6.363   3.708   9.036 -1.0558 -1.1144  1.7678
  173SOPE  H10Y19678   6.527   3.790   9.039 -0.0062 -0.0859  1.0312
  173SOPE  C31119679   6.354   3.918   9.037  0.0328 -0.4078 -0.1609
  173SOPE  H11X19680   6.410   4.004   9.079  0.1408 -0.4708 -0.1735
  173SOPE  H11Y19681   6.254   3.914   9.084  0.6250  0.6305  1.2282
  173SOPE  C31219682   6.335   3.923   8.883  0.5953  0.4728  0.0501
  173SOPE  H12X19683   6.275   4.007   8.841 -1.4632 -1.9856 -2.4150
  173SOPE  H12Y19684   6.272   3.835   8.857 -1.3478  1.0926  2.2504
  173SOPE  C31319685   6.458   3.914   8.799 -0.3815  0.3553 -0.5121
  173SOPE  H13X19686   6.501   3.813   8.785 -1.3328 -0.1956  0.4149
  173SOPE  H13Y19687   6.535   3.966   8.859  0.7849 -1.2140 -0.5882
  173SOPE  C31419688   6.442   3.992   8.671  0.9848 -0.3966  0.0299
  173SOPE  H14X19689   6.409   4.095   8.694 -1.1286 -0.9089 -0.4402
  173SOPE  H14Y19690   6.359   3.948   8.611 -0.1355 -1.1413  2.0324
  173SOPE  C31519691   6.569   3.994   8.582 -0.6176  0.6766 -0.3055
  173SOPE  H15X19692   6.602   3.888   8.576  2.6722  1.4659  1.7022
  173SOPE  H15Y19693   6.648   4.050   8.635  1.6885 -1.4310 -1.3333
  173SOPE  C31619694   6.540   4.071   8.453 -0.2651 -0.4775 -0.3947
  173SOPE  H16X19695   6.471   4.158   8.463  0.0254 -0.0569 -1.7970
  173SOPE  H16Y19696   6.487   4.001   8.385 -1.5768 -0.5562  0.6798
  173SOPE  C31719697   6.672   4.121   8.396 -0.1539  0.3203  0.6208
  173SOPE  H17X19698   6.719   4.205   8.451  1.2199 -0.5330  0.8017
  173SOPE  H17Y19699   6.645   4.169   8.299 -0.4008 -0.1048  0.4773
  173SOPE  C31819700   6.789   4.014   8.386 -0.3275  0.7291  0.1749
  173SOPE  H18X19701   6.740   3.925   8.340  1.4116  1.1682 -2.8186
  173SOPE  H18Y19702   6.831   3.988   8.485 -0.0179  0.5258 -0.0046
  173SOPE  H18Z19703   6.874   4.036   8.317  0.6149  2.3637  1.7796
  174SOPE     N19704   6.253   2.841  10.897 -0.3150  0.3077 -0.6585
  174SOPE   HN119705   6.208   2.931  10.924  0.7198  0.5077  0.5093
  174SOPE   HN219706   6.184   2.767  10.921 -0.7164  0.4790 -1.2619
  174SOPE   HN319707   6.331   2.825  10.964 -1.3548  2.3193  1.1549
  174SOPE   C1219708   6.288   2.843  10.748  0.3630 -0.6841 -0.2548
  174SOPE  H12A19709   6.391   2.883  10.751  0.6129 -1.3069  3.1716
  174SOPE  H12B19710   6.214   2.911  10.700  0.1712 -1.9415 -1.7956
  174SOPE   C1119711   6.277   2.705  10.676  0.1390  0.2302 -0.3711
  174SOPE  H11A19712   6.369   2.646  10.695 -0.8049 -0.5734  2.0122
  174SOPE  H11B19713   6.277   2.714  10.565  2.8332 -1.9334 -0.6459
  174SOPE     P19714   6.016   2.660  10.666  0.2244 -0.0161  0.1722
  174SOPE   O1319715   5.988   2.808  10.640 -0.1077 -0.0532  0.1800
  174SOPE   O1419716   5.922   2.585  10.747 -0.0406  0.0349 -0.3028
  174SOPE   O1219717   6.159   2.633  10.722 -0.1514  0.0319  0.0224
  174SOPE   O1119718   6.036   2.588  10.530  0.2032 -0.5276 -0.7732
  174SOPE    C119719   6.056   2.446  10.519  0.6002  0.5551  0.0398
  174SOPE    HA19720   5.987   2.404  10.442  3.1685 -3.9061 -0.1738
  174SOPE    HB19721   6.046   2.395  10.617  3.2274 -0.8813 -0.3493
  174SOPE    C219722   6.198   2.407  10.478  0.0252 -0.1941 -0.2914
  174SOPE    HS19723   6.271   2.455  10.548 -0.5988  0.0079  0.2268
  174SOPE   O2119724   6.224   2.436  10.338  0.2860  0.6717 -0.2329
  174SOPE   C2119725   6.348   2.490  10.307 -0.1996  0.1937  0.0470
  174SOPE   O2219726   6.429   2.528  10.386 -0.1006 -0.4434  0.5173
  174SOPE   C2219727   6.371   2.491  10.157 -1.1904  0.9219 -0.1819
  174SOPE   H2R19728   6.385   2.382  10.139  0.1993  0.6993  1.8769
  174SOPE   H2S19729   6.474   2.530  10.147 -0.6422 -0.0300  1.4049
  174SOPE    C319730   6.215   2.260  10.506 -0.2811 -0.3824 -0.1360
  174SOPE    HX19731   6.188   2.240  10.612 -1.0629  0.3009 -0.1997
  174SOPE    HY19732   6.323   2.238  10.493  0.4622  2.2927  0.8602
  174SOPE   O3119733   6.138   2.177  10.421 -0.2187  0.9299  0.2084
  174SOPE   C3119734   6.170   2.047  10.410  0.2163  0.3571  1.0190
  174SOPE   O3219735   6.271   1.993  10.449 -0.0019 -0.9423 -0.0557
  174SOPE   C3219736   6.072   1.977  10.318 -0.2271  0.6351 -0.4564
  174SOPE   H2X19737   5.975   2.027  10.340 -1.3672 -1.6192 -0.1365
  174SOPE   H2Y19738   6.061   1.872  10.353 -0.8461  0.7102 -0.4064
  174SOPE   C2319739   6.272   2.570  10.073  0.4148 -0.2028  0.3886
  174SOPE   H3R19740   6.288   2.674  10.109  0.7827 -0.3283  0.5849
  174SOPE   H3S19741   6.167   2.551  10.104 -0.1196  1.7811 -0.0348
  174SOPE   C2419742   6.280   2.560   9.924  0.4451  0.8737  0.5558
  174SOPE   H4R19743   6.390   2.567   9.910  0.6526  0.7418  1.9716
  174SOPE   H4S19744   6.244   2.461   9.887  1.6872  0.4177  0.5092
  174SOPE   C2519745   6.201   2.673   9.852 -0.3120  0.4982 -0.7585
  174SOPE   H5R19746   6.101   2.626   9.859 -0.3851  0.7471  0.0123
  174SOPE   H5S19747   6.206   2.767   9.912 -2.1276 -0.9290  1.8278
  174SOPE   C2619748   6.242   2.691   9.710 -0.0597  0.2320  0.1490
  174SOPE   H6R19749   6.346   2.730   9.717 -0.5164  1.6180 -0.4147
  174SOPE   H6S19750   6.247   2.591   9.661  1.1377 -0.1502  0.9960
  174SOPE   C2719751   6.154   2.794   9.643  0.4786 -0.2905  0.0726
  174SOPE   H7R19752   6.052   2.761   9.672  0.4462  0.5343  0.9748
  174SOPE   H7S19753   6.157   2.902   9.670  1.5152  0.2434 -1.9571
  174SOPE   C2819754   6.175   2.799   9.492  0.2550 -0.3857 -0.0890
  174SOPE   H8R19755   6.127   2.709   9.447  1.1258  0.9510 -4.1007
  174SOPE   H8S19756   6.123   2.891   9.458  0.4440 -0.0594  0.5012
  174SOPE   C2919757   6.317   2.805   9.439  0.8308  0.2729 -0.3205
  174SOPE   H9119758   6.368   2.714   9.473  1.3444  0.6369 -0.0969
  174SOPE  C21019759   6.381   2.908   9.368  0.3368  0.0496 -0.7966
  174SOPE  H10119760   6.483   2.889   9.330  0.3616 -1.0936 -0.2045
  174SOPE  C21119761   6.315   3.039   9.326  0.7825  0.6603  0.1624
  174SOPE  H11R19762   6.382   3.125   9.344  1.2519  0.8200 -2.0638
  174SOPE  H11S19763   6.220   3.061   9.379  0.9087  0.7991  0.3304
  174SOPE  C21219764   6.278   3.030   9.178  0.1795  0.0864  0.0982
  174SOPE  H12R19765   6.366   3.004   9.115  0.7502 -0.0401  0.9269
  174SOPE  H12S19766   6.224   3.117   9.136  1.2902 -0.4830 -2.7118
  174SOPE  C21319767   6.174   2.916   9.154 -0.1214 -0.2629 -0.1794
  174SOPE  H13R19768   6.089   2.930   9.224  2.3967  0.6484  2.9424
  174SOPE  H13S19769   6.208   2.816   9.188  3.0859  1.0286  0.8395
  174SOPE  C21419770   6.136   2.903   9.002 -0.1855  0.0705  0.5705
  174SOPE  H14R19771   6.126   3.001   8.951  1.1993 -0.1413 -0.1457
  174SOPE  H14S19772   6.036   2.855   8.994 -0.5288  0.7630  0.6655
  174SOPE  C21519773   6.235   2.805   8.922  0.0754 -0.2494 -0.0217
  174SOPE  H15R19774   6.213   2.700   8.951 -1.5680  0.0286 -0.1902
  174SOPE  H15S19775   6.339   2.830   8.951 -0.0194  2.2262 -1.5375
  174SOPE  C21619776   6.220   2.835   8.772 -0.0054  0.3033  0.5472
  174SOPE  H16R19777   6.122   2.883   8.754 -0.3282 -0.7630 -0.7236
  174SOPE  H16S19778   6.218   2.740   8.713 -1.0210  2.2781 -2.8802
  174SOPE  C21719779   6.326   2.928   8.715 -0.0456 -0.0281 -0.1069
  174SOPE  H17R19780   6.426   2.880   8.722 -0.6390 -1.1309  1.3167
  174SOPE  H17S19781   6.342   3.020   8.776  1.5995 -0.6969  0.5362
  174SOPE  C21819782   6.292   2.975   8.573  0.1152  0.1249  0.6021
  174SOPE  H18R19783   6.369   3.047   8.539 -0.6424  0.1356 -1.1803
  174SOPE  H18S19784   6.192   3.019   8.551  1.5863  1.9563 -3.3631
  174SOPE  H18T19785   6.284   2.894   8.497  1.8881  1.0077 -0.5731
  174SOPE   C3319786   6.086   1.983  10.164 -0.5973 -0.6269 -0.2650
  174SOPE   H3X19787   5.997   1.936  10.117 -2.4360  1.6041  0.7887
  174SOPE   H3Y19788   6.176   1.926  10.133  0.6546  0.9059  0.4641
  174SOPE   C3419789   6.108   2.130  10.111  0.4080 -0.4030  0.1276
  174SOPE   H4X19790   6.206   2.177  10.137 -0.3819  1.9757 -0.9311
  174SOPE   H4Y19791   6.029   2.197  10.152 -1.4608 -0.2602 -3.3244
  174SOPE   C3519792   6.092   2.140   9.956  0.0894  0.2917  0.3576
  174SOPE   H5X19793   6.074   2.247   9.933  0.6241 -0.0153 -1.6616
  174SOPE   H5Y19794   6.004   2.083   9.920  0.4566  0.6824 -1.2446
  174SOPE   C3619795   6.220   2.099   9.878 -0.9347  0.3673 -0.4870
  174SOPE   H6X19796   6.278   2.017   9.925 -1.6747 -0.4587 -0.9706
  174SOPE   H6Y19797   6.285   2.187   9.893  1.1786 -1.3169  0.7029
  174SOPE   C3719798   6.216   2.064   9.729  0.1097 -0.1010  0.0323
  174SOPE   H7X19799   6.181   1.960   9.717 -0.2430  0.0161  0.0261
  174SOPE   H7Y19800   6.320   2.075   9.691 -0.0895  1.7266 -0.1125
  174SOPE   C3819801   6.122   2.173   9.662  0.5274  0.1697 -0.7622
  174SOPE   H8X19802   6.182   2.259   9.698  2.2720 -1.7603  1.3037
  174SOPE   H8Y19803   6.018   2.169   9.700  0.4783 -1.2058 -0.9893
  174SOPE   C3919804   6.114   2.160   9.508 -0.3987 -0.1335 -0.6523
  174SOPE   H9X19805   6.045   2.080   9.473 -2.1188  1.0141 -0.0553
  174SOPE   H9Y19806   6.214   2.130   9.472 -0.0905 -2.5911  1.8998
  174SOPE  C31019807   6.072   2.292   9.451  0.1887  0.3595  0.6393
  174SOPE  H10X19808   6.153   2.367   9.463  1.1248 -0.4403 -0.4408
  174SOPE  H10Y19809   5.979   2.336   9.492 -0.8831 -1.5795  0.3843
  174SOPE  C31119810   6.048   2.272   9.298 -0.3121 -0.2967 -0.5667
  174SOPE  H11X19811   5.964   2.202   9.278 -0.3878  0.1019 -1.6950
  174SOPE  H11Y19812   6.146   2.253   9.250  0.8915 -0.0212  1.6630
  174SOPE  C31219813   6.011   2.407   9.226 -0.3667 -0.0253 -0.4455
  174SOPE  H12X19814   6.083   2.487   9.253 -1.6662  1.2700 -0.7132
  174SOPE  H12Y19815   5.917   2.447   9.268  0.6348  0.6981  1.2219
  174SOPE  C31319816   6.016   2.388   9.076  0.0889 -0.0618 -0.0786
  174SOPE  H13X19817   6.118   2.356   9.044  1.2383  2.1745  1.0676
  174SOPE  H13Y19818   5.995   2.493   9.044 -1.9629  0.0576  1.4898
  174SOPE  C31419819   5.906   2.299   9.030  0.2020  0.2640  0.2470
  174SOPE  H14X19820   5.811   2.313   9.085 -0.5589 -0.1482 -0.9119
  174SOPE  H14Y19821   5.929   2.192   9.045 -0.3645  0.3232  1.6778
  174SOPE  C31519822   5.886   2.340   8.876  0.3309  0.3144  0.4664
  174SOPE  H15X19823   5.980   2.341   8.817 -0.0368 -1.8032 -0.2409
  174SOPE  H15Y19824   5.833   2.437   8.867 -2.3394 -1.2094 -1.7760
  174SOPE  C31619825   5.797   2.237   8.800 -0.3653 -0.0507 -0.0814
  174SOPE  H16X19826   5.723   2.199   8.873  0.0503  0.9024  0.8616
  174SOPE  H16Y19827   5.869   2.159   8.768  0.7601  0.5687  0.8654
  174SOPE  C31719828   5.730   2.277   8.670 -0.5941 -0.0401  0.5195
  174SOPE  H17X19829   5.809   2.301   8.595 -0.8699  0.2777  0.3293
  174SOPE  H17Y19830   5.666   2.365   8.689 -0.0353  0.0911  1.9135
  174SOPE  C31819831   5.646   2.161   8.618  0.5919  1.2373  0.0866
  174SOPE  H18X19832   5.592   2.185   8.524 -2.1543 -1.6290  0.7540
  174SOPE  H18Y19833   5.566   2.131   8.689 -1.0551  2.0133 -1.3736
  174SOPE  H18Z19834   5.714   2.077   8.595  0.1429  1.4370 -2.1791
  175SOPE     N19835   1.014   2.996  10.824  0.1891 -0.1655  0.4562
  175SOPE   HN119836   1.013   2.894  10.845 -0.7224 -0.6823 -1.7503
  175SOPE   HN219837   1.046   3.044  10.910 -0.6189  1.4861 -0.1207
  175SOPE   HN319838   0.913   3.020  10.814 -0.0603 -1.4600 -0.4703
  175SOPE   C1219839   1.086   3.031  10.696  0.0417 -0.0595 -0.3322
  175SOPE  H12A19840   1.046   3.122  10.646 -2.8598 -0.8300  0.4247
  175SOPE  H12B19841   1.066   2.948  10.625  0.7579  0.5579 -1.2917
  175SOPE   C1119842   1.241   3.021  10.717  0.0038 -0.1573  0.2164
  175SOPE  H11A19843   1.266   2.925  10.766  0.8096 -0.6636 -1.1349
  175SOPE  H11B19844   1.275   3.110  10.775  0.5900  0.7972 -1.5189
  175SOPE     P19845   1.397   2.919  10.530 -0.1384 -0.4535  0.2475
  175SOPE   O1319846   1.531   2.916  10.597  0.4599 -0.3077  0.0643
  175SOPE   O1419847   1.406   2.979  10.389  0.4493  0.1664 -0.6790
  175SOPE   O1219848   1.308   3.025  10.595  0.0495  0.5044 -0.3660
  175SOPE   O1119849   1.323   2.783  10.531 -0.1188 -0.2093  0.4583
  175SOPE    C119850   1.396   2.666  10.512 -0.3370 -0.5066  0.5782
  175SOPE    HA19851   1.429   2.626  10.611  1.0913 -1.1817 -0.1362
  175SOPE    HB19852   1.495   2.676  10.461  0.2421  0.2158  1.7931
  175SOPE    C219853   1.312   2.552  10.448 -0.4624  0.1020 -0.5301
  175SOPE    HS19854   1.376   2.462  10.443  0.1150  0.4899 -0.2537
  175SOPE   O2119855   1.267   2.595  10.313 -0.3990 -0.1801 -0.2234
  175SOPE   C2119856   1.348   2.602  10.220  0.0488  0.0524  0.4954
  175SOPE   O2219857   1.461   2.557  10.212 -0.2718  0.0079 -0.5701
  175SOPE   C2219858   1.278   2.658  10.095  0.1574  1.0242  0.2794
  175SOPE   H2R19859   1.265   2.768  10.101 -2.9525  0.7347  0.6341
  175SOPE   H2S19860   1.176   2.613  10.087 -0.1256  1.8659 -1.6267
  175SOPE    C319861   1.188   2.527  10.542  0.0911 -0.1191  0.8153
  175SOPE    HX19862   1.129   2.621  10.552 -0.2426 -0.1788 -0.4269
  175SOPE    HY19863   1.228   2.497  10.641 -1.4327  1.1067  1.8491
  175SOPE   O3119864   1.103   2.419  10.491  0.2615 -0.4961  0.3291
  175SOPE   C3119865   1.000   2.455  10.410 -0.0542 -0.1511  0.5255
  175SOPE   O3219866   0.980   2.564  10.354 -0.7659  0.1939  0.1593
  175SOPE   C3219867   0.914   2.337  10.385 -0.1855 -0.0839  0.1304
  175SOPE   H2X19868   0.818   2.351  10.438 -1.3969 -3.5512 -0.8559
  175SOPE   H2Y19869   0.960   2.247  10.433  0.9495 -0.2961 -1.3062
  175SOPE   C2319870   1.355   2.623   9.962 -0.2441  0.1772  0.2027
  175SOPE   H3R19871   1.381   2.515   9.955 -0.2983  0.2473 -1.4497
  175SOPE   H3S19872   1.451   2.679   9.970  0.8514 -1.5707  0.0233
  175SOPE   C2419873   1.294   2.688   9.836 -0.3450 -0.1563 -0.0467
  175SOPE   H4R19874   1.192   2.646   9.825 -0.1747 -0.4420 -0.5303
  175SOPE   H4S19875   1.286   2.795   9.864  1.7520 -0.0414  0.2927
  175SOPE   C2519876   1.369   2.677   9.707 -0.6069  0.4403  0.0312
  175SOPE   H5R19877   1.404   2.574   9.687 -1.9198 -0.1176  0.5445
  175SOPE   H5S19878   1.303   2.716   9.626  2.8711  0.9536 -2.8322
  175SOPE   C2619879   1.496   2.765   9.703  0.1989  0.7880 -0.0784
  175SOPE   H6R19880   1.475   2.870   9.733  0.6613  0.2059  2.4792
  175SOPE   H6S19881   1.570   2.709   9.764  3.5798  1.0652 -3.5377
  175SOPE   C2719882   1.563   2.775   9.560  0.1667 -0.1614 -0.2154
  175SOPE   H7R19883   1.646   2.849   9.565 -0.2660  0.3259 -0.1680
  175SOPE   H7S19884   1.594   2.670   9.542  2.3370  0.2175  1.0056
  175SOPE   C2819885   1.462   2.807   9.449 -0.0425 -0.5388 -0.1544
  175SOPE   H8R19886   1.400   2.716   9.432  1.0601 -1.7059  1.6759
  175SOPE   H8S19887   1.392   2.880   9.495  1.1250 -0.0475  0.9116
  175SOPE   C2919888   1.526   2.855   9.328 -0.5877 -0.2577 -0.4650
  175SOPE   H9119889   1.504   2.961   9.306 -0.8106 -0.5870 -1.8824
  175SOPE  C21019890   1.593   2.791   9.241 -0.5473  0.9694  0.3814
  175SOPE  H10119891   1.635   2.852   9.160 -0.2748  1.3330  0.7947
  175SOPE  C21119892   1.633   2.638   9.247 -0.4699 -0.7126 -0.7773
  175SOPE  H11R19893   1.572   2.585   9.170 -1.9448 -0.2700  0.0373
  175SOPE  H11S19894   1.609   2.597   9.347  0.3419  3.6608  1.4875
  175SOPE  C21219895   1.782   2.605   9.243 -0.3677 -0.0290 -0.1208
  175SOPE  H12R19896   1.785   2.501   9.284  1.8272 -0.5083 -1.3640
  175SOPE  H12S19897   1.845   2.669   9.309 -1.0274 -0.1496  0.6395
  175SOPE  C21319898   1.832   2.605   9.097  0.1594  0.2047  0.6017
  175SOPE  H13R19899   1.795   2.697   9.046 -0.4792  0.4488  1.4853
  175SOPE  H13S19900   1.801   2.514   9.042  0.8066  0.3661 -0.0420
  175SOPE  C21419901   1.983   2.602   9.096 -0.0176  0.6066 -0.2794
  175SOPE  H14R19902   2.009   2.507   9.147  0.3114  1.6486  1.5756
  175SOPE  H14S19903   2.023   2.683   9.161  2.2137 -0.5339 -0.1670
  175SOPE  C21519904   2.047   2.608   8.956 -0.1634  1.1851 -0.0244
  175SOPE  H15R19905   2.156   2.623   8.966 -0.2095  2.4921 -1.3166
  175SOPE  H15S19906   1.998   2.699   8.916  0.2583  1.8106  0.8473
  175SOPE  C21619907   2.025   2.480   8.877 -0.1394 -0.2499  0.9132
  175SOPE  H16R19908   1.918   2.485   8.846 -0.1700  1.8062  1.2471
  175SOPE  H16S19909   2.039   2.388   8.939 -1.1758 -1.0303  0.0398
  175SOPE  C21719910   2.102   2.475   8.746 -0.2185  1.1692  0.2307
  175SOPE  H17R19911   2.041   2.406   8.684  0.6447 -1.2728  1.9620
  175SOPE  H17S19912   2.201   2.427   8.763 -0.3905  0.6904 -0.0949
  175SOPE  C21819913   2.123   2.612   8.682 -0.3506 -0.6453 -0.1139
  175SOPE  H18R19914   2.172   2.595   8.584  0.6117 -2.9531  0.6987
  175SOPE  H18S19915   2.179   2.692   8.735  1.2399 -2.5911  1.2860
  175SOPE  H18T19916   2.028   2.663   8.651  0.0988  0.5395  0.3920
  175SOPE   C3319917   0.883   2.304  10.234  0.2576  0.2436 -0.9038
  175SOPE   H3X19918   0.831   2.392  10.190 -0.1163  0.9081  0.7899
  175SOPE   H3Y19919   0.819   2.213  10.237  0.6492 -0.0123  0.1024
  175SOPE   C3419920   1.005   2.268  10.145  0.0799 -0.1009  0.0905
  175SOPE   H4X19921   1.051   2.177  10.189  0.5848  1.1367  2.2823
  175SOPE   H4Y19922   1.083   2.344  10.166 -0.6512  1.1105 -1.3075
  175SOPE   C3519923   0.971   2.252   9.997 -0.8905  0.4804 -0.2247
  175SOPE   H5X19924   0.885   2.182   9.992  0.5088 -1.3907  0.9591
  175SOPE   H5Y19925   1.059   2.206   9.948 -1.4995 -2.0913  0.9508
  175SOPE   C3619926   0.937   2.384   9.932 -0.2586  0.0792 -0.4588
  175SOPE   H6X19927   0.996   2.464   9.981 -0.4562  0.7884 -1.3345
  175SOPE   H6Y19928   0.829   2.397   9.956  0.4117 -0.1356  3.0727
  175SOPE   C3719929   0.948   2.393   9.777 -0.4088  0.0751  0.4644
  175SOPE   H7X19930   1.053   2.395   9.741 -1.3525  1.0116 -2.4720
  175SOPE   H7Y19931   0.915   2.491   9.739 -0.9176 -0.2209  0.1359
  175SOPE   C3819932   0.886   2.273   9.703  0.1312  0.7845 -0.4110
  175SOPE   H8X19933   0.780   2.306   9.692 -0.1793 -0.2331 -0.5558
  175SOPE   H8Y19934   0.883   2.175   9.755 -0.7633  0.5176 -0.9463
  175SOPE   C3919935   0.946   2.258   9.564  0.1850  0.8983 -0.3919
  175SOPE   H9X19936   0.879   2.184   9.515  0.6101 -1.5004  2.3746
  175SOPE   H9Y19937   1.046   2.210   9.569 -0.3294 -0.2831 -1.0059
  175SOPE  C31019938   0.941   2.380   9.466  0.8141 -0.5537 -0.4343
  175SOPE  H10X19939   1.019   2.457   9.482 -1.5384  1.9898 -0.4647
  175SOPE  H10Y19940   0.845   2.434   9.483  1.8948  2.3524 -2.6484
  175SOPE  C31119941   0.962   2.344   9.316 -0.5631 -0.1713 -0.3329
  175SOPE  H11X19942   1.047   2.272   9.319 -0.6132 -0.2062  1.2003
  175SOPE  H11Y19943   0.990   2.439   9.267 -1.4309  1.4479  2.1312
  175SOPE  C31219944   0.831   2.284   9.255 -0.4444 -0.0306 -0.3375
  175SOPE  H12X19945   0.750   2.359   9.245  0.1698  0.6754 -0.0838
  175SOPE  H12Y19946   0.796   2.220   9.339  0.0181 -1.6297 -1.3110
  175SOPE  C31319947   0.854   2.201   9.128  0.0106  0.6851 -1.1837
  175SOPE  H13X19948   0.776   2.123   9.120  1.0005 -0.7111  1.6959
  175SOPE  H13Y19949   0.944   2.139   9.143 -0.3689  0.1958 -0.9039
  175SOPE  C31419950   0.875   2.281   9.004 -0.1261 -0.3118  0.4283
  175SOPE  H14X19951   0.941   2.366   9.032  0.7314 -0.0380 -2.0910
  175SOPE  H14Y19952   0.777   2.318   8.969 -0.0542 -0.6217 -0.1228
  175SOPE  C31519953   0.952   2.206   8.890 -0.0282  0.2967  0.2325
  175SOPE  H15X19954   0.884   2.127   8.851  0.9500 -2.0294  2.9157
  175SOPE  H15Y19955   1.049   2.166   8.926 -0.1249  2.2933  2.9845
  175SOPE  C31619956   0.994   2.294   8.772 -0.0965 -0.2895 -0.2462
  175SOPE  H16X19957   1.067   2.239   8.709  0.7680  0.4596  0.0846
  175SOPE  H16Y19958   1.041   2.387   8.808 -1.5580 -0.6804  2.9689
  175SOPE  C31719959   0.877   2.321   8.673 -0.3944  0.4118  0.1322
  175SOPE  H17X19960   0.803   2.388   8.720 -0.4753  1.1514 -1.0123
  175SOPE  H17Y19961   0.830   2.222   8.654  0.6571  0.0451 -0.6744
  175SOPE  C31819962   0.922   2.386   8.539  0.6130  0.0259  0.4802
  175SOPE  H18X19963   0.990   2.323   8.478  0.1651  1.0762 -1.1744
  175SOPE  H18Y19964   0.974   2.482   8.559  0.5287 -0.2632  2.2675
  175SOPE  H18Z19965   0.834   2.413   8.477 -0.7162  1.1332  2.7398
  176SOPE     N19966   6.159   1.268  10.666 -0.3493 -0.2798  0.6396
  176SOPE   HN119967   6.067   1.245  10.623  0.4532 -3.3123  0.2670
  176SOPE   HN219968   6.230   1.244  10.595 -1.9637 -1.1363 -0.7675
  176SOPE   HN319969   6.180   1.196  10.739  2.5519 -0.8845 -0.6910
  176SOPE   C1219970   6.172   1.404  10.720  0.0183 -0.7598 -0.3468
  176SOPE  H12A19971   6.150   1.484  10.646  1.0621  1.2197  1.3511
  176SOPE  H12B19972   6.280   1.425  10.738 -0.5702  2.1140  0.4074
  176SOPE   C1119973   6.091   1.425  10.850  0.0836 -0.3061  0.0952
  176SOPE  H11A19974   6.114   1.522  10.898 -1.7656  0.9647 -1.4722
  176SOPE  H11B19975   6.129   1.346  10.919 -1.1915 -2.0325 -1.1011
  176SOPE     P19976   5.854   1.512  10.804 -0.6955  0.2564 -0.4384
  176SOPE   O1319977   5.942   1.627  10.782 -0.0410 -0.1351 -0.0562
  176SOPE   O1419978   5.750   1.524  10.909  0.2955 -0.0314 -0.0325
  176SOPE   O1219979   5.953   1.389  10.834  0.4727  0.0683  0.3467
  176SOPE   O1119980   5.769   1.476  10.671  0.3661 -0.8029 -0.3789
  176SOPE    C119981   5.745   1.342  10.652  0.0912 -1.0412  0.2703
  176SOPE    HA19982   5.657   1.321  10.715 -1.4370 -0.6018 -1.6376
  176SOPE    HB19983   5.835   1.278  10.666  1.1170  0.1293 -0.7184
  176SOPE    C219984   5.717   1.320  10.506  0.5452  0.4821 -0.1619
  176SOPE    HS19985   5.723   1.210  10.491 -0.8985  0.3127  0.3942
  176SOPE   O2119986   5.804   1.404  10.424 -0.6010 -0.3607  0.8902
  176SOPE   C2119987   5.926   1.348  10.391 -0.3929 -0.2550  0.8020
  176SOPE   O2219988   5.978   1.246  10.424  0.3351 -0.4063 -0.0149
  176SOPE   C2219989   6.016   1.456  10.336 -0.0818 -0.1597 -0.5147
  176SOPE   H2R19990   6.112   1.403  10.320 -0.7103 -1.9082  1.1662
  176SOPE   H2S19991   6.031   1.549  10.395  2.3846 -2.0566  2.1102
  176SOPE    C319992   5.569   1.346  10.470 -0.0520 -0.0781  0.0966
  176SOPE    HX19993   5.543   1.448  10.504  0.6423  1.1800 -2.7922
  176SOPE    HY19994   5.509   1.273  10.529 -1.0606  1.4011  0.9612
  176SOPE   O3119995   5.547   1.327  10.331  0.1322 -0.3822 -0.4741
  176SOPE   C3119996   5.545   1.434  10.258  0.3855 -0.1647  0.6405
  176SOPE   O3219997   5.557   1.553  10.288 -0.4815  0.9949  0.4119
  176SOPE   C3219998   5.547   1.394  10.110 -0.2837  0.3582  0.7129
  176SOPE   H2X19999   5.484   1.467  10.055 -0.5072  1.7645  2.7089
  176SOPE   H2Y20000   5.511   1.289  10.106  1.9235 -0.4521  0.4611
  176SOPE   C2320001   5.968   1.498  10.194 -0.7350 -0.2158 -0.2012
  176SOPE   H3R20002   5.883   1.569  10.191 -1.2696 -0.8073  0.7122
  176SOPE   H3S20003   5.952   1.406  10.134  1.4331  1.7273 -4.1602
  176SOPE   C2420004   6.092   1.564  10.128 -0.2469  0.6370 -0.1507
  176SOPE   H4R20005   6.140   1.624  10.208  0.1495 -0.0365  0.1287
  176SOPE   H4S20006   6.176   1.498  10.095 -1.0301  0.0816 -1.0880
  176SOPE   C2520007   6.060   1.656  10.002 -0.4907  0.0397 -0.7230
  176SOPE   H5R20008   5.975   1.727  10.017  0.0237  1.2140 -2.9666
  176SOPE   H5S20009   6.151   1.713   9.975  0.2712 -1.0531 -0.5381
  176SOPE   C2620010   6.011   1.587   9.873 -0.0779 -0.2837 -0.2945
  176SOPE   H6R20011   6.077   1.498   9.863 -0.4750 -0.4806 -1.1769
  176SOPE   H6S20012   5.905   1.556   9.874 -0.7003  1.2208 -3.9329
  176SOPE   C2720013   6.018   1.680   9.751 -0.4091  0.1868 -0.6248
  176SOPE   H7R20014   5.958   1.766   9.788  1.5315  1.2820  0.1543
  176SOPE   H7S20015   6.125   1.711   9.749 -0.8488  1.8290 -0.2106
  176SOPE   C2820016   5.964   1.606   9.628  0.6048  0.3544  0.0283
  176SOPE   H8R20017   6.041   1.530   9.603  1.0571 -0.0366  2.3611
  176SOPE   H8S20018   5.866   1.556   9.647  1.3678 -1.1336  0.2253
  176SOPE   C2920019   5.962   1.703   9.507  0.1424  0.7830 -0.5733
  176SOPE   H9120020   5.859   1.728   9.478 -0.5933 -1.8500 -0.4740
  176SOPE  C21020021   6.064   1.762   9.443  0.2828 -0.1998 -0.4601
  176SOPE  H10120022   6.046   1.828   9.357 -0.5698  1.0093  0.6248
  176SOPE  C21120023   6.213   1.742   9.484 -0.1808 -0.0943 -0.0069
  176SOPE  H11R20024   6.230   1.655   9.551  0.4697  1.5254  2.0226
  176SOPE  H11S20025   6.248   1.825   9.549 -1.3361 -1.1939  2.1108
  176SOPE  C21220026   6.313   1.734   9.367  0.1266 -0.0438  0.9052
  176SOPE  H12R20027   6.263   1.682   9.283  1.4559 -1.2099  0.7967
  176SOPE  H12S20028   6.407   1.681   9.393  0.4020  0.7476  1.5679
  176SOPE  C21320029   6.345   1.872   9.306  0.3880  0.8635 -1.1046
  176SOPE  H13R20030   6.407   1.927   9.381  0.0977 -0.6545  0.3016
  176SOPE  H13S20031   6.252   1.928   9.282 -0.9368  0.2784  2.1882
  176SOPE  C21420032   6.428   1.859   9.174 -0.7373 -0.3719 -0.2324
  176SOPE  H14R20033   6.367   1.791   9.110 -1.3406 -2.7029  2.6071
  176SOPE  H14S20034   6.520   1.801   9.197 -0.1904  1.2478  2.0007
  176SOPE  C21520035   6.470   1.993   9.104 -0.8715  0.4302 -0.1517
  176SOPE  H15R20036   6.528   2.037   9.188  0.3432  0.5732 -1.0423
  176SOPE  H15S20037   6.389   2.066   9.081 -3.7897 -1.5277  2.9248
  176SOPE  C21620038   6.564   1.975   8.985 -0.3883  0.6003  0.3532
  176SOPE  H16R20039   6.642   1.899   9.007 -1.8477 -1.4106 -1.0815
  176SOPE  H16S20040   6.603   2.074   8.954 -0.2199  0.4211 -0.0137
  176SOPE  C21720041   6.480   1.934   8.864 -0.0880 -0.0399 -0.1490
  176SOPE  H17R20042   6.409   2.014   8.834  1.5749  1.5854  0.0649
  176SOPE  H17S20043   6.418   1.846   8.890 -2.4638  1.8237  0.8368
  176SOPE  C21820044   6.568   1.912   8.742 -0.2043  0.5168  0.4314
  176SOPE  H18R20045   6.506   1.919   8.650 -4.5058  1.3993  3.1143
  176SOPE  H18S20046   6.621   1.814   8.748  0.3516  0.7839  0.0197
  176SOPE  H18T20047   6.655   1.981   8.734  1.2654 -1.3395 -0.5393
  176SOPE   C3320048   5.694   1.377  10.058 -0.1317 -0.6659  0.1566
  176SOPE   H3X20049   5.761   1.333  10.136  2.8905  1.4530 -1.0468
  176SOPE   H3Y20050   5.735   1.475  10.027 -0.1709 -0.6651  0.1076
  176SOPE   C3420051   5.716   1.280   9.942  0.1211  0.2661  0.6760
  176SOPE   H4X20052   5.693   1.175   9.970  0.4837 -0.4182 -1.4005
  176SOPE   H4Y20053   5.818   1.301   9.905 -0.6584  1.5414 -0.8755
  176SOPE   C3520054   5.631   1.311   9.818 -0.5726 -0.4526  0.5161
  176SOPE   H5X20055   5.619   1.421   9.812  2.7140  0.0900  1.9862
  176SOPE   H5Y20056   5.529   1.270   9.831 -1.4615  0.8507 -1.7356
  176SOPE   C3620057   5.691   1.269   9.682 -0.7803  0.7651 -0.4524
  176SOPE   H6X20058   5.700   1.160   9.661  0.6446  0.4872  1.2814
  176SOPE   H6Y20059   5.789   1.322   9.682  0.0050 -0.4630  2.2843
  176SOPE   C3720060   5.616   1.332   9.569 -0.9996 -0.6194  0.8028
  176SOPE   H7X20061   5.593   1.438   9.592  0.9050 -0.3096  1.4473
  176SOPE   H7Y20062   5.515   1.287   9.554 -1.3644  0.5540 -0.4037
  176SOPE   C3820063   5.700   1.327   9.436  1.0021  0.1903 -0.2142
  176SOPE   H8X20064   5.748   1.229   9.412 -1.1311 -0.2275 -3.3155
  176SOPE   H8Y20065   5.786   1.391   9.463 -1.3000  2.2679  2.8975
  176SOPE   C3920066   5.602   1.376   9.325 -0.2063 -0.1937  0.0263
  176SOPE   H9X20067   5.567   1.477   9.351 -1.8944  0.1314 -3.0739
  176SOPE   H9Y20068   5.510   1.314   9.323 -0.5052  0.2595 -0.3911
  176SOPE  C31020069   5.666   1.382   9.185  0.1709  0.4063 -0.5381
  176SOPE  H10X20070   5.690   1.280   9.148  0.0652  0.2180 -0.0921
  176SOPE  H10Y20071   5.765   1.434   9.183  0.1180  0.5682 -4.2819
  176SOPE  C31120072   5.567   1.453   9.084  0.3709  0.7870 -0.4495
  176SOPE  H11X20073   5.543   1.555   9.119 -0.4479  0.9219 -1.3528
  176SOPE  H11Y20074   5.476   1.389   9.071  1.0085 -0.1467 -0.4019
  176SOPE  C31220075   5.639   1.456   8.952  0.7171 -0.6133  0.2209
  176SOPE  H12X20076   5.653   1.351   8.920  1.0262 -1.3012  2.5077
  176SOPE  H12Y20077   5.745   1.492   8.950  0.0777  1.3948  0.0634
  176SOPE  C31320078   5.551   1.511   8.839 -0.2553  0.4964  0.0551
  176SOPE  H13X20079   5.454   1.543   8.882 -0.6450 -0.5442 -0.0351
  176SOPE  H13Y20080   5.516   1.440   8.762 -1.5161  1.9762 -0.7847
  176SOPE  C31420081   5.607   1.640   8.766 -0.7120  0.6606 -0.6715
  176SOPE  H14X20082   5.648   1.702   8.848  0.2316 -0.6923 -0.0770
  176SOPE  H14Y20083   5.537   1.702   8.708 -2.2840 -0.6347 -0.2210
  176SOPE  C31520084   5.728   1.610   8.667  0.2550  0.1176  0.5807
  176SOPE  H15X20085   5.687   1.543   8.588  2.3908 -0.3264 -0.2292
  176SOPE  H15Y20086   5.798   1.545   8.722  1.1792  1.0826  0.5742
  176SOPE  C31620087   5.808   1.737   8.611  0.2544 -0.6446 -0.7196
  176SOPE  H16X20088   5.847   1.787   8.702 -0.2292  2.4049 -2.0576
  176SOPE  H16Y20089   5.730   1.799   8.560  0.9086 -0.2520 -1.2592
  176SOPE  C31720090   5.927   1.706   8.514 -0.2968 -0.0528 -0.9212
  176SOPE  H17X20091   5.953   1.811   8.486  0.3166  0.2215  0.5778
  176SOPE  H17Y20092   5.879   1.652   8.429 -2.0491  0.4156 -0.2859
  176SOPE  C31820093   6.044   1.624   8.562  0.5557 -0.6128 -1.6524
  176SOPE  H18X20094   6.082   1.667   8.657 -0.7965  0.7108 -1.6737
  176SOPE  H18Y20095   6.129   1.620   8.491  2.4084 -0.1082  0.4339
  176SOPE  H18Z20096   6.007   1.520   8.572 -1.0537 -0.1961 -2.9110
  177SOPE     N20097   3.273   0.519  10.906  0.1659 -0.8684  0.4556
  177SOPE   HN120098   3.363   0.520  10.854  0.0531  1.0283  0.1969
  177SOPE   HN220099   3.254   0.615  10.943 -0.0742 -0.3842 -0.8807
  177SOPE   HN320100   3.285   0.453  10.985 -0.6376  0.7727  2.0214
  177SOPE   C1220101   3.149   0.474  10.829  0.3768 -0.1790 -0.0954
  177SOPE  H12A20102   3.154   0.512  10.724 -0.3368  0.3242  0.0378
  177SOPE  H12B20103   3.056   0.515  10.875 -0.2702  1.1850 -2.4470
  177SOPE   C1120104   3.149   0.319  10.830 -1.1575 -0.1702 -0.0408
  177SOPE  H11A20105   3.230   0.292  10.759  0.4113  1.6539  0.9689
  177SOPE  H11B20106   3.055   0.276  10.787 -0.8887  1.2044 -2.0956
  177SOPE     P20107   3.165   0.103  10.987  0.1791  0.1953 -0.1137
  177SOPE   O1320108   3.091   0.090  11.115 -0.2466 -0.1467  0.1816
  177SOPE   O1420109   3.296   0.037  10.995 -0.4749  0.2630  0.1103
  177SOPE   O1220110   3.176   0.258  10.954  0.7915  0.3731 -0.6878
  177SOPE   O1120111   3.074   0.043  10.861 -0.6207  0.0505  0.4611
  177SOPE    C120112   3.111  -0.071  10.789  0.7691  0.4982 -0.7053
  177SOPE    HA20113   3.020  -0.095  10.730  0.1822 -4.0102  1.6225
  177SOPE    HB20114   3.121  -0.157  10.858 -2.4730  0.7425  0.2447
  177SOPE    C220115   3.228  -0.052  10.692  0.4211 -0.4051  0.1216
  177SOPE    HS20116   3.324  -0.049  10.748  0.9163  1.2218 -0.7736
  177SOPE   O2120117   3.199   0.070  10.617 -0.2538  0.0573 -0.2394
  177SOPE   C2120118   3.307   0.123  10.570 -0.5659 -0.9895 -0.0390
  177SOPE   O2220119   3.417   0.081  10.590 -0.5527  0.1922 -0.0987
  177SOPE   C2220120   3.259   0.242  10.476 -0.3426 -0.0641  0.4089
  177SOPE   H2R20121   3.199   0.316  10.532 -0.7859  0.4146 -0.6772
  177SOPE   H2S20122   3.195   0.195  10.398 -0.1643 -0.3455  0.4312
  177SOPE    C320123   3.234  -0.189  10.601 -0.2916  0.1438 -0.2368
  177SOPE    HX20124   3.125  -0.208  10.590 -0.2604  0.0962 -0.4636
  177SOPE    HY20125   3.275  -0.270  10.665  1.6193  0.2143 -1.2896
  177SOPE   O3120126   3.281  -0.188  10.463 -0.4755  0.2306 -0.7827
  177SOPE   C3120127   3.409  -0.209  10.449  0.1162  0.4802 -0.2219
  177SOPE   O3220128   3.490  -0.227  10.538  0.6991 -0.4795 -0.3372
  177SOPE   C3220129   3.441  -0.197  10.295 -0.1746 -0.1604  0.1859
  177SOPE   H2X20130   3.548  -0.222  10.280 -0.2783 -0.3185 -0.3162
  177SOPE   H2Y20131   3.437  -0.088  10.277 -0.3600 -0.0020  1.1439
  177SOPE   C2320132   3.376   0.311  10.406  0.4908 -0.0213 -0.1371
  177SOPE   H3R20133   3.453   0.344  10.480  0.8432 -0.0036 -0.5073
  177SOPE   H3S20134   3.329   0.403  10.365  1.1186  0.2108 -0.3525
  177SOPE   C2420135   3.440   0.235  10.291  0.3605  0.6366 -0.3397
  177SOPE   H4R20136   3.481   0.135  10.317  0.6994  0.9123  0.2192
  177SOPE   H4S20137   3.361   0.218  10.216  1.8615 -1.8490 -1.4794
  177SOPE   C2520138   3.565   0.321  10.243 -0.2119  0.3666  0.2454
  177SOPE   H5R20139   3.526   0.420  10.208 -0.1353  0.7723  1.2787
  177SOPE   H5S20140   3.637   0.334  10.326  0.3265 -0.8352 -0.0281
  177SOPE   C2620141   3.653   0.260  10.129  0.1929  0.1816  0.4742
  177SOPE   H6R20142   3.593   0.208  10.051 -0.6559  0.1590  1.1301
  177SOPE   H6S20143   3.694   0.343  10.069 -0.2087  0.3965  0.4915
  177SOPE   C2720144   3.762   0.174  10.185 -0.0733 -0.2173 -0.1986
  177SOPE   H7R20145   3.809   0.224  10.272 -0.7858  0.3587 -0.1409
  177SOPE   H7S20146   3.721   0.078  10.222 -2.3073  0.6461 -0.3102
  177SOPE   C2820147   3.880   0.138  10.093  0.1503 -0.2157  0.7176
  177SOPE   H8R20148   3.824   0.118   9.999  1.0772  1.5014 -0.2401
  177SOPE   H8S20149   3.948   0.219  10.060 -0.8770  0.3325 -0.1315
  177SOPE   C2920150   3.956   0.019  10.143  0.8227 -0.3383 -0.5003
  177SOPE   H9120151   3.967   0.004  10.252  1.2045 -0.0591 -0.4997
  177SOPE  C21020152   4.010  -0.073  10.062 -0.5079  0.4008  0.3402
  177SOPE  H10120153   4.066  -0.158  10.103  2.8063  1.8955 -0.7228
  177SOPE  C21120154   4.009  -0.087   9.910  0.2592 -0.2294 -0.4253
  177SOPE  H11R20155   4.114  -0.098   9.878  0.3513 -1.2744  0.2160
  177SOPE  H11S20156   3.963   0.002   9.861  1.3851  0.8077  0.3501
  177SOPE  C21220157   3.931  -0.209   9.862  0.8564 -0.4111  0.1872
  177SOPE  H12R20158   3.833  -0.212   9.914 -0.2616  0.6775 -1.7272
  177SOPE  H12S20159   3.980  -0.299   9.906  1.3925 -0.9680 -1.4728
  177SOPE  C21320160   3.915  -0.222   9.712 -0.5923 -0.1535  0.3324
  177SOPE  H13R20161   3.869  -0.129   9.672 -0.7477 -0.9024 -1.3474
  177SOPE  H13S20162   3.842  -0.303   9.693 -2.4344  1.4470  0.2579
  177SOPE  C21420163   4.049  -0.254   9.638  0.4350 -0.1294 -0.0981
  177SOPE  H14R20164   4.079  -0.352   9.682  0.5176 -0.1900 -0.2865
  177SOPE  H14S20165   4.132  -0.188   9.670 -0.1114 -0.7379  2.8042
  177SOPE  C21520166   4.025  -0.242   9.488  0.0630 -0.0384  0.5490
  177SOPE  H15R20167   4.006  -0.139   9.452  0.0429 -0.6439 -1.2429
  177SOPE  H15S20168   3.932  -0.296   9.465  0.4890 -0.2623 -0.7187
  177SOPE  C21620169   4.136  -0.302   9.402  0.0032 -0.5550  0.6654
  177SOPE  H16R20170   4.176  -0.401   9.434  2.0388 -0.8775 -2.4750
  177SOPE  H16S20171   4.213  -0.223   9.413 -2.2838  1.9050  0.0361
  177SOPE  C21720172   4.100  -0.308   9.255  0.4698  1.0496  0.0738
  177SOPE  H17R20173   4.074  -0.203   9.230 -0.7721  0.7675  0.1521
  177SOPE  H17S20174   4.008  -0.361   9.225  0.5513  1.2000 -0.4537
  177SOPE  C21820175   4.208  -0.361   9.161 -0.1941 -0.4493 -0.1371
  177SOPE  H18R20176   4.302  -0.310   9.192  0.9729 -2.8095  0.4445
  177SOPE  H18S20177   4.183  -0.347   9.053  1.6853 -0.0340 -0.5594
  177SOPE  H18T20178   4.225  -0.469   9.181 -0.7838 -0.4346  0.4309
  177SOPE   C3320179   3.340  -0.265  10.196 -0.7161  0.6823 -0.1568
  177SOPE   H3X20180   3.254  -0.195  10.196 -1.7543 -0.5405  0.7714
  177SOPE   H3Y20181   3.291  -0.356  10.236  1.5327  0.1083  1.4512
  177SOPE   C3420182   3.398  -0.280  10.057  0.4050  0.1862 -0.1885
  177SOPE   H4X20183   3.334  -0.344   9.992 -1.6706  0.2635  1.6438
  177SOPE   H4Y20184   3.495  -0.333  10.071 -0.6710 -1.5730  0.9878
  177SOPE   C3520185   3.419  -0.142   9.987  0.0461  0.2744  0.6133
  177SOPE   H5X20186   3.522  -0.104  10.005 -0.3229  2.0652 -0.7695
  177SOPE   H5Y20187   3.353  -0.067  10.036 -0.7300 -0.8379  1.3026
  177SOPE   C3620188   3.407  -0.153   9.834  0.2106 -0.0527  0.6066
  177SOPE   H6X20189   3.312  -0.109   9.797  0.7046 -0.4629 -1.2856
  177SOPE   H6Y20190   3.417  -0.260   9.803 -1.7923 -1.0203  2.9453
  177SOPE   C3720191   3.517  -0.064   9.759 -0.9789 -0.4252  0.2692
  177SOPE   H7X20192   3.615  -0.068   9.811 -0.5602  2.3332 -0.1586
  177SOPE   H7Y20193   3.481   0.040   9.776  0.3655  0.2492 -0.8253
  177SOPE   C3820194   3.527  -0.089   9.606  0.0311  0.2120  0.2547
  177SOPE   H8X20195   3.433  -0.143   9.578 -0.5432  1.1629  0.3036
  177SOPE   H8Y20196   3.615  -0.153   9.582 -0.2068 -0.8797  2.0986
  177SOPE   C3920197   3.547   0.046   9.530  0.1054  0.0987  0.8119
  177SOPE   H9X20198   3.626   0.104   9.582  1.0834 -1.0048  0.6111
  177SOPE   H9Y20199   3.449   0.097   9.531 -1.0196 -1.9181  0.2274
  177SOPE  C31020200   3.597   0.030   9.386  0.3884 -0.2082  0.4104
  177SOPE  H10X20201   3.589   0.131   9.339  0.7110 -0.2356  0.2879
  177SOPE  H10Y20202   3.540  -0.028   9.310  2.6558 -0.6419 -1.0683
  177SOPE  C31120203   3.741  -0.013   9.368 -0.1297 -0.3222  0.0212
  177SOPE  H11X20204   3.755  -0.112   9.417  0.7316  0.6295  1.8124
  177SOPE  H11Y20205   3.813   0.051   9.424 -0.3305  0.2563 -0.3750
  177SOPE  C31220206   3.777  -0.007   9.217 -0.2780  0.0476 -0.2691
  177SOPE  H12X20207   3.887  -0.001   9.203 -0.0135  1.1293  1.8581
  177SOPE  H12Y20208   3.721   0.080   9.178  0.1085  1.0898  1.3886
  177SOPE  C31320209   3.737  -0.130   9.133 -0.5612  0.7177  0.1074
  177SOPE  H13X20210   3.631  -0.158   9.147 -0.7769  1.1746 -0.5867
  177SOPE  H13Y20211   3.797  -0.215   9.173  0.8181  1.6670  0.1178
  177SOPE  C31420212   3.769  -0.128   8.986 -0.5591  0.7512  0.3357
  177SOPE  H14X20213   3.754  -0.231   8.947  0.5383  0.9189 -0.5445
  177SOPE  H14Y20214   3.877  -0.104   8.987 -0.7396  1.6268  1.9564
  177SOPE  C31520215   3.688  -0.027   8.909  0.0633  0.3300  0.5771
  177SOPE  H15X20216   3.728   0.070   8.942  0.4103  0.5745 -0.5205
  177SOPE  H15Y20217   3.581  -0.035   8.941 -1.0901  1.7504 -2.5166
  177SOPE  C31620218   3.709  -0.048   8.757  0.2423  0.0481  0.6292
  177SOPE  H16X20219   3.689  -0.151   8.720  0.3750 -0.1288  1.0440
  177SOPE  H16Y20220   3.816  -0.030   8.732 -0.0635  0.3778 -0.5096
  177SOPE  C31720221   3.627   0.048   8.679  0.3271  0.4336 -0.4236
  177SOPE  H17X20222   3.662   0.150   8.707 -2.2693  1.3417 -0.2513
  177SOPE  H17Y20223   3.519   0.035   8.701  0.1490  0.5622 -1.1870
  177SOPE  C31820224   3.636   0.014   8.532  0.5623 -0.6285  0.2216
  177SOPE  H18X20225   3.605  -0.089   8.505 -0.5322 -0.0997 -0.6424
  177SOPE  H18Y20226   3.736   0.034   8.489  0.5789 -1.5872 -0.2150
  177SOPE  H18Z20227   3.555   0.076   8.488  0.4164 -0.3868  0.8202
  178SOPE     N20228   1.524   6.697  11.306 -0.2071  0.4537  0.0392
  178SOPE   HN120229   1.602   6.765  11.302  0.8764 -0.6322  1.3647
  178SOPE   HN220230   1.456   6.739  11.372  2.1892 -1.4243  4.0981
  178SOPE   HN320231   1.555   6.611  11.355 -0.2817  0.2914 -0.1950
  178SOPE   C1220232   1.449   6.680  11.172 -0.6626  0.5170 -0.5243
  178SOPE  H12A20233   1.380   6.766  11.156 -0.6076  0.3760 -1.5944
  178SOPE  H12B20234   1.384   6.592  11.189 -0.0342  0.2628  0.6598
  178SOPE   C1120235   1.544   6.674  11.054 -0.0333  0.4838 -0.3890
  178SOPE  H11A20236   1.489   6.638  10.965 -0.2204  3.9417 -1.8206
  178SOPE  H11B20237   1.615   6.592  11.079  0.0652  1.1604  1.7712
  178SOPE     P20238   1.702   6.801  10.900 -0.1103 -0.4875  0.3945
  178SOPE   O1320239   1.795   6.689  10.899 -0.0224  0.0971 -0.8280
  178SOPE   O1420240   1.759   6.939  10.891  0.4760 -0.1172  0.2491
  178SOPE   O1220241   1.618   6.789  11.038  0.6067 -0.1545 -0.7248
  178SOPE   O1120242   1.594   6.772  10.789 -0.1261 -0.2267  0.2266
  178SOPE    C120243   1.469   6.819  10.767  0.4539  0.0326 -0.1443
  178SOPE    HA20244   1.442   6.902  10.837 -2.3327 -1.7402  1.0710
  178SOPE    HB20245   1.389   6.742  10.777  0.4770  0.2942  3.3609
  178SOPE    C220246   1.453   6.870  10.624  0.3807 -0.7284  0.3509
  178SOPE    HS20247   1.501   6.801  10.552 -0.3021 -2.1507  1.1974
  178SOPE   O2120248   1.503   7.000  10.619 -0.0031  0.0758 -0.1828
  178SOPE   C2120249   1.634   7.007  10.589  0.1196  0.2381 -0.6421
  178SOPE   O2220250   1.707   6.915  10.563 -0.3289  0.3374 -0.9603
  178SOPE   C2220251   1.686   7.148  10.599  0.1288 -0.8266 -0.1800
  178SOPE   H2R20252   1.793   7.144  10.630  0.2026  0.1972 -0.2531
  178SOPE   H2S20253   1.628   7.209  10.671  2.4341 -0.0998  1.1707
  178SOPE    C320254   1.308   6.875  10.579 -0.3042  1.0581 -0.3445
  178SOPE    HX20255   1.250   6.940  10.648  0.8422  0.3339  1.3675
  178SOPE    HY20256   1.262   6.774  10.588 -0.8271  1.3546  0.3635
  178SOPE   O3120257   1.312   6.912  10.439 -0.4102 -0.3008 -0.1496
  178SOPE   C3120258   1.253   7.031  10.412  0.4332  0.1776 -0.0729
  178SOPE   O3220259   1.190   7.102  10.489 -0.0821 -0.2775 -0.6633
  178SOPE   C3220260   1.270   7.059  10.267  0.2988 -0.0086 -0.2354
  178SOPE   H2X20261   1.259   6.974  10.197 -0.5589  0.2344 -0.4033
  178SOPE   H2Y20262   1.373   7.098  10.252  0.1094  0.3906 -0.5362
  178SOPE   C2320263   1.671   7.206  10.460  0.5498  0.1955  0.0679
  178SOPE   H3R20264   1.685   7.315  10.470  0.6854  0.0436  1.9116
  178SOPE   H3S20265   1.565   7.190  10.431  0.9841  0.8241 -2.0096
  178SOPE   C2420266   1.746   7.142  10.343 -0.5417  0.0925 -0.0336
  178SOPE   H4R20267   1.853   7.168  10.357  0.1871 -1.8385 -1.4648
  178SOPE   H4S20268   1.740   7.031  10.335 -1.8091  0.2370 -1.9212
  178SOPE   C2520269   1.698   7.198  10.208  1.0616  0.0086  0.1635
  178SOPE   H5R20270   1.590   7.176  10.201  0.8432  0.3234  2.0793
  178SOPE   H5S20271   1.720   7.306  10.223  1.4040 -0.2327  1.5258
  178SOPE   C2620272   1.788   7.176  10.086  0.5830 -0.0928  0.3083
  178SOPE   H6R20273   1.894   7.181  10.119 -0.0268  0.8871  2.2514
  178SOPE   H6S20274   1.767   7.075  10.044 -0.2183  0.9540 -1.9984
  178SOPE   C2720275   1.766   7.267   9.970  0.3987 -0.2557  0.4895
  178SOPE   H7R20276   1.663   7.261   9.930  1.2501  1.1695 -2.1069
  178SOPE   H7S20277   1.778   7.373  10.000 -1.0196 -0.1978  0.9459
  178SOPE   C2820278   1.867   7.239   9.858  1.0819 -0.0730  0.0475
  178SOPE   H8R20279   1.868   7.315   9.777  1.0597  0.1590  0.2633
  178SOPE   H8S20280   1.966   7.252   9.906  0.7087  0.7576  0.6244
  178SOPE   C2920281   1.854   7.108   9.786 -0.4305 -0.4491 -0.4688
  178SOPE   H9120282   1.892   7.014   9.829 -1.8420 -0.8455 -0.0210
  178SOPE  C21020283   1.797   7.081   9.668  0.5036 -0.1115 -0.0389
  178SOPE  H10120284   1.803   6.982   9.621  1.9130  1.2207 -2.8504
  178SOPE  C21120285   1.724   7.172   9.578  0.0589  0.5182 -0.0849
  178SOPE  H11R20286   1.706   7.272   9.624 -1.7665  0.1400  0.0996
  178SOPE  H11S20287   1.621   7.140   9.552  0.6086 -0.0852 -1.5968
  178SOPE  C21220288   1.814   7.188   9.450  0.7583 -0.2971 -0.2201
  178SOPE  H12R20289   1.908   7.235   9.488 -0.6543  2.2245  0.4127
  178SOPE  H12S20290   1.759   7.264   9.391  0.2145 -1.3537 -1.0963
  178SOPE  C21320291   1.851   7.074   9.356 -0.0047  0.6197  0.5257
  178SOPE  H13R20292   1.889   6.986   9.411  1.0045 -0.3777 -1.6523
  178SOPE  H13S20293   1.932   7.112   9.291 -0.1376  0.1400  0.0728
  178SOPE  C21420294   1.730   7.029   9.268 -0.1058  0.0071  0.5790
  178SOPE  H14R20295   1.670   7.117   9.237 -1.4912 -0.9471  0.4390
  178SOPE  H14S20296   1.660   6.961   9.323 -1.7236  0.2793 -1.0444
  178SOPE  C21520297   1.770   6.966   9.134  0.0993  1.3573 -0.3249
  178SOPE  H15R20298   1.672   6.924   9.103  0.3235 -0.1010  0.8084
  178SOPE  H15S20299   1.832   6.874   9.146  0.1751  1.3310 -0.9276
  178SOPE  C21620300   1.810   7.073   9.031 -0.1272 -0.5598  0.6176
  178SOPE  H16R20301   1.907   7.117   9.065 -1.8172  0.5421  4.5474
  178SOPE  H16S20302   1.733   7.153   9.020 -0.0718  0.1209  4.0091
  178SOPE  C21720303   1.851   7.009   8.901 -0.7381 -0.1099  0.2963
  178SOPE  H17R20304   1.764   6.950   8.862 -1.2531  1.3101 -0.7779
  178SOPE  H17S20305   1.927   6.934   8.931 -0.1937  0.8818  1.4321
  178SOPE  C21820306   1.913   7.105   8.793 -0.0605  0.9531 -0.3413
  178SOPE  H18R20307   1.860   7.202   8.780 -1.4758  0.0839 -1.3779
  178SOPE  H18S20308   1.920   7.052   8.696  2.5135 -2.8827  1.6883
  178SOPE  H18T20309   2.014   7.126   8.835  0.4760 -1.0363 -0.5402
  178SOPE   C3320310   1.161   7.161  10.216 -0.0828 -0.3526 -0.0915
  178SOPE   H3X20311   1.153   7.254  10.275 -1.8741 -1.0250  0.7918
  178SOPE   H3Y20312   1.064   7.108  10.223  0.7963 -1.9084  0.9607
  178SOPE   C3420313   1.169   7.207  10.065  0.6645  0.2966  0.4439
  178SOPE   H4X20314   1.250   7.281  10.052 -0.1170  1.0928  0.0236
  178SOPE   H4Y20315   1.080   7.258  10.022  0.6856  2.4581  2.7667
  178SOPE   C3520316   1.206   7.095   9.962  0.6282  0.2199  0.3694
  178SOPE   H5X20317   1.136   7.010   9.979 -0.4266  1.1040  0.6145
  178SOPE   H5Y20318   1.303   7.047   9.983 -1.2397 -3.0378  2.3820
  178SOPE   C3620319   1.182   7.150   9.816 -0.2903  0.5563 -0.3155
  178SOPE   H6X20320   1.085   7.202   9.804 -0.3693 -0.1407 -3.7223
  178SOPE   H6Y20321   1.175   7.069   9.740  3.2144 -2.1310  1.8516
  178SOPE   C3720322   1.305   7.237   9.770 -0.0352  0.2388 -0.2075
  178SOPE   H7X20323   1.402   7.184   9.785 -0.2089 -0.3134 -0.9661
  178SOPE   H7Y20324   1.281   7.325   9.834 -2.0065 -0.2097 -0.2428
  178SOPE   C3820325   1.286   7.269   9.617  0.2324  0.4098 -0.7473
  178SOPE   H8X20326   1.184   7.306   9.591  0.9359  2.1251 -1.1948
  178SOPE   H8Y20327   1.289   7.169   9.569 -0.7037 -0.1133  0.2373
  178SOPE   C3920328   1.384   7.365   9.558  0.4120  0.6072 -0.2485
  178SOPE   H9X20329   1.482   7.335   9.601 -0.1860 -0.7201  0.2681
  178SOPE   H9Y20330   1.348   7.465   9.589 -0.2315  0.1967  0.3589
  178SOPE  C31020331   1.400   7.349   9.404 -0.1175 -0.4078 -0.3764
  178SOPE  H10X20332   1.294   7.356   9.371 -0.8289  2.5606  2.0718
  178SOPE  H10Y20333   1.431   7.246   9.379 -1.9957 -1.1863  0.2899
  178SOPE  C31120334   1.486   7.458   9.347 -0.1162 -0.1142 -0.3133
  178SOPE  H11X20335   1.577   7.465   9.409 -0.6768 -2.7795  0.9412
  178SOPE  H11Y20336   1.434   7.554   9.368 -0.0125  0.1078 -1.0282
  178SOPE  C31220337   1.512   7.443   9.194  0.7280  0.3507  0.3467
  178SOPE  H12X20338   1.538   7.336   9.190 -1.3035 -0.1734 -0.3214
  178SOPE  H12Y20339   1.593   7.512   9.162 -1.0078  2.0787 -0.5776
  178SOPE  C31320340   1.389   7.479   9.102 -0.2492  0.4221  0.4623
  178SOPE  H13X20341   1.376   7.588   9.122 -0.7159  0.2068  1.3771
  178SOPE  H13Y20342   1.295   7.433   9.137  0.1752  0.2232  1.3843
  178SOPE  C31420343   1.415   7.456   8.948 -0.2686  0.1645  0.5152
  178SOPE  H14X20344   1.342   7.510   8.884 -1.4900 -1.8694  0.0906
  178SOPE  H14Y20345   1.406   7.346   8.936  2.5065 -0.1741  0.9646
  178SOPE  C31520346   1.544   7.516   8.889  0.2852 -0.0335  0.3198
  178SOPE  H15X20347   1.630   7.454   8.921  0.4091 -0.4998 -0.8940
  178SOPE  H15Y20348   1.557   7.616   8.937  2.1833  0.3238 -0.8424
  178SOPE  C31620349   1.537   7.536   8.740 -0.0873  0.1580  0.3498
  178SOPE  H16X20350   1.459   7.608   8.709 -1.1636 -1.7181 -1.5793
  178SOPE  H16Y20351   1.506   7.443   8.687  0.5305  2.1864 -4.0765
  178SOPE  C31720352   1.664   7.573   8.663 -0.1337 -0.1227  0.1091
  178SOPE  H17X20353   1.738   7.497   8.696  1.6086  1.4457  0.0286
  178SOPE  H17Y20354   1.699   7.676   8.686 -1.4295  0.6893 -1.4472
  178SOPE  C31820355   1.650   7.551   8.514 -0.4480  0.3557 -0.0255
  178SOPE  H18X20356   1.593   7.636   8.470  0.4293  0.6942 -0.5158
  178SOPE  H18Y20357   1.601   7.455   8.486 -0.2207  0.0382  0.6396
  178SOPE  H18Z20358   1.750   7.552   8.467 -0.8969  1.4350 -1.0045
  179SOPE     N20359   1.108   0.508   6.402 -0.4575  0.1045 -0.2115
  179SOPE   HN120360   1.088   0.610   6.413  2.6743  0.6881  1.0292
  179SOPE   HN220361   1.155   0.497   6.311  1.1685 -1.7220  0.7851
  179SOPE   HN320362   1.019   0.454   6.401  0.1113 -0.8473 -0.8144
  179SOPE   C1220363   1.178   0.456   6.518  0.2455 -1.0792  0.0877
  179SOPE  H12A20364   1.275   0.510   6.533 -1.0040  1.4316 -0.3366
  179SOPE  H12B20365   1.191   0.346   6.506 -3.1373 -1.4699 -0.9210
  179SOPE   C1120366   1.088   0.496   6.642 -0.0938  1.1901 -0.5236
  179SOPE  H11A20367   1.085   0.606   6.659  0.4678  0.8978  1.8181
  179SOPE  H11B20368   1.137   0.463   6.736 -1.6978 -1.1941 -0.4470
  179SOPE     P20369   0.820   0.499   6.576  0.1555 -0.3442  0.0760
  179SOPE   O1320370   0.850   0.493   6.436  0.3313  0.4014  0.5002
  179SOPE   O1420371   0.802   0.632   6.637 -0.2986  0.1540  0.1775
  179SOPE   O1220372   0.954   0.441   6.642 -0.0590 -0.3818  0.2304
  179SOPE   O1120373   0.706   0.387   6.615 -0.2255 -0.2917  0.3469
  179SOPE    C120374   0.689   0.355   6.757  0.0962 -0.8032 -0.1275
  179SOPE    HA20375   0.625   0.434   6.802  0.5117 -1.4338  1.6460
  179SOPE    HB20376   0.787   0.353   6.809 -0.9417 -1.8172  1.9138
  179SOPE    C220377   0.621   0.220   6.785  0.4425 -0.4826 -0.3441
  179SOPE    HS20378   0.688   0.135   6.759  0.9473 -0.7050  1.5428
  179SOPE   O2120379   0.501   0.220   6.701  0.4625  0.1651 -0.3716
  179SOPE   C2120380   0.487   0.140   6.600 -0.5684 -0.3761  0.0136
  179SOPE   O2220381   0.572   0.078   6.537 -0.2236  0.1295 -0.2996
  179SOPE   C2220382   0.340   0.137   6.564  0.7819 -0.1515  0.0649
  179SOPE   H2R20383   0.334   0.113   6.456 -0.9340  0.9074 -0.1202
  179SOPE   H2S20384   0.299   0.238   6.585 -0.2558 -0.6419  0.4378
  179SOPE    C320385   0.564   0.229   6.926 -0.1185  0.4705 -0.3917
  179SOPE    HX20386   0.484   0.306   6.928 -0.0914  0.5445 -1.6383
  179SOPE    HY20387   0.641   0.258   7.001  0.5367  0.2274 -0.9551
  179SOPE   O3120388   0.498   0.099   6.956  0.0851  0.1362 -0.9434
  179SOPE   C3120389   0.577   0.022   7.030  0.6977 -0.7648 -0.6848
  179SOPE   O3220390   0.690   0.049   7.061  0.1977  0.8697  0.0791
  179SOPE   C3220391   0.513  -0.116   7.056 -0.0977 -0.4146  0.5178
  179SOPE   H2X20392   0.562  -0.186   6.984 -0.1622 -0.9942  1.0222
  179SOPE   H2Y20393   0.407  -0.102   7.027  0.4440 -0.2503 -1.5144
  179SOPE   C2320394   0.256   0.029   6.637 -0.2249 -0.0076 -0.6004
  179SOPE   H3R20395   0.323  -0.057   6.657  1.2021  0.5841 -2.5083
  179SOPE   H3S20396   0.161   0.018   6.581 -0.5238  0.7327 -0.2467
  179SOPE   C2420397   0.211   0.088   6.774 -0.5838  0.2986  0.1358
  179SOPE   H4R20398   0.305   0.110   6.830 -0.2256  1.5294 -0.9082
  179SOPE   H4S20399   0.152   0.182   6.773 -2.2758 -0.7360  0.2105
  179SOPE   C2520400   0.135  -0.013   6.862  0.1404 -0.0536  0.0245
  179SOPE   H5R20401   0.038  -0.050   6.824 -0.3355 -0.3145  1.4086
  179SOPE   H5S20402   0.205  -0.097   6.879  0.8005  0.2882 -0.9378
  179SOPE   C2620403   0.101   0.047   7.000 -0.7646  0.0058  0.5780
  179SOPE   H6R20404   0.200   0.076   7.039 -0.1146  1.4561 -1.9345
  179SOPE   H6S20405   0.041   0.140   6.996  1.4378  1.5472  1.6696
  179SOPE   C2720406   0.045  -0.053   7.104  0.0018  0.0576 -0.3193
  179SOPE   H7R20407  -0.056  -0.079   7.065  0.1474  0.7745 -1.2337
  179SOPE   H7S20408   0.109  -0.144   7.099 -0.5268 -0.5005  2.1014
  179SOPE   C2820409   0.036  -0.007   7.242  0.0116 -0.2657  0.2270
  179SOPE   H8R20410   0.142   0.013   7.271  0.4513 -2.5745  0.4176
  179SOPE   H8S20411  -0.018   0.089   7.233 -1.0295 -0.9750 -2.1375
  179SOPE   C2920412  -0.043  -0.092   7.331 -0.2051  0.0039  0.3884
  179SOPE   H9120413  -0.129  -0.141   7.284 -0.1381 -0.8782  1.1437
  179SOPE  C21020414  -0.016  -0.128   7.455 -0.3711  0.7512  0.2867
  179SOPE  H10120415  -0.100  -0.173   7.511  0.8051 -0.4381  1.1483
  179SOPE  C21120416   0.096  -0.072   7.541 -0.2550 -0.1958  0.0439
  179SOPE  H11R20417   0.114   0.036   7.521 -0.1379  0.9502  5.0179
  179SOPE  H11S20418   0.188  -0.133   7.526 -0.9912 -1.5041  0.6445
  179SOPE  C21220419   0.067  -0.084   7.691 -0.3466 -0.6008 -0.2504
  179SOPE  H12R20420   0.069  -0.193   7.709  1.7727 -0.4565  0.6488
  179SOPE  H12S20421  -0.035  -0.043   7.705  0.5518  1.5828  0.3482
  179SOPE  C21320422   0.164  -0.016   7.790  0.1856 -0.5424  0.4996
  179SOPE  H13R20423   0.174   0.092   7.768  2.2779 -0.7810  0.0379
  179SOPE  H13S20424   0.264  -0.060   7.772  0.0800 -0.8694  0.7046
  179SOPE  C21420425   0.108  -0.027   7.933 -0.0380  0.5162 -0.0096
  179SOPE  H14R20426   0.121  -0.127   7.980  0.6717  0.6883  0.1714
  179SOPE  H14S20427  -0.001  -0.004   7.928 -0.1842  0.3009  1.7106
  179SOPE  C21520428   0.143   0.091   8.025  0.3210  0.1414  0.0222
  179SOPE  H15R20429   0.117   0.191   7.984  0.8671 -0.0064 -0.7263
  179SOPE  H15S20430   0.253   0.075   8.033  0.3536  0.0272 -0.5558
  179SOPE  C21620431   0.081   0.069   8.165 -0.4987  0.0493  0.0619
  179SOPE  H16R20432   0.137   0.131   8.238  1.4538 -2.6202  0.9865
  179SOPE  H16S20433   0.072  -0.038   8.190 -0.1335 -0.3261 -1.3345
  179SOPE  C21720434  -0.066   0.125   8.171  0.1098  0.0127  0.4355
  179SOPE  H17R20435  -0.137   0.056   8.121  0.4946  0.0955 -0.2426
  179SOPE  H17S20436  -0.068   0.215   8.105  2.3660  0.0835  0.3773
  179SOPE  C21820437  -0.106   0.147   8.316  0.3903  0.2863  0.2029
  179SOPE  H18R20438  -0.204   0.199   8.316 -0.4573 -1.2657  0.8955
  179SOPE  H18S20439  -0.035   0.216   8.367 -1.3612  3.6502 -1.6165
  179SOPE  H18T20440  -0.114   0.045   8.359  3.1280  0.0008  0.2318
  179SOPE   C3320441   0.552  -0.159   7.200  0.1398 -0.1415 -0.2036
  179SOPE   H3X20442   0.657  -0.126   7.216  0.1800 -0.4292  0.1594
  179SOPE   H3Y20443   0.556  -0.270   7.212 -0.1778 -0.1055  0.2848
  179SOPE   C3420444   0.452  -0.115   7.313 -0.5688 -0.4375 -0.0065
  179SOPE   H4X20445   0.345  -0.121   7.282 -0.3786  0.1209 -0.8220
  179SOPE   H4Y20446   0.474  -0.007   7.327 -0.6780 -0.6239  1.8226
  179SOPE   C3520447   0.475  -0.171   7.455  0.5106  0.1921 -0.2772
  179SOPE   H5X20448   0.450  -0.279   7.441  3.2560 -0.3980 -1.1529
  179SOPE   H5Y20449   0.397  -0.133   7.525  1.2831  0.1449  0.6212
  179SOPE   C3620450   0.606  -0.151   7.524 -0.7035 -0.2338  0.2999
  179SOPE   H6X20451   0.624  -0.041   7.524 -1.4960 -0.0903  0.2628
  179SOPE   H6Y20452   0.686  -0.193   7.461 -1.0097 -1.0989  0.4808
  179SOPE   C3720453   0.619  -0.209   7.668 -0.2818  0.6011 -0.3687
  179SOPE   H7X20454   0.726  -0.227   7.694  0.3430  1.7895 -1.9785
  179SOPE   H7Y20455   0.574  -0.311   7.675 -0.7498  0.8068 -0.3663
  179SOPE   C3820456   0.575  -0.109   7.775 -0.3431  0.0615 -0.3841
  179SOPE   H8X20457   0.467  -0.087   7.761  0.0028  1.3426 -1.2255
  179SOPE   H8Y20458   0.623  -0.009   7.770 -2.0732  1.0166  1.0755
  179SOPE   C3920459   0.594  -0.173   7.913  0.0814  0.5268 -0.2743
  179SOPE   H9X20460   0.702  -0.199   7.922 -0.2455 -0.7081  0.3175
  179SOPE   H9Y20461   0.537  -0.268   7.916 -0.5813  0.8885 -0.9621
  179SOPE  C31020462   0.535  -0.089   8.027  0.1399 -0.1678 -0.1135
  179SOPE  H10X20463   0.424  -0.093   8.029  0.0418  1.7151  1.6613
  179SOPE  H10Y20464   0.574   0.014   8.018  1.5887 -0.8071 -1.5598
  179SOPE  C31120465   0.589  -0.141   8.162  0.2412  0.5787  0.2504
  179SOPE  H11X20466   0.700  -0.138   8.155  0.2303  0.2581 -0.1302
  179SOPE  H11Y20467   0.552  -0.245   8.171 -2.2525  1.1817 -1.8465
  179SOPE  C31220468   0.527  -0.073   8.285  0.1779  0.2628 -0.2543
  179SOPE  H12X20469   0.423  -0.110   8.282 -0.4986  2.0418  0.1300
  179SOPE  H12Y20470   0.523   0.037   8.272 -1.5085  0.1180 -1.1061
  179SOPE  C31320471   0.605  -0.097   8.421  0.3941 -0.7511  0.5423
  179SOPE  H13X20472   0.690  -0.025   8.419 -0.4705  0.3517  1.4020
  179SOPE  H13Y20473   0.652  -0.197   8.425  0.1730 -0.9520 -1.2853
  179SOPE  C31420474   0.520  -0.063   8.548 -0.0796 -0.2612  0.3201
  179SOPE  H14X20475   0.591  -0.058   8.633  0.3219 -0.7885  0.0219
  179SOPE  H14Y20476   0.453  -0.151   8.560 -1.9831  0.6233 -2.6526
  179SOPE  C31520477   0.426   0.054   8.545 -0.5196 -0.1007 -0.0442
  179SOPE  H15X20478   0.366   0.071   8.637  0.1037  0.1341  0.3284
  179SOPE  H15Y20479   0.351   0.043   8.464 -0.0195 -2.1388 -0.2949
  179SOPE  C31620480   0.503   0.192   8.520  0.2031 -0.0984 -0.3980
  179SOPE  H16X20481   0.562   0.190   8.426  0.1237  2.2652 -0.5468
  179SOPE  H16Y20482   0.565   0.208   8.611 -0.7376 -0.1243  0.2531
  179SOPE  C31720483   0.411   0.317   8.514 -0.1665  0.2814  0.5217
  179SOPE  H17X20484   0.340   0.314   8.598  1.2671 -0.2866  1.7656
  179SOPE  H17Y20485   0.346   0.319   8.424 -1.8481  0.7007  1.7055
  179SOPE  C31820486   0.486   0.447   8.505 -0.4623 -0.7601 -0.2468
  179SOPE  H18X20487   0.420   0.529   8.470 -0.7886 -0.2580  1.4659
  179SOPE  H18Y20488   0.576   0.436   8.440  1.4256  1.5610  1.7931
  179SOPE  H18Z20489   0.527   0.478   8.603  0.6802  0.7763 -1.1674
  180SOPE     N20490   6.400   1.784   6.265  0.2005 -0.4948 -0.3420
  180SOPE   HN120491   6.453   1.863   6.309  0.5979 -1.0043  0.1054
  180SOPE   HN220492   6.375   1.721   6.343  0.3021 -0.1887 -0.0588
  180SOPE   HN320493   6.457   1.737   6.192 -2.3928 -1.6200 -1.7835
  180SOPE   C1220494   6.278   1.826   6.197 -0.5062 -1.0800 -0.1793
  180SOPE  H12A20495   6.204   1.859   6.273 -0.1551  1.4726 -0.8538
  180SOPE  H12B20496   6.220   1.743   6.151 -1.1122 -0.2786 -0.9153
  180SOPE   C1120497   6.296   1.940   6.097 -0.2423  0.6042  0.4581
  180SOPE  H11A20498   6.195   1.970   6.062  0.1125 -1.3042 -2.6430
  180SOPE  H11B20499   6.350   1.903   6.007 -1.9050 -0.0590 -0.3006
  180SOPE     P20500   6.445   2.153   6.078  0.0078  0.0528 -0.4277
  180SOPE   O1320501   6.345   2.254   6.024 -0.3967  0.1382  0.4030
  180SOPE   O1420502   6.530   2.082   5.985 -0.4705  0.0683  0.2025
  180SOPE   O1220503   6.375   2.042   6.162  0.5515 -0.2055  0.5821
  180SOPE   O1120504   6.540   2.236   6.182  0.3740 -0.0476 -0.1302
  180SOPE    C120505   6.617   2.167   6.280  0.0808  0.3905  0.2421
  180SOPE    HA20506   6.723   2.171   6.247  1.1764 -2.0870  2.9975
  180SOPE    HB20507   6.597   2.057   6.278 -1.1324  0.6081 -1.0121
  180SOPE    C220508   6.590   2.221   6.430  0.2256 -0.4485 -0.3610
  180SOPE    HS20509   6.645   2.160   6.504  0.6873  2.7118  2.0949
  180SOPE   O2120510   6.449   2.224   6.469 -0.6405  0.3820  0.2998
  180SOPE   C2120511   6.382   2.110   6.476 -0.3297 -0.7114  0.1046
  180SOPE   O2220512   6.430   2.000   6.464 -0.1878 -0.3915  1.1228
  180SOPE   C2220513   6.237   2.150   6.496 -0.1922  0.1358  0.2984
  180SOPE   H2R20514   6.189   2.153   6.396 -0.3823 -2.0084  0.2661
  180SOPE   H2S20515   6.214   2.248   6.542 -2.2400  0.5053 -1.3462
  180SOPE    C320516   6.635   2.366   6.439 -0.1863  0.1441  0.1932
  180SOPE    HX20517   6.596   2.435   6.361  0.5358  2.5342  1.8490
  180SOPE    HY20518   6.745   2.364   6.419  0.2743 -0.6758  2.5096
  180SOPE   O3120519   6.612   2.407   6.575 -0.1878 -0.7804 -0.1240
  180SOPE   C3120520   6.505   2.482   6.599  0.7154  0.1563  0.6860
  180SOPE   O3220521   6.439   2.546   6.522 -0.1204 -0.2417 -0.7689
  180SOPE   C3220522   6.477   2.465   6.753 -0.0167  0.4846  0.0815
  180SOPE   H2X20523   6.534   2.540   6.811 -2.1311  0.3683  2.4758
  180SOPE   H2Y20524   6.513   2.366   6.789  0.2056 -1.0027 -3.7175
  180SOPE   C2320525   6.165   2.047   6.571 -0.2648 -0.3725  0.6385
  180SOPE   H3R20526   6.200   1.948   6.537  1.4645 -0.3870  2.2874
  180SOPE   H3S20527   6.056   2.056   6.552 -0.0158 -0.7097 -1.0293
  180SOPE   C2420528   6.189   2.044   6.721  0.4973 -0.4315 -0.2762
  180SOPE   H4R20529   6.281   1.990   6.752 -0.3415 -1.9905 -0.3939
  180SOPE   H4S20530   6.205   2.150   6.750 -3.1816  0.3866 -0.8413
  180SOPE   C2520531   6.068   2.000   6.809  0.5629  0.1586  0.6931
  180SOPE   H5R20532   5.981   2.068   6.795 -1.2229 -1.8465  1.4173
  180SOPE   H5S20533   6.034   1.899   6.776  1.8363 -0.1262  0.1947
  180SOPE   C2620534   6.107   1.986   6.957 -0.0026  0.2087  0.1860
  180SOPE   H6R20535   6.202   1.930   6.970  0.9805  1.4703 -1.1357
  180SOPE   H6S20536   6.126   2.094   6.975 -0.2926  0.4259 -0.7563
  180SOPE   C2720537   5.999   1.944   7.046  0.0212  0.3478  0.0336
  180SOPE   H7R20538   5.904   1.959   6.991 -2.0911 -1.1136  3.0387
  180SOPE   H7S20539   6.010   1.836   7.069  1.1516  0.3802 -0.2963
  180SOPE   C2820540   5.977   2.024   7.182  0.5180 -0.1030 -0.0296
  180SOPE   H8R20541   5.977   2.133   7.162  2.9357  0.0232  0.3363
  180SOPE   H8S20542   5.882   2.000   7.234 -0.0107 -0.2932 -1.0476
  180SOPE   C2920543   6.096   2.000   7.273 -1.3139  0.4689 -0.3122
  180SOPE   H9120544   6.187   1.979   7.215 -0.8359 -0.3002  0.7035
  180SOPE  C21020545   6.099   1.986   7.403  0.0037  0.2270  0.2077
  180SOPE  H10120546   6.190   1.960   7.459 -0.9388 -2.7030  0.5733
  180SOPE  C21120547   5.978   1.997   7.490  0.1439  0.2930 -0.4273
  180SOPE  H11R20548   5.931   1.896   7.498  0.8949  0.0726  2.2077
  180SOPE  H11S20549   5.900   2.061   7.442  0.5601  0.8962 -0.3040
  180SOPE  C21220550   6.008   2.056   7.624  0.2640 -0.1092 -0.0989
  180SOPE  H12R20551   5.911   2.088   7.668  1.2196  0.1914  1.9297
  180SOPE  H12S20552   6.073   2.146   7.610 -0.5622  0.7305  1.2688
  180SOPE  C21320553   6.084   1.961   7.714  0.0758  0.1048  0.0101
  180SOPE  H13R20554   6.184   1.935   7.675  0.2132  0.0081  0.4245
  180SOPE  H13S20555   6.021   1.870   7.704  0.7235 -0.2883 -0.5928
  180SOPE  C21420556   6.095   2.001   7.857 -0.3427 -0.4183  0.7930
  180SOPE  H14R20557   5.991   2.025   7.888 -0.6296  0.9844 -1.0610
  180SOPE  H14S20558   6.149   2.097   7.871 -2.3904  1.0726 -0.7937
  180SOPE  C21520559   6.155   1.899   7.959 -0.3921 -0.2152  1.0510
  180SOPE  H15R20560   6.262   1.883   7.934 -0.8376  0.3358 -1.3744
  180SOPE  H15S20561   6.110   1.797   7.958  1.4956 -1.0838 -0.0536
  180SOPE  C21620562   6.148   1.947   8.104  0.9425 -0.3973  0.3258
  180SOPE  H16R20563   6.205   1.876   8.168 -0.7494 -1.2156  0.9961
  180SOPE  H16S20564   6.040   1.939   8.128  0.4495  1.0086 -1.2508
  180SOPE  C21720565   6.194   2.087   8.137 -0.3944  0.6420 -0.4741
  180SOPE  H17R20566   6.139   2.162   8.076 -3.2932 -0.7836  0.1852
  180SOPE  H17S20567   6.304   2.088   8.123 -0.5301  0.7168 -1.6267
  180SOPE  C21820568   6.171   2.109   8.282 -0.6651 -0.1264  0.2168
  180SOPE  H18R20569   6.064   2.094   8.305 -1.4006  1.6827 -1.6868
  180SOPE  H18S20570   6.215   2.207   8.311  1.9491 -1.2268  0.2825
  180SOPE  H18T20571   6.224   2.035   8.346 -0.7504 -0.1541  0.2543
  180SOPE   C3320572   6.336   2.494   6.799  0.7380  0.3940 -0.3622
  180SOPE   H3X20573   6.275   2.431   6.731 -0.6885  0.3192  0.9453
  180SOPE   H3Y20574   6.318   2.602   6.781 -1.5151  0.0676 -0.3115
  180SOPE   C3420575   6.310   2.445   6.947  0.1873  0.3948 -0.0397
  180SOPE   H4X20576   6.367   2.508   7.018  1.3057 -1.3627  0.6831
  180SOPE   H4Y20577   6.345   2.340   6.953 -0.4968  0.0813 -1.1168
  180SOPE   C3520578   6.152   2.439   6.976 -0.3110 -0.3636  0.9153
  180SOPE   H5X20579   6.119   2.384   6.886  2.8662  1.0467 -1.3025
  180SOPE   H5Y20580   6.105   2.540   6.968 -1.1089 -0.7142  1.0738
  180SOPE   C3620581   6.129   2.362   7.108  0.2436 -0.4425  0.2883
  180SOPE   H6X20582   6.200   2.277   7.106 -0.0151 -0.6527 -0.5214
  180SOPE   H6Y20583   6.021   2.339   7.118 -0.2623  0.4989 -2.2731
  180SOPE   C3720584   6.186   2.445   7.225 -0.3342  0.2957  0.6294
  180SOPE   H7X20585   6.152   2.551   7.219 -0.2572  0.2588 -0.6924
  180SOPE   H7Y20586   6.296   2.437   7.223 -0.3918 -1.2477  1.6973
  180SOPE   C3820587   6.154   2.404   7.369  0.2206  0.1450 -0.3882
  180SOPE   H8X20588   6.177   2.297   7.386  0.8878 -0.2017 -3.0409
  180SOPE   H8Y20589   6.043   2.405   7.373  0.2241 -1.0701  1.2482
  180SOPE   C3920590   6.229   2.502   7.461  0.4637  0.2030  1.0129
  180SOPE   H9X20591   6.208   2.604   7.424 -0.4604  0.0697  1.1482
  180SOPE   H9Y20592   6.338   2.492   7.439  0.9328  2.5223  1.9422
  180SOPE  C31020593   6.184   2.479   7.601 -0.3438 -0.5497 -0.5226
  180SOPE  H10X20594   6.213   2.376   7.630 -2.4354 -1.1506 -0.3359
  180SOPE  H10Y20595   6.075   2.491   7.619 -0.1079  0.9697  0.0233
  180SOPE  C31120596   6.264   2.568   7.696 -0.0968 -0.4176  0.2830
  180SOPE  H11X20597   6.241   2.677   7.705 -0.3762 -0.3298 -1.1834
  180SOPE  H11Y20598   6.371   2.572   7.667  0.2296  2.2152  1.5726
  180SOPE  C31220599   6.248   2.514   7.837 -0.1610 -0.0479 -0.5054
  180SOPE  H12X20600   6.305   2.419   7.839  0.2618  0.1881  2.0039
  180SOPE  H12Y20601   6.142   2.492   7.860 -0.4890  1.1315 -0.7926
  180SOPE  C31320602   6.313   2.594   7.950 -0.3604 -0.0836 -0.2802
  180SOPE  H13X20603   6.276   2.698   7.938  0.9858  0.4345 -0.0681
  180SOPE  H13Y20604   6.422   2.589   7.929  0.4035  0.4491  3.0189
  180SOPE  C31420605   6.293   2.523   8.079  0.3709 -0.2654 -0.0778
  180SOPE  H14X20606   6.296   2.413   8.066 -2.0137 -0.3995  0.0034
  180SOPE  H14Y20607   6.199   2.543   8.135  1.5025  0.0729  1.7775
  180SOPE  C31520608   6.401   2.563   8.185 -0.2077 -0.2201  0.4887
  180SOPE  H15X20609   6.409   2.674   8.179 -1.1808 -0.2150 -1.8576
  180SOPE  H15Y20610   6.500   2.520   8.161  0.0252  1.3004 -1.5331
  180SOPE  C31620611   6.362   2.529   8.328  0.7397  0.1054  0.1504
  180SOPE  H16X20612   6.370   2.420   8.346  0.0534 -0.0468 -0.3972
  180SOPE  H16Y20613   6.256   2.552   8.353  0.1992 -3.0278  1.0559
  180SOPE  C31720614   6.440   2.615   8.425 -0.4036 -0.6640  0.1441
  180SOPE  H17X20615   6.395   2.716   8.421  0.9879 -0.0092  0.2341
  180SOPE  H17Y20616   6.545   2.623   8.390 -0.5326 -0.5438 -0.2129
  180SOPE  C31820617   6.439   2.566   8.572  0.1133  0.2886 -1.0297
  180SOPE  H18X20618   6.482   2.464   8.577 -2.0946 -0.8322 -2.8741
  180SOPE  H18Y20619   6.334   2.570   8.609  0.8949  1.6103  1.1596
  180SOPE  H18Z20620   6.495   2.637   8.636 -0.2276 -0.6856  0.3944
  181SOPE     N20621   6.567   5.398   6.016  0.2606  0.7944  1.0393
  181SOPE   HN120622   6.491   5.367   6.080  1.0470 -0.9113  1.2241
  181SOPE   HN220623   6.612   5.490   6.032 -0.8158  1.5052  0.0771
  181SOPE   HN320624   6.540   5.398   5.916 -1.2417 -1.2488  1.3714
  181SOPE   C1220625   6.669   5.281   6.032  0.4519  0.3214 -0.0613
  181SOPE  H12A20626   6.755   5.301   5.964  0.4515  3.9307  0.7597
  181SOPE  H12B20627   6.615   5.185   6.017  0.5244  0.4578 -1.2659
  181SOPE   C1120628   6.723   5.280   6.179 -0.7154  0.5804  0.7667
  181SOPE  H11A20629   6.804   5.356   6.182  0.1753 -0.2065 -1.3268
  181SOPE  H11B20630   6.780   5.187   6.196  1.4686  1.9618  1.4341
  181SOPE     P20631   6.579   5.184   6.366  0.3026  0.2477 -0.1351
  181SOPE   O1320632   6.579   5.058   6.295  0.6544  0.0768 -0.2494
  181SOPE   O1420633   6.452   5.217   6.437 -0.7589  0.0096  0.3926
  181SOPE   O1220634   6.616   5.302   6.268 -0.0790 -0.0779  0.0460
  181SOPE   O1120635   6.692   5.185   6.470  0.1345  0.2889  0.1884
  181SOPE    C120636   6.728   5.314   6.529 -0.1550  0.9078 -0.6199
  181SOPE    HA20637   6.633   5.363   6.562 -0.3894 -0.6659  1.2552
  181SOPE    HB20638   6.786   5.364   6.449  0.7776 -1.8629 -1.7918
  181SOPE    C220639   6.804   5.288   6.664 -0.3038  0.3255 -0.0905
  181SOPE    HS20640   6.881   5.209   6.649  2.2639  1.9951  2.8811
  181SOPE   O2120641   6.712   5.262   6.769 -0.0055 -0.2567 -0.1394
  181SOPE   C2120642   6.682   5.130   6.791  0.0574 -0.3832 -0.0927
  181SOPE   O2220643   6.748   5.036   6.752 -0.4505 -0.3214 -0.3730
  181SOPE   C2220644   6.560   5.120   6.883  0.1091 -0.1844  0.4799
  181SOPE   H2R20645   6.505   5.031   6.845  1.5056 -0.6705 -0.4876
  181SOPE   H2S20646   6.494   5.207   6.862  0.1819 -0.3818 -0.6144
  181SOPE    C320647   6.892   5.414   6.693  0.6047  0.6416 -0.4957
  181SOPE    HX20648   6.850   5.501   6.638  1.2341  1.1296 -0.2119
  181SOPE    HY20649   6.996   5.406   6.656  0.8529 -0.0541  0.3032
  181SOPE   O3120650   6.911   5.435   6.836 -0.2065  1.1083  0.1186
  181SOPE   C3120651   6.830   5.514   6.904  0.3695 -0.2607  0.4518
  181SOPE   O3220652   6.743   5.581   6.862 -0.5784 -0.2854 -0.0136
  181SOPE   C3220653   6.864   5.512   7.054 -0.1705 -0.5152  0.5123
  181SOPE   H2X20654   6.853   5.407   7.089 -1.2336 -0.8869 -0.8522
  181SOPE   H2Y20655   6.799   5.584   7.108 -1.2603 -0.9978 -0.1032
  181SOPE   C2320656   6.594   5.086   7.031  1.1583  0.5595 -0.6251
  181SOPE   H3R20657   6.679   5.015   7.030  2.8111  2.3951 -2.6375
  181SOPE   H3S20658   6.511   5.035   7.083  1.5015 -1.0382 -1.5671
  181SOPE   C2420659   6.628   5.205   7.129 -0.8880 -0.0496 -0.8293
  181SOPE   H4R20660   6.676   5.273   7.056 -1.4812 -0.3684 -1.5303
  181SOPE   H4S20661   6.530   5.242   7.168 -0.0359  1.4474 -0.0392
  181SOPE   C2520662   6.716   5.166   7.248 -0.0798  0.5143 -0.5085
  181SOPE   H5R20663   6.808   5.112   7.217 -0.9290 -1.0699 -0.3702
  181SOPE   H5S20664   6.759   5.256   7.297  0.0201  0.4993 -0.5686
  181SOPE   C2620665   6.649   5.071   7.349  0.5858 -0.2935 -0.1862
  181SOPE   H6R20666   6.562   5.120   7.398  1.9052 -0.0067  1.9974
  181SOPE   H6S20667   6.603   4.980   7.305 -1.7967  1.2771 -1.1365
  181SOPE   C2720668   6.744   5.024   7.454  0.5715  0.3828 -0.8988
  181SOPE   H7R20669   6.808   4.939   7.423 -0.4883 -0.4494 -0.8658
  181SOPE   H7S20670   6.827   5.096   7.471  0.6299  0.5138 -1.7337
  181SOPE   C2820671   6.686   4.991   7.593 -0.0981 -0.4416 -0.0938
  181SOPE   H8R20672   6.591   4.935   7.581  1.3624 -3.0483 -0.0852
  181SOPE   H8S20673   6.762   4.925   7.639 -0.9074 -1.7226 -0.5541
  181SOPE   C2920674   6.660   5.114   7.681  0.2695 -0.5482 -0.0375
  181SOPE   H9120675   6.589   5.183   7.633  3.1628  2.9889  0.3329
  181SOPE  C21020676   6.730   5.143   7.799  0.2789  0.0867  0.1885
  181SOPE  H10120677   6.715   5.237   7.853  0.0929  0.2184 -0.0926
  181SOPE  C21120678   6.838   5.061   7.858 -0.1495 -0.1612  0.0879
  181SOPE  H11R20679   6.938   5.110   7.851  1.4551 -2.8152  2.2860
  181SOPE  H11S20680   6.862   4.966   7.804 -2.1448  0.4061 -1.9391
  181SOPE  C21220681   6.818   5.031   8.008  0.8542  0.6215 -0.8010
  181SOPE  H12R20682   6.738   4.955   8.021 -1.2599  2.5950 -1.4878
  181SOPE  H12S20683   6.777   5.122   8.058  0.3029  0.0594 -0.2099
  181SOPE  C21320684   6.947   4.974   8.068 -0.6059  0.6250 -0.2710
  181SOPE  H13R20685   7.036   5.038   8.051  0.6901 -1.1795 -0.6076
  181SOPE  H13S20686   6.962   4.873   8.026 -1.2946 -0.0509  1.0502
  181SOPE  C21420687   6.945   4.942   8.222 -0.5254 -0.2964  0.1735
  181SOPE  H14R20688   6.864   4.868   8.236 -0.8058  0.2480  1.5926
  181SOPE  H14S20689   6.914   5.038   8.268 -1.5225  0.8462 -2.6815
  181SOPE  C21520690   7.083   4.897   8.267  0.1123  0.2605  0.4057
  181SOPE  H15R20691   7.155   4.973   8.231  1.0156 -1.6424 -2.1079
  181SOPE  H15S20692   7.101   4.806   8.206 -2.3088 -1.0615  1.4964
  181SOPE  C21620693   7.100   4.860   8.416 -0.2282 -0.5763  0.0923
  181SOPE  H16R20694   7.174   4.778   8.431 -0.9162 -1.2505 -0.1244
  181SOPE  H16S20695   7.010   4.806   8.454  0.5840 -1.5500  0.6856
  181SOPE  C21720696   7.138   4.987   8.502  0.3585 -0.1782 -0.1302
  181SOPE  H17R20697   7.088   4.991   8.601  4.1719 -0.3215  1.9902
  181SOPE  H17S20698   7.092   5.072   8.446  0.7365  0.8918  1.1459
  181SOPE  C21820699   7.290   5.005   8.516 -0.3534  0.6955 -0.4690
  181SOPE  H18R20700   7.331   5.050   8.423  1.2146  0.6658  0.1892
  181SOPE  H18S20701   7.310   4.897   8.531 -1.9360  0.4450  0.0938
  181SOPE  H18T20702   7.322   5.065   8.604  0.7678 -0.8994  0.2686
  181SOPE   C3320703   7.012   5.554   7.070  0.2405  0.5879 -0.8069
  181SOPE   H3X20704   7.027   5.629   6.989  0.0446  2.3071  0.6817
  181SOPE   H3Y20705   7.081   5.470   7.048 -0.5551 -0.0326 -0.9614
  181SOPE   C3420706   7.042   5.623   7.205  0.1299 -0.2579 -0.4215
  181SOPE   H4X20707   6.969   5.707   7.216 -0.7879 -1.3452  2.7369
  181SOPE   H4Y20708   7.143   5.670   7.212 -0.3213  0.4690  3.2961
  181SOPE   C3520709   7.014   5.524   7.321  0.0722  0.0536  0.4114
  181SOPE   H5X20710   7.092   5.447   7.336  0.1173 -0.2073 -0.9789
  181SOPE   H5Y20711   6.920   5.465   7.310  0.7843 -0.7188 -2.4072
  181SOPE   C3620712   7.008   5.598   7.450  0.5086 -0.0373  0.5254
  181SOPE   H6X20713   6.947   5.690   7.438  0.0717 -0.3735  0.1317
  181SOPE   H6Y20714   7.114   5.627   7.462  0.7600 -0.3646 -0.7676
  181SOPE   C3720715   6.951   5.514   7.565 -0.4683  0.2190  0.0884
  181SOPE   H7X20716   7.001   5.416   7.577  0.3924  0.8140  1.7536
  181SOPE   H7Y20717   6.846   5.491   7.538 -0.8731  0.2636  1.5203
  181SOPE   C3820718   6.947   5.588   7.698  0.7205 -0.4292  0.0995
  181SOPE   H8X20719   6.894   5.686   7.698 -1.0722 -1.3405 -0.1025
  181SOPE   H8Y20720   7.052   5.593   7.731  0.8125 -2.3743  0.2317
  181SOPE   C3920721   6.870   5.500   7.803 -0.2210 -0.1094  0.2577
  181SOPE   H9X20722   6.902   5.394   7.792 -0.8488 -0.2376 -0.3970
  181SOPE   H9Y20723   6.764   5.494   7.770 -0.0912  1.5113 -0.5738
  181SOPE  C31020724   6.884   5.546   7.948 -0.2446 -0.1052 -0.2000
  181SOPE  H10X20725   6.843   5.649   7.955 -0.9771 -0.3784 -0.3110
  181SOPE  H10Y20726   6.994   5.544   7.965 -0.1869  0.3865 -0.4892
  181SOPE  C31120727   6.808   5.456   8.049  0.8199  0.6223  0.2502
  181SOPE  H11X20728   6.841   5.352   8.027 -0.0669  0.6208 -1.1287
  181SOPE  H11Y20729   6.702   5.448   8.017  1.4431 -2.3622 -1.4536
  181SOPE  C31220730   6.812   5.507   8.194  0.3278  0.2074  0.6714
  181SOPE  H12X20731   6.736   5.586   8.206 -0.8560 -0.8484  0.4241
  181SOPE  H12Y20732   6.910   5.553   8.216  0.0887 -0.0234  2.3184
  181SOPE  C31320733   6.795   5.389   8.296 -0.1054 -0.0079  0.4428
  181SOPE  H13X20734   6.836   5.419   8.394 -0.9338 -0.9881  1.1089
  181SOPE  H13Y20735   6.848   5.298   8.260 -1.2478 -0.5233 -0.0086
  181SOPE  C31420736   6.653   5.333   8.312  0.4991  0.1510  0.5847
  181SOPE  H14X20737   6.609   5.303   8.215 -1.1059 -0.3586  1.4384
  181SOPE  H14Y20738   6.594   5.423   8.339  0.5313  0.3261  0.0897
  181SOPE  C31520739   6.644   5.224   8.417  0.2844  0.1568 -0.5814
  181SOPE  H15X20740   6.693   5.260   8.510  1.8130 -1.4324 -0.7147
  181SOPE  H15Y20741   6.704   5.135   8.388  2.0103 -0.3585  3.8263
  181SOPE  C31620742   6.496   5.173   8.435  0.2653 -0.2828 -0.2257
  181SOPE  H16X20743   6.443   5.106   8.363 -0.2135 -0.2780  0.1155
  181SOPE  H16Y20744   6.438   5.267   8.436  0.9937  0.1690 -0.2342
  181SOPE  C31720745   6.478   5.104   8.573 -0.1913 -0.1174 -0.1102
  181SOPE  H17X20746   6.510   5.177   8.650  2.2026  0.0031 -1.1522
  181SOPE  H17Y20747   6.538   5.014   8.594 -1.1309 -0.4493  1.3413
  181SOPE  C31820748   6.333   5.072   8.601 -0.0714  0.1307  0.0754
  181SOPE  H18X20749   6.294   5.026   8.507  0.9063  0.9579 -0.7645
  181SOPE  H18Y20750   6.279   5.166   8.629  0.7610  1.2576 -1.8640
  181SOPE  H18Z20751   6.322   4.993   8.678  1.5758 -0.5067 -0.3115
  182SOPE     N20752   5.370   6.133   6.148  0.3511 -0.5551 -0.1546
  182SOPE   HN120753   5.351   6.039   6.108 -1.1108  0.6592 -2.5955
  182SOPE   HN220754   5.354   6.211   6.080  0.3071  1.3657  1.9479
  182SOPE   HN320755   5.467   6.145   6.181 -0.5987  3.6519  1.7435
  182SOPE   C1220756   5.277   6.157   6.266  0.2987  1.2839  0.4097
  182SOPE  H12A20757   5.169   6.161   6.242 -0.4169 -0.5202  2.8607
  182SOPE  H12B20758   5.303   6.250   6.322 -0.1106  0.8405  1.3612
  182SOPE   C1120759   5.288   6.031   6.357 -0.1984 -0.0778 -0.0363
  182SOPE  H11A20760   5.265   6.073   6.457 -0.5587 -0.9738  0.2652
  182SOPE  H11B20761   5.390   5.987   6.362 -0.8921 -1.7947 -0.2555
  182SOPE     P20762   5.219   5.812   6.229  0.1874 -0.3697  0.2483
  182SOPE   O1320763   5.301   5.876   6.122  0.5712  0.1674 -1.0374
  182SOPE   O1420764   5.096   5.735   6.198  0.2119  0.2163 -0.2599
  182SOPE   O1220765   5.184   5.929   6.334  0.1680 -0.6388 -0.4115
  182SOPE   O1120766   5.308   5.719   6.317 -0.2272  0.6568  0.3138
  182SOPE    C120767   5.257   5.671   6.443 -0.2541  0.8497 -0.0628
  182SOPE    HA20768   5.259   5.560   6.441  0.3080  0.8083  1.4538
  182SOPE    HB20769   5.150   5.696   6.461 -0.0357  1.5920  0.2594
  182SOPE    C220770   5.340   5.721   6.568  0.6394 -0.2105  0.2415
  182SOPE    HS20771   5.341   5.832   6.565  0.4810 -0.2265 -0.5507
  182SOPE   O2120772   5.471   5.661   6.567 -0.0257  0.0355  0.1316
  182SOPE   C2120773   5.568   5.757   6.572  0.0813  0.5753 -0.6154
  182SOPE   O2220774   5.556   5.876   6.581 -0.5194  0.2052  0.2960
  182SOPE   C2220775   5.710   5.695   6.581  0.2672  0.4675 -0.3433
  182SOPE   H2R20776   5.766   5.697   6.485  1.5147 -0.1705  0.3380
  182SOPE   H2S20777   5.698   5.586   6.603  1.0927  0.4167 -0.1119
  182SOPE    C320778   5.267   5.682   6.701 -0.0371  0.0084 -0.2605
  182SOPE    HX20779   5.264   5.571   6.706  1.2386  0.0163  2.2372
  182SOPE    HY20780   5.159   5.707   6.699  0.3090  1.7174  0.6199
  182SOPE   O3120781   5.332   5.741   6.815 -0.3813  0.4795 -0.1916
  182SOPE   C3120782   5.321   5.875   6.828 -0.1380 -0.0536  0.6092
  182SOPE   O3220783   5.254   5.939   6.749  0.1972  0.1345  1.0484
  182SOPE   C3220784   5.393   5.932   6.951  0.0057  0.3110  0.0886
  182SOPE   H2X20785   5.501   5.905   6.944 -0.2197 -1.1427  1.7757
  182SOPE   H2Y20786   5.353   5.872   7.035 -2.1520  1.0528 -0.3523
  182SOPE   C2320787   5.791   5.777   6.676  0.2278 -0.1514  0.0743
  182SOPE   H3R20788   5.788   5.886   6.656 -0.5485 -0.1386  0.2296
  182SOPE   H3S20789   5.887   5.723   6.686 -0.8562 -1.7345  4.5027
  182SOPE   C2420790   5.749   5.748   6.824  0.0575 -0.1455 -0.5487
  182SOPE   H4R20791   5.641   5.747   6.847  0.6181 -1.7056  2.5047
  182SOPE   H4S20792   5.787   5.646   6.848 -0.8626 -0.0503  1.4624
  182SOPE   C2520793   5.810   5.849   6.926 -0.6088  0.0088  0.0168
  182SOPE   H5R20794   5.913   5.874   6.895 -1.1721  2.4444 -0.1594
  182SOPE   H5S20795   5.759   5.948   6.931 -0.8473 -0.0766 -0.6616
  182SOPE   C2620796   5.816   5.787   7.066 -0.4609  0.0745  0.0891
  182SOPE   H6R20797   5.885   5.701   7.050 -0.4295  0.2443 -0.6990
  182SOPE   H6S20798   5.854   5.850   7.149 -2.0624  0.8897  0.2409
  182SOPE   C2720799   5.682   5.750   7.130  0.4982  0.0075 -0.0770
  182SOPE   H7R20800   5.612   5.836   7.133 -1.2009 -1.3210  0.1111
  182SOPE   H7S20801   5.635   5.677   7.061  0.7378 -0.6610  0.4556
  182SOPE   C2820802   5.699   5.692   7.273 -0.6553  0.1929 -0.3001
  182SOPE   H8R20803   5.596   5.655   7.295  0.7150 -3.9966 -0.1425
  182SOPE   H8S20804   5.765   5.603   7.263 -1.0312 -0.1765  0.4326
  182SOPE   C2920805   5.746   5.796   7.375  0.4040  0.0816  0.1939
  182SOPE   H9120806   5.762   5.892   7.324  1.4383 -0.8942 -1.4162
  182SOPE  C21020807   5.732   5.778   7.507 -0.3969  0.5074 -0.6878
  182SOPE  H10120808   5.764   5.851   7.582 -1.3734  1.6326 -1.3207
  182SOPE  C21120809   5.696   5.646   7.555 -0.3452  0.0655 -0.4552
  182SOPE  H11R20810   5.689   5.565   7.479 -1.0973 -0.9619  0.6648
  182SOPE  H11S20811   5.603   5.645   7.615  0.0933 -1.9278  0.2719
  182SOPE  C21220812   5.795   5.607   7.662  0.7949  0.1396 -0.3537
  182SOPE  H12R20813   5.896   5.590   7.619  1.1515  2.4702 -0.5594
  182SOPE  H12S20814   5.755   5.509   7.694  1.7660  0.5839  2.4843
  182SOPE  C21320815   5.809   5.694   7.789 -0.4154  0.6671 -0.2882
  182SOPE  H13R20816   5.871   5.784   7.767 -2.3007  2.0910 -0.0078
  182SOPE  H13S20817   5.869   5.629   7.856  0.5865 -1.4149 -2.9927
  182SOPE  C21420818   5.678   5.746   7.850  0.5543  0.5839  0.4526
  182SOPE  H14R20819   5.608   5.659   7.854  1.9966 -0.5944  1.2307
  182SOPE  H14S20820   5.644   5.822   7.777  1.8602  0.6452 -0.1246
  182SOPE  C21520821   5.704   5.806   7.983  0.1885 -0.4955 -0.2041
  182SOPE  H15R20822   5.613   5.866   8.002 -0.6319 -2.1705  1.5633
  182SOPE  H15S20823   5.788   5.876   8.000 -2.8673  3.4452  0.1385
  182SOPE  C21620824   5.729   5.694   8.084  0.6170  0.5602 -0.3310
  182SOPE  H16R20825   5.818   5.635   8.054 -1.2638 -2.2575 -0.7568
  182SOPE  H16S20826   5.646   5.620   8.088  0.4334  0.6785 -1.5638
  182SOPE  C21720827   5.756   5.748   8.225  0.2382  0.0782  0.3299
  182SOPE  H17R20828   5.862   5.781   8.219  0.7892 -1.6373 -0.0089
  182SOPE  H17S20829   5.745   5.658   8.289  0.1716 -0.6913 -0.7214
  182SOPE  C21820830   5.672   5.863   8.281  0.1470 -0.1213  0.5724
  182SOPE  H18R20831   5.672   5.849   8.392  1.8561 -2.0778  0.3879
  182SOPE  H18S20832   5.564   5.843   8.264  0.6658 -1.5066 -1.4801
  182SOPE  H18T20833   5.695   5.962   8.236 -1.1437  1.0989  2.4653
  182SOPE   C3320834   5.388   6.084   6.970 -0.2538  0.4505 -0.6763
  182SOPE   H3X20835   5.288   6.131   6.959 -0.6860  0.0232  1.1170
  182SOPE   H3Y20836   5.447   6.131   6.888  1.4709 -2.1475 -1.0236
  182SOPE   C3420837   5.450   6.128   7.103  0.2061 -0.4834  0.3654
  182SOPE   H4X20838   5.477   6.235   7.090  1.7947 -1.0350 -1.2930
  182SOPE   H4Y20839   5.544   6.073   7.125  0.6188 -0.4700 -1.2363
  182SOPE   C3520840   5.349   6.125   7.216 -0.1841  0.3906  0.4551
  182SOPE   H5X20841   5.298   6.026   7.227  0.8052 -0.2685 -0.6879
  182SOPE   H5Y20842   5.260   6.185   7.189 -1.9215 -0.9277  2.8345
  182SOPE   C3620843   5.418   6.169   7.347  0.6655 -0.3161 -0.3043
  182SOPE   H6X20844   5.342   6.189   7.426 -0.7525  1.6822 -2.0589
  182SOPE   H6Y20845   5.464   6.269   7.331  2.4460 -0.6042  2.3604
  182SOPE   C3720846   5.514   6.074   7.412 -0.3275  0.0400  0.1481
  182SOPE   H7X20847   5.608   6.065   7.353  1.2244 -0.8350  2.5935
  182SOPE   H7Y20848   5.475   5.971   7.424 -1.3528  0.3776 -0.2292
  182SOPE   C3820849   5.562   6.116   7.551  0.1722  0.1186 -0.7342
  182SOPE   H8X20850   5.618   6.212   7.545  0.5160  0.0075  0.4991
  182SOPE   H8Y20851   5.641   6.046   7.583 -0.8060 -0.7859 -0.2370
  182SOPE   C3920852   5.458   6.127   7.655  0.3334  0.4510  0.3856
  182SOPE   H9X20853   5.415   6.027   7.675 -0.0311  0.4060 -0.6013
  182SOPE   H9Y20854   5.380   6.197   7.620 -0.9925 -0.0093  2.2894
  182SOPE  C31020855   5.507   6.181   7.789 -1.3213 -0.3538 -0.6746
  182SOPE  H10X20856   5.555   6.279   7.769  0.4152 -1.0830 -0.2101
  182SOPE  H10Y20857   5.585   6.107   7.816 -1.9190 -1.1294 -1.0412
  182SOPE  C31120858   5.395   6.187   7.890 -0.1786 -0.1766  0.3409
  182SOPE  H11X20859   5.362   6.082   7.901  0.1901 -0.1788  1.5835
  182SOPE  H11Y20860   5.305   6.247   7.866 -0.9882 -1.0402  1.1420
  182SOPE  C31220861   5.442   6.232   8.033 -0.0889  0.2338 -0.3622
  182SOPE  H12X20862   5.531   6.175   8.067  0.8168  0.6446 -1.9271
  182SOPE  H12Y20863   5.355   6.196   8.091  1.3357 -2.4245  0.2827
  182SOPE  C31320864   5.446   6.381   8.046 -0.0565 -0.3168 -0.3859
  182SOPE  H13X20865   5.342   6.419   8.045  0.6896  2.1378  1.8245
  182SOPE  H13Y20866   5.502   6.437   7.968 -0.3677  2.3266  1.1354
  182SOPE  C31420867   5.515   6.419   8.179 -0.1773 -0.1034  0.4338
  182SOPE  H14X20868   5.567   6.517   8.177  0.3323 -0.3829 -0.2117
  182SOPE  H14Y20869   5.596   6.345   8.199  1.7405  0.5337 -3.9014
  182SOPE  C31520870   5.411   6.426   8.291 -0.1266  0.3955 -0.4029
  182SOPE  H15X20871   5.366   6.325   8.301  1.5821 -0.2997  0.7021
  182SOPE  H15Y20872   5.339   6.507   8.268 -0.4401  0.6120  1.2763
  182SOPE  C31620873   5.478   6.474   8.421  0.0216  0.2683 -0.7391
  182SOPE  H16X20874   5.411   6.490   8.508 -1.8337 -0.6400 -1.9579
  182SOPE  H16Y20875   5.512   6.579   8.406 -0.2436  0.7081  1.3279
  182SOPE  C31720876   5.601   6.394   8.460 -0.2529  0.7008  0.0274
  182SOPE  H17X20877   5.653   6.428   8.552 -3.1639  0.0266  2.0875
  182SOPE  H17Y20878   5.670   6.401   8.373 -0.8819 -1.4287 -0.6986
  182SOPE  C31820879   5.574   6.247   8.486 -0.2005  0.4512 -0.5085
  182SOPE  H18X20880   5.664   6.189   8.517 -0.4984 -2.9395 -4.9241
  182SOPE  H18Y20881   5.550   6.204   8.386 -3.5096 -0.0339  0.3684
  182SOPE  H18Z20882   5.485   6.231   8.550  0.8180  1.9891  1.3613
  183SOPE     N20883   3.622   6.455   6.093 -0.4999  0.6256 -0.0558
  183SOPE   HN120884   3.629   6.558   6.106  1.3087  0.8525 -2.2848
  183SOPE   HN220885   3.601   6.422   5.997  0.2779 -0.8896  0.2702
  183SOPE   HN320886   3.525   6.450   6.131 -1.0168 -0.9084 -1.4571
  183SOPE   C1220887   3.718   6.385   6.173  0.3807 -0.3577  0.1930
  183SOPE  H12A20888   3.697   6.417   6.278 -0.9043 -0.4405 -0.0354
  183SOPE  H12B20889   3.821   6.423   6.151  0.0146  0.0196 -0.9400
  183SOPE   C1120890   3.712   6.233   6.154  0.2470 -0.1522  0.2536
  183SOPE  H11A20891   3.793   6.179   6.208  0.7738  0.0107 -0.3537
  183SOPE  H11B20892   3.714   6.208   6.046  1.5075 -2.1881  0.7041
  183SOPE     P20893   3.549   6.042   6.247 -0.5000 -0.0751 -0.1878
  183SOPE   O1320894   3.660   5.949   6.216  0.0273 -0.1142  0.0755
  183SOPE   O1420895   3.409   5.998   6.216 -0.0392 -0.9032  0.2392
  183SOPE   O1220896   3.577   6.185   6.189  0.2826  0.0127  0.3528
  183SOPE   O1120897   3.560   6.076   6.404  0.0211  0.0581  0.5772
  183SOPE    C120898   3.613   6.192   6.460  0.1309  0.3049 -0.2722
  183SOPE    HA20899   3.585   6.284   6.404  0.0603 -0.3660 -1.3731
  183SOPE    HB20900   3.724   6.194   6.459  0.1581  2.9944 -1.2973
  183SOPE    C220901   3.560   6.203   6.605 -0.0019  0.0887 -0.0679
  183SOPE    HS20902   3.623   6.131   6.663  1.1652  1.2251  0.1262
  183SOPE   O2120903   3.423   6.149   6.611 -0.2426 -0.2383 -0.0519
  183SOPE   C2120904   3.334   6.216   6.549  0.4944  0.3300  0.7482
  183SOPE   O2220905   3.349   6.312   6.470 -0.1412 -0.1266  0.1611
  183SOPE   C2220906   3.207   6.132   6.563 -0.1425  0.6065  0.0453
  183SOPE   H2R20907   3.222   6.025   6.588 -0.6684  0.1333 -1.5372
  183SOPE   H2S20908   3.158   6.147   6.464  1.0108 -1.7413 -0.9385
  183SOPE    C320909   3.582   6.343   6.673 -0.3111 -0.1735  0.8843
  183SOPE    HX20910   3.516   6.413   6.618 -0.8021 -0.1790  1.4566
  183SOPE    HY20911   3.689   6.366   6.650 -0.7878 -0.9198 -2.6716
  183SOPE   O3120912   3.551   6.347   6.811 -0.3568 -0.1679  0.3140
  183SOPE   C3120913   3.639   6.377   6.906  0.5718  0.2204  0.0487
  183SOPE   O3220914   3.757   6.390   6.889  0.1857  0.6379  0.3066
  183SOPE   C3220915   3.566   6.360   7.044  0.1918 -0.0746 -0.1950
  183SOPE   H2X20916   3.527   6.256   7.040  0.9196 -0.3275 -3.4935
  183SOPE   H2Y20917   3.473   6.421   7.049  1.5958  2.1241  0.4936
  183SOPE   C2320918   3.115   6.191   6.668  0.1256 -0.0637  0.1948
  183SOPE   H3R20919   3.011   6.166   6.638  0.2864 -2.6711  1.5832
  183SOPE   H3S20920   3.126   6.302   6.670  2.7505 -0.2572 -0.6247
  183SOPE   C2420921   3.131   6.116   6.803 -0.6020 -0.1585 -0.9199
  183SOPE   H4R20922   3.115   6.013   6.765 -1.2133  0.7834 -3.4027
  183SOPE   H4S20923   3.232   6.141   6.843 -1.0070  0.8848 -0.5035
  183SOPE   C2520924   3.025   6.150   6.903 -0.4490 -0.4614 -0.2859
  183SOPE   H5R20925   3.021   6.260   6.917  0.1974 -0.6187  1.3638
  183SOPE   H5S20926   2.931   6.117   6.854  0.6848 -0.7112 -2.4004
  183SOPE   C2620927   3.042   6.086   7.040  0.1449  0.3499 -0.5381
  183SOPE   H6R20928   2.942   6.055   7.078 -0.9441  0.6053 -3.0097
  183SOPE   H6S20929   3.100   5.992   7.038  0.1153  0.2917  0.5046
  183SOPE   C2720930   3.113   6.166   7.149  0.7941 -0.0889 -0.1281
  183SOPE   H7R20931   3.216   6.184   7.111  2.0836 -2.7267  1.8240
  183SOPE   H7S20932   3.052   6.257   7.169 -0.2056 -0.1139 -2.6219
  183SOPE   C2820933   3.132   6.092   7.279 -0.5877 -0.2275  0.0698
  183SOPE   H8R20934   3.033   6.078   7.329 -1.1540 -1.1232 -1.2494
  183SOPE   H8S20935   3.161   5.991   7.244 -0.7899 -0.2167 -0.1287
  183SOPE   C2920936   3.234   6.156   7.367  0.7511  0.7484  0.1259
  183SOPE   H9120937   3.298   6.234   7.325 -0.0581  1.9195  0.9822
  183SOPE  C21020938   3.253   6.140   7.503  0.2326  0.0777  0.1891
  183SOPE  H10120939   3.336   6.197   7.547  2.3272 -1.3704 -1.6284
  183SOPE  C21120940   3.164   6.041   7.576 -0.3095 -0.1299 -0.6334
  183SOPE  H11R20941   3.192   5.939   7.543  2.3688  0.7791 -1.4534
  183SOPE  H11S20942   3.055   6.050   7.556 -0.8066 -0.0025  1.8131
  183SOPE  C21220943   3.192   6.047   7.726 -0.4894 -0.4387  0.3192
  183SOPE  H12R20944   3.171   6.151   7.760  0.9351  0.0123 -0.1322
  183SOPE  H12S20945   3.300   6.023   7.735 -0.0294  0.0528 -2.7786
  183SOPE  C21320946   3.102   5.960   7.809  0.1501  0.1646 -0.0287
  183SOPE  H13R20947   3.104   5.860   7.759 -0.8856  0.1047  0.0259
  183SOPE  H13S20948   2.993   5.983   7.815  0.2650  1.5212 -2.1796
  183SOPE  C21420949   3.144   5.947   7.955  0.3955 -0.2365 -0.1074
  183SOPE  H14R20950   3.104   6.027   8.021 -1.5240 -0.5804 -0.8114
  183SOPE  H14S20951   3.253   5.925   7.965  0.5004 -0.3205 -1.3145
  183SOPE  C21520952   3.075   5.824   8.028 -0.2085 -0.1397 -0.3704
  183SOPE  H15R20953   3.139   5.785   8.110 -0.6265  1.4385  0.7604
  183SOPE  H15S20954   3.072   5.739   7.957  2.0079 -1.9189  1.4904
  183SOPE  C21620955   2.940   5.843   8.084 -0.5230 -0.4087  1.2701
  183SOPE  H16R20956   2.873   5.870   8.000  1.0000  4.2630  1.2786
  183SOPE  H16S20957   2.941   5.931   8.152 -2.2131  0.2803  0.4755
  183SOPE  C21720958   2.880   5.727   8.162  0.4572 -0.3861 -0.1649
  183SOPE  H17R20959   2.783   5.765   8.200  0.6330 -0.0520 -0.0405
  183SOPE  H17S20960   2.941   5.692   8.248 -0.5576 -1.5906  0.0844
  183SOPE  C21820961   2.860   5.603   8.086  0.7013  0.8479  0.4793
  183SOPE  H18R20962   2.788   5.541   8.143 -2.3449  2.5516 -1.2819
  183SOPE  H18S20963   2.947   5.537   8.064 -0.0899  0.5649 -2.0300
  183SOPE  H18T20964   2.816   5.626   7.987  0.1512 -1.2872  0.1705
  183SOPE   C3320965   3.656   6.373   7.168 -0.2263  0.4865 -0.4847
  183SOPE   H3X20966   3.716   6.466   7.154  2.1469 -1.0740 -1.3682
  183SOPE   H3Y20967   3.728   6.293   7.196  0.5800  2.1159  2.5451
  183SOPE   C3420968   3.579   6.381   7.295 -0.0976  0.1376 -0.1077
  183SOPE   H4X20969   3.519   6.287   7.297  0.6913 -0.4100 -1.0728
  183SOPE   H4Y20970   3.507   6.465   7.295  2.1483  2.1866 -0.9599
  183SOPE   C3520971   3.661   6.386   7.423 -0.5184  0.4041 -0.5965
  183SOPE   H5X20972   3.714   6.484   7.430  1.3250 -0.6436  1.7313
  183SOPE   H5Y20973   3.748   6.317   7.429  0.3373  1.5417  1.1439
  183SOPE   C3620974   3.578   6.371   7.548  1.0549 -0.0986  0.5787
  183SOPE   H6X20975   3.518   6.278   7.543 -0.6621  0.7756  3.1650
  183SOPE   H6Y20976   3.508   6.457   7.550  1.3363  0.1292  0.6576
  183SOPE   C3720977   3.654   6.380   7.679 -0.0504 -0.3566 -0.1498
  183SOPE   H7X20978   3.681   6.485   7.705 -3.2549  0.3819  0.5311
  183SOPE   H7Y20979   3.738   6.308   7.671  0.6627  0.1831  1.9325
  183SOPE   C3820980   3.566   6.325   7.790 -0.1998  0.6083 -0.2367
  183SOPE   H8X20981   3.527   6.227   7.754 -1.1898  0.9051 -0.0020
  183SOPE   H8Y20982   3.471   6.380   7.805 -1.1230 -1.0435  0.2928
  183SOPE   C3920983   3.646   6.306   7.914 -0.4746 -0.2368 -0.1569
  183SOPE   H9X20984   3.705   6.393   7.950  1.5071 -2.1384  1.4976
  183SOPE   H9Y20985   3.722   6.226   7.900  2.2063  1.6440  2.4181
  183SOPE  C31020986   3.558   6.276   8.034  0.6532  0.7069 -0.6365
  183SOPE  H10X20987   3.497   6.186   8.008 -0.9076  0.9459  1.8501
  183SOPE  H10Y20988   3.485   6.359   8.041 -1.7934 -1.0310 -3.2499
  183SOPE  C31120989   3.643   6.246   8.161 -0.2045  0.3127  0.3718
  183SOPE  H11X20990   3.704   6.334   8.193  1.6430 -0.6838 -0.2708
  183SOPE  H11Y20991   3.716   6.170   8.128  2.3159  2.7846 -0.1738
  183SOPE  C31220992   3.552   6.217   8.281 -1.3145  0.6242 -0.2902
  183SOPE  H12X20993   3.488   6.126   8.285 -3.1789  1.8566 -0.5108
  183SOPE  H12Y20994   3.476   6.298   8.287 -1.5816  0.3669 -0.1652
  183SOPE  C31320995   3.644   6.210   8.416 -0.1968  0.4687 -0.0465
  183SOPE  H13X20996   3.717   6.294   8.410 -0.3346  0.9384  3.0950
  183SOPE  H13Y20997   3.691   6.109   8.414  0.5612  0.7211  2.3462
  183SOPE  C31420998   3.572   6.220   8.546 -0.6624 -0.1878 -0.0170
  183SOPE  H14X20999   3.638   6.171   8.621 -0.6299 -0.7292 -0.3952
  183SOPE  H14Y21000   3.476   6.163   8.543 -0.6920 -0.1190 -1.9597
  183SOPE  C31521001   3.572   6.360   8.601  0.2177 -0.2132 -0.1248
  183SOPE  H15X21002   3.529   6.431   8.527  1.0682  0.3655 -0.0811
  183SOPE  H15Y21003   3.674   6.402   8.614 -0.9048  2.0916  2.0846
  183SOPE  C31621004   3.488   6.376   8.729  0.3558 -0.2472 -0.5427
  183SOPE  H16X21005   3.492   6.485   8.752  1.8344 -0.1653 -1.0974
  183SOPE  H16Y21006   3.547   6.330   8.811  0.4180  1.2594  0.3007
  183SOPE  C31721007   3.366   6.296   8.733 -0.5640 -0.5536 -0.7605
  183SOPE  H17X21008   3.390   6.188   8.723  0.2149 -0.5561  0.9075
  183SOPE  H17Y21009   3.306   6.321   8.642 -0.8084  0.3011 -0.3762
  183SOPE  C31821010   3.305   6.316   8.870  0.2269  0.2761  0.0326
  183SOPE  H18X21011   3.351   6.267   8.958 -2.3789 -1.6070  0.4751
  183SOPE  H18Y21012   3.208   6.261   8.872 -0.5590  1.6423  1.0316
  183SOPE  H18Z21013   3.295   6.425   8.890  0.9804  0.9978 -2.9412
  184SOPE     N21014   3.136   5.175   6.199  0.3069  0.1654 -0.1266
  184SOPE   HN121015   3.156   5.074   6.186  0.3125  0.1267  0.1632
  184SOPE   HN221016   3.213   5.226   6.248 -0.4033  0.0979  1.1176
  184SOPE   HN321017   3.054   5.195   6.260  0.8644  0.5500  0.5246
  184SOPE   C1221018   3.123   5.225   6.059  1.5412 -0.8093  0.4560
  184SOPE  H12A21019   3.053   5.160   6.004 -0.4588  1.8713 -0.3648
  184SOPE  H12B21020   3.221   5.212   6.008  1.0199  2.5794 -1.7761
  184SOPE   C1121021   3.084   5.375   6.054 -0.1770  0.4064 -0.5818
  184SOPE  H11A21022   2.973   5.380   6.054 -0.1484  1.3139 -1.4530
  184SOPE  H11B21023   3.107   5.414   5.952 -1.4220 -0.7555 -1.3426
  184SOPE     P21024   3.173   5.598   6.164 -0.0519 -0.0826  0.2688
  184SOPE   O1321025   3.060   5.685   6.203 -0.6575  0.0924  0.2128
  184SOPE   O1421026   3.230   5.625   6.033  0.1800  0.2562  0.0256
  184SOPE   O1221027   3.122   5.448   6.172 -0.1690 -0.1395 -0.2764
  184SOPE   O1121028   3.291   5.610   6.274  0.7214 -0.1533  0.1398
  184SOPE    C121029   3.284   5.555   6.407 -0.2545  0.1876  0.5905
  184SOPE    HA21030   3.371   5.489   6.425 -0.5474  0.0007  1.3820
  184SOPE    HB21031   3.204   5.479   6.420  0.0018 -0.0451  0.8182
  184SOPE    C221032   3.266   5.657   6.519 -0.9454 -0.4689 -0.6457
  184SOPE    HS21033   3.253   5.605   6.617 -0.1800 -0.5105 -0.5625
  184SOPE   O2121034   3.155   5.745   6.499  0.0013  0.0213  0.7572
  184SOPE   C2121035   3.037   5.693   6.541  0.5899  0.1028  0.0999
  184SOPE   O2221036   3.030   5.581   6.592 -0.0691 -0.4316  0.4111
  184SOPE   C2221037   2.927   5.798   6.509  0.7423 -0.5964 -1.1839
  184SOPE   H2R21038   2.912   5.781   6.400  0.8987 -0.8836 -1.1591
  184SOPE   H2S21039   2.948   5.902   6.541 -2.4695 -0.2910  0.2980
  184SOPE    C321040   3.394   5.738   6.545  0.0647 -0.7095  0.5756
  184SOPE    HX21041   3.394   5.817   6.467  0.1545 -0.4692  0.8142
  184SOPE    HY21042   3.481   5.669   6.553 -1.0005 -2.1219  0.4191
  184SOPE   O3121043   3.385   5.806   6.668  0.2496 -0.3325 -0.1963
  184SOPE   C3121044   3.494   5.854   6.731  0.7819 -0.0757  0.6019
  184SOPE   O3221045   3.599   5.852   6.671 -0.0463 -0.0153 -0.6455
  184SOPE   C3221046   3.457   5.923   6.862 -0.4494  0.1090 -0.2240
  184SOPE   H2X21047   3.375   5.861   6.903 -1.2307  0.6740 -0.8816
  184SOPE   H2Y21048   3.414   6.021   6.830  1.0432  0.4574 -1.3074
  184SOPE   C2321049   2.795   5.750   6.577 -0.6474  0.0326  0.3774
  184SOPE   H3R21050   2.773   5.641   6.566 -3.1530  0.3730  1.3341
  184SOPE   H3S21051   2.713   5.807   6.531  0.8165  0.3093 -2.0631
  184SOPE   C2421052   2.784   5.802   6.724  0.8872  0.0289  0.1377
  184SOPE   H4R21053   2.790   5.913   6.730 -2.0801  0.2737  0.0596
  184SOPE   H4S21054   2.681   5.766   6.746  0.2247  0.7319 -1.6494
  184SOPE   C2521055   2.862   5.720   6.836  0.1966  0.2492 -0.2707
  184SOPE   H5R21056   2.845   5.614   6.810 -2.4824  0.5220  0.1520
  184SOPE   H5S21057   2.972   5.734   6.826  0.2326 -0.0919 -0.3566
  184SOPE   C2621058   2.822   5.756   6.980 -0.2245  0.6306 -0.5319
  184SOPE   H6R21059   2.888   5.695   7.046  0.0940 -1.0094 -2.2931
  184SOPE   H6S21060   2.835   5.859   7.020 -0.3328 -0.0121  1.2453
  184SOPE   C2721061   2.680   5.723   7.023  0.5126  0.0382  0.0807
  184SOPE   H7R21062   2.610   5.792   6.972 -2.4884 -1.7199  1.5408
  184SOPE   H7S21063   2.634   5.627   6.994 -0.3457  0.5343 -0.2480
  184SOPE   C2821064   2.653   5.753   7.175  0.6266 -0.1588 -0.4994
  184SOPE   H8R21065   2.692   5.854   7.200 -1.2841  0.7296 -0.8933
  184SOPE   H8S21066   2.544   5.757   7.197  1.1541 -0.5295  2.5801
  184SOPE   C2921067   2.713   5.645   7.259 -0.4511  0.2294  0.3938
  184SOPE   H9121068   2.725   5.547   7.212 -1.2018  0.5157 -0.4401
  184SOPE  C21021069   2.755   5.661   7.386 -0.3451 -0.7391  0.0587
  184SOPE  H10121070   2.819   5.586   7.434  0.5325 -0.4767 -0.6618
  184SOPE  C21121071   2.746   5.795   7.455 -0.0662  0.5818 -0.3274
  184SOPE  H11R21072   2.657   5.858   7.432 -0.1056  1.6293  2.3738
  184SOPE  H11S21073   2.835   5.858   7.435 -0.3408  0.7002 -1.2320
  184SOPE  C21221074   2.739   5.774   7.609  0.4169  0.1150 -0.0827
  184SOPE  H12R21075   2.757   5.874   7.655  0.7780  0.7977 -1.6348
  184SOPE  H12S21076   2.817   5.703   7.644  0.4416  0.8790  1.5107
  184SOPE  C21321077   2.599   5.744   7.665 -0.6387 -0.1292 -0.0724
  184SOPE  H13R21078   2.553   5.665   7.601  0.7382 -1.9306  1.0352
  184SOPE  H13S21079   2.536   5.835   7.661 -1.5355 -0.6927  0.8810
  184SOPE  C21421080   2.620   5.700   7.812  0.4895 -0.1364  0.8199
  184SOPE  H14R21081   2.686   5.771   7.866  0.1465 -1.3379  2.9452
  184SOPE  H14S21082   2.665   5.599   7.809 -0.4972 -0.5807  0.6243
  184SOPE  C21521083   2.482   5.690   7.882 -0.9605 -0.8200 -0.4299
  184SOPE  H15R21084   2.438   5.590   7.861 -0.5166 -0.6541 -2.3334
  184SOPE  H15S21085   2.411   5.766   7.841  2.3287  1.7675 -1.7876
  184SOPE  C21621086   2.495   5.707   8.035 -0.4545  0.0631 -0.4533
  184SOPE  H16R21087   2.518   5.815   8.044  1.1019 -0.1436 -1.5353
  184SOPE  H16S21088   2.586   5.654   8.073 -0.3191 -0.7468 -1.8145
  184SOPE  C21721089   2.367   5.658   8.110  0.1004  0.3263  0.1763
  184SOPE  H17R21090   2.344   5.555   8.075 -2.1287  0.1146  2.0685
  184SOPE  H17S21091   2.277   5.715   8.079 -1.3389 -1.7854  0.2877
  184SOPE  C21821092   2.369   5.662   8.255  0.0575 -0.2704  0.0494
  184SOPE  H18R21093   2.468   5.629   8.293 -0.7614 -0.6172  2.0698
  184SOPE  H18S21094   2.287   5.599   8.297 -0.2328  0.5657  0.7770
  184SOPE  H18T21095   2.352   5.763   8.297  2.2526 -0.2315  0.9683
  184SOPE   C3321096   3.570   5.952   6.965 -0.8590  0.1493  0.1471
  184SOPE   H3X21097   3.630   6.040   6.934  0.1269 -0.0850  1.3212
  184SOPE   H3Y21098   3.635   5.862   6.959 -1.4026 -0.3195  1.0239
  184SOPE   C3421099   3.513   5.975   7.107 -0.4134  0.0900  0.2968
  184SOPE   H4X21100   3.459   5.892   7.157 -2.0185  0.6107 -0.5226
  184SOPE   H4Y21101   3.436   6.054   7.112 -0.8478 -0.2605 -0.6501
  184SOPE   C3521102   3.628   6.008   7.199 -0.7349  0.2146 -0.1833
  184SOPE   H5X21103   3.668   6.109   7.176 -1.0510 -0.0174 -1.9406
  184SOPE   H5Y21104   3.701   5.925   7.194  0.5017  1.2251  0.6172
  184SOPE   C3621105   3.598   6.009   7.349  1.1663 -0.5721  0.3990
  184SOPE   H6X21106   3.517   6.082   7.368  0.4334 -1.5051  0.9249
  184SOPE   H6Y21107   3.689   6.035   7.408 -0.3073 -0.4840  2.7719
  184SOPE   C3721108   3.547   5.874   7.388 -0.0813  0.5925  0.6929
  184SOPE   H7X21109   3.571   5.800   7.309  1.0004  1.0367  0.5909
  184SOPE   H7Y21110   3.438   5.893   7.386 -0.0636  0.6702  0.3380
  184SOPE   C3821111   3.605   5.807   7.513 -0.1297  0.1106 -0.1595
  184SOPE   H8X21112   3.715   5.823   7.521 -0.1473 -0.4674  1.5760
  184SOPE   H8Y21113   3.591   5.697   7.509  0.2483 -0.0185  1.3831
  184SOPE   C3921114   3.536   5.842   7.648  0.2801 -0.0205  0.5835
  184SOPE   H9X21115   3.436   5.793   7.651 -1.2309  2.7520 -0.3398
  184SOPE   H9Y21116   3.515   5.950   7.631 -0.8989 -0.4771 -1.2190
  184SOPE  C31021117   3.622   5.819   7.770  0.2538  0.6271  0.4156
  184SOPE  H10X21118   3.713   5.883   7.774  0.2755  0.5483  1.9020
  184SOPE  H10Y21119   3.657   5.713   7.771  0.1146  0.5019 -2.4073
  184SOPE  C31121120   3.538   5.841   7.894 -0.6301 -0.2634  0.1029
  184SOPE  H11X21121   3.448   5.776   7.902 -2.1830  1.7552 -0.2801
  184SOPE  H11Y21122   3.512   5.949   7.888  3.1395  0.8234  0.8176
  184SOPE  C31221123   3.623   5.837   8.017 -0.9709  0.6099  0.3095
  184SOPE  H12X21124   3.720   5.890   8.001 -0.9663  0.2529 -0.9344
  184SOPE  H12Y21125   3.663   5.733   8.021 -1.2654  0.4475 -0.8577
  184SOPE  C31321126   3.550   5.875   8.141  0.2198  0.5276  0.0210
  184SOPE  H13X21127   3.503   5.974   8.124 -0.2411  0.8066  2.5370
  184SOPE  H13Y21128   3.623   5.894   8.222  1.8255  0.3013 -1.3083
  184SOPE  C31421129   3.444   5.770   8.194  0.0333 -0.2007  0.3445
  184SOPE  H14X21130   3.502   5.681   8.227 -1.2223 -1.3488 -0.4692
  184SOPE  H14Y21131   3.376   5.735   8.114 -0.9920  0.2333  1.0176
  184SOPE  C31521132   3.353   5.836   8.299  0.4362  0.1955 -0.5445
  184SOPE  H15X21133   3.257   5.780   8.296  1.5785 -1.9118  0.5045
  184SOPE  H15Y21134   3.339   5.945   8.280  2.7057  0.5036 -0.7345
  184SOPE  C31621135   3.412   5.838   8.444  1.3005 -0.3204 -0.3297
  184SOPE  H16X21136   3.505   5.897   8.447  0.4567  1.0035  0.7833
  184SOPE  H16Y21137   3.417   5.729   8.467 -1.1525 -0.3239  0.5191
  184SOPE  C31721138   3.316   5.894   8.543 -0.2509 -0.5793 -0.3835
  184SOPE  H17X21139   3.216   5.852   8.516 -0.8024 -0.4338  1.3483
  184SOPE  H17Y21140   3.302   6.003   8.528 -2.0071 -1.0183 -2.5944
  184SOPE  C31821141   3.361   5.868   8.685 -0.1179 -0.3860 -0.4339
  184SOPE  H18X21142   3.396   5.763   8.689 -0.6471 -0.5869 -0.8467
  184SOPE  H18Y21143   3.277   5.876   8.758 -1.7176 -3.5509 -1.7050
  184SOPE  H18Z21144   3.445   5.937   8.708 -0.8857 -0.2923  2.4623
  185SAPI   C1221145   5.605   0.611  11.057 -0.4687  0.8358  0.3443
  185SAPI    H221146   5.712   0.630  11.080 -0.7250  0.4368  2.0322
  185SAPI    O221147   5.590   0.475  11.088  0.3606  0.3047 -0.2087
  185SAPI   HO221148   5.612   0.429  11.007  0.9769 -0.5432  0.4256
  185SAPI   C1321149   5.521   0.705  11.141  0.1560  0.8039  0.3285
  185SAPI    H321150   5.530   0.811  11.108 -0.9476  1.0403  0.7468
  185SAPI    O321151   5.558   0.694  11.282  0.2180 -0.2588  0.9997
  185SAPI   HO321152   5.633   0.752  11.297 -1.8709  2.8926  0.2904
  185SAPI   C1421153   5.373   0.677  11.121 -0.5332  0.0597  0.2596
  185SAPI    H421154   5.350   0.570  11.140 -4.2323  0.2397 -2.2991
  185SAPI    O421155   5.293   0.761  11.210  0.4185  0.5572  0.3927
  185SAPI   HO421156   5.312   0.851  11.183  0.6509  1.0106  1.9716
  185SAPI   C1521157   5.333   0.706  10.980 -0.6759 -0.3369  1.0124
  185SAPI    H521158   5.361   0.808  10.947 -0.4645 -0.5375  0.5661
  185SAPI    O521159   5.189   0.713  10.959 -0.0788  0.4308 -0.4112
  185SAPI   HO521160   5.146   0.665  11.029  3.3947 -0.4544  1.3533
  185SAPI   C1621161   5.411   0.616  10.885 -0.3880 -0.4274 -0.1621
  185SAPI    H621162   5.397   0.506  10.893  2.9715 -0.9885 -0.5850
  185SAPI    O621163   5.383   0.656  10.752 -0.7631 -0.0258  0.5146
  185SAPI   HO621164   5.380   0.578  10.697  0.7254  0.2846 -0.0584
  185SAPI   C1121165   5.565   0.627  10.914  0.3915 -0.6108  0.0156
  185SAPI    H121166   5.580   0.734  10.885 -2.2073 -0.1016  0.2497
  185SAPI     P21167   5.796   0.581  10.771  0.3410 -0.2224  0.3110
  185SAPI   O1321168   5.845   0.460  10.691  0.2491 -0.3005  0.4434
  185SAPI   O1421169   5.872   0.619  10.894 -0.4377 -0.1172  0.4034
  185SAPI   O1221170   5.641   0.553  10.816  0.5725  0.0900  0.0271
  185SAPI   O1121171   5.790   0.711  10.669  0.4910 -0.6064  0.0107
  185SAPI    C121172   5.693   0.720  10.564  0.2655  0.0815  0.1614
  185SAPI    HA21173   5.612   0.645  10.580  0.1864 -0.1780 -1.3142
  185SAPI    HB21174   5.643   0.819  10.563 -2.4208 -1.1824  0.0437
  185SAPI    C221175   5.754   0.685  10.425 -0.1237  0.4020  0.3331
  185SAPI    HS21176   5.820   0.597  10.438 -1.1794 -0.2662  1.2508
  185SAPI   O2121177   5.822   0.801  10.387  0.2497  0.7437 -0.5486
  185SAPI   C2121178   5.930   0.780  10.318  0.4164  0.5739 -0.5065
  185SAPI   O2221179   5.984   0.674  10.286  0.2671 -0.0502 -0.3263
  185SAPI   C2221180   5.977   0.922  10.281 -0.1409 -0.3857 -0.1573
  185SAPI   H2R21181   5.979   0.987  10.371 -0.1057 -1.8418  0.9300
  185SAPI   H2S21182   6.078   0.900  10.242 -0.5058 -3.1784  0.2470
  185SAPI    C321183   5.641   0.641  10.326  0.3615  0.2492 -0.4997
  185SAPI    HX21184   5.566   0.722  10.327 -0.5820 -0.5183  2.4680
  185SAPI    HY21185   5.598   0.554  10.381 -2.3217  2.4082  1.0546
  185SAPI   O3121186   5.693   0.614  10.195 -0.3176  0.2524  0.8270
  185SAPI   C3121187   5.750   0.489  10.174  1.0000  0.0165  0.2990
  185SAPI   O3221188   5.742   0.390  10.247 -0.1152  0.0797 -0.7587
  185SAPI   C3221189   5.813   0.491  10.039 -0.2242 -0.5642 -0.4049
  185SAPI   H2X21190   5.881   0.579  10.035 -0.1161 -0.3655  2.8710
  185SAPI   H2Y21191   5.734   0.499   9.962  0.7699  1.4860 -1.2737
  185SAPI   C2321192   5.903   0.986  10.157 -0.6202  0.6922  0.2056
  185SAPI   H3R21193   5.941   1.088  10.137 -2.6997  1.4016 -0.3813
  185SAPI   H3S21194   5.795   0.995  10.181 -0.5681  0.7916  0.4138
  185SAPI   C2421195   5.936   0.904  10.032 -0.0826 -0.5363  0.0183
  185SAPI   H4R21196   5.874   0.812  10.026 -2.1591  0.7418  0.6941
  185SAPI   H4S21197   6.041   0.868  10.038 -0.6417 -2.0246  1.6938
  185SAPI   C2521198   5.930   0.981   9.901  0.2231 -0.0176 -0.2514
  185SAPI   H5R21199   5.942   1.090   9.905  1.6471 -0.1707  0.5488
  185SAPI   C2621200   5.939   0.923   9.785 -0.3775  0.8735  0.0145
  185SAPI   H6R21201   5.955   0.984   9.695  1.8918  0.3698  0.0061
  185SAPI   C2721202   5.954   0.774   9.755 -0.3500 -0.3641 -0.1045
  185SAPI   H7R21203   5.926   0.722   9.849  0.3668 -0.0700  0.2746
  185SAPI   H7S21204   6.060   0.746   9.735 -0.5961 -0.4338 -1.3669
  185SAPI   C2821205   5.867   0.730   9.643 -0.0840  0.4487 -0.0422
  185SAPI   H8R21206   5.762   0.718   9.673  0.1658 -1.2392  0.2455
  185SAPI   C2921207   5.902   0.702   9.512  0.2676 -0.2852 -0.0637
  185SAPI   H9R21208   5.830   0.648   9.449  2.1821 -1.0093 -1.7231
  185SAPI  C21021209   6.039   0.696   9.448 -0.4136  0.3938  0.0333
  185SAPI  H10R21210   6.114   0.630   9.497 -1.1981 -3.4818 -3.4206
  185SAPI  H10S21211   6.088   0.795   9.439 -0.7894  0.5348 -0.5285
  185SAPI  C21121212   6.035   0.642   9.307  0.1080  0.0965  0.5391
  185SAPI  H11R21213   6.119   0.575   9.284 -3.2790 -4.6774  0.7235
  185SAPI  C21221214   5.948   0.679   9.203  0.5291 -0.0698 -0.1286
  185SAPI  H12R21215   5.972   0.629   9.108 -0.8663 -0.0508 -0.5067
  185SAPI  C21321216   5.846   0.791   9.211  0.0710 -0.2507 -0.2559
  185SAPI  H13R21217   5.888   0.867   9.281  0.2489 -1.1660  0.6608
  185SAPI  H13S21218   5.753   0.755   9.262  0.1435 -2.6536 -1.6657
  185SAPI  C21421219   5.818   0.844   9.073 -0.2860  0.3997 -0.2163
  185SAPI  H14R21220   5.867   0.938   9.045 -0.1217  0.3955  0.0560
  185SAPI  C21521221   5.735   0.790   8.980 -0.2557  0.1562  0.1614
  185SAPI  H15R21222   5.724   0.853   8.890  0.3778  0.9426  0.6255
  185SAPI  C21621223   5.661   0.665   9.001  1.0172  0.1765 -0.9091
  185SAPI  H16R21224   5.553   0.688   9.012  1.6987  3.5652 -0.0868
  185SAPI  H16S21225   5.688   0.605   9.090 -0.2129 -2.1975 -2.0575
  185SAPI  C21721226   5.671   0.571   8.879  0.2268 -0.2731  0.6341
  185SAPI  H17R21227   5.621   0.478   8.912 -0.2823 -0.5326 -0.8211
  185SAPI  H17S21228   5.773   0.541   8.846  0.2052  3.1504 -3.3922
  185SAPI  C21821229   5.599   0.617   8.752 -0.2648  0.5707  0.2515
  185SAPI  H18R21230   5.500   0.659   8.782 -0.0226  0.8397  0.6846
  185SAPI  H18S21231   5.567   0.525   8.700  2.9172 -0.9861  0.8070
  185SAPI  C21921232   5.671   0.713   8.650  0.0921  0.1567 -0.2497
  185SAPI  H19R21233   5.779   0.687   8.639  0.5899  2.3447 -1.0452
  185SAPI  H19S21234   5.670   0.813   8.698 -3.5731  0.9024 -1.5107
  185SAPI  C22021235   5.597   0.723   8.516 -0.7484 -0.2786 -0.4111
  185SAPI  H20R21236   5.622   0.644   8.442 -0.9218 -0.3424 -0.4034
  185SAPI  H20S21237   5.614   0.819   8.464 -0.2614  0.0160  0.2802
  185SAPI  H20T21238   5.488   0.709   8.536 -0.3488 -1.7089  1.0792
  185SAPI   C3321239   5.909   0.375  10.009  0.1802  0.3181 -0.4741
  185SAPI   H3X21240   5.875   0.273  10.037 -1.3373  0.8736 -0.1817
  185SAPI   H3Y21241   6.003   0.401  10.062 -0.2717 -1.4597  1.3470
  185SAPI   C3421242   5.941   0.366   9.862  0.6318  0.0064  0.0845
  185SAPI   H4X21243   5.973   0.458   9.809  0.3842 -1.3973 -2.7405
  185SAPI   H4Y21244   5.846   0.335   9.813 -0.3768  2.3549  0.4516
  185SAPI   C3521245   6.037   0.244   9.833  0.2443 -0.9282  0.9568
  185SAPI   H5X21246   6.024   0.159   9.904  1.1731 -0.4071  1.7805
  185SAPI   H5Y21247   6.132   0.299   9.848  0.1344 -0.5211  0.2104
  185SAPI   C3621248   6.028   0.200   9.678  0.0905 -0.1881  0.3033
  185SAPI   H6X21249   5.931   0.154   9.651  0.5625 -0.2207 -1.4266
  185SAPI   H6Y21250   6.105   0.122   9.658 -0.2973 -0.3702 -0.5055
  185SAPI   C3721251   6.065   0.325   9.593 -0.4528  0.1685  0.3119
  185SAPI   H7X21252   6.159   0.375   9.626 -1.0277  0.3076  1.8210
  185SAPI   H7Y21253   5.988   0.405   9.604 -1.8075 -1.0754  0.1564
  185SAPI   C3821254   6.080   0.285   9.443  0.3065 -0.5351  0.2159
  185SAPI   H8X21255   6.159   0.208   9.427  0.0571 -0.4509 -1.5267
  185SAPI   H8Y21256   6.107   0.383   9.400 -0.3318  1.3455  3.7170
  185SAPI   C3921257   5.945   0.252   9.374  0.4892 -0.1548  0.3585
  185SAPI   H9X21258   5.873   0.323   9.420 -0.1041  0.5586 -1.5631
  185SAPI   H9Y21259   5.926   0.147   9.406 -2.3599  0.4966  1.0967
  185SAPI  C31021260   5.951   0.269   9.225 -0.1358  0.1437  0.4114
  185SAPI  H10X21261   6.018   0.191   9.182 -0.2398  1.1745 -1.7708
  185SAPI  H10Y21262   5.988   0.371   9.200  2.2512 -0.7301  0.0577
  185SAPI  C31121263   5.817   0.246   9.150  0.2586 -0.0107  1.1133
  185SAPI  H11X21264   5.738   0.322   9.171 -1.1433 -1.3794  0.9754
  185SAPI  H11Y21265   5.771   0.158   9.201 -0.5111  1.1726  2.5565
  185SAPI  C31221266   5.828   0.228   8.996  0.3625 -0.0441 -0.8780
  185SAPI  H12X21267   5.901   0.144   8.994 -1.1751 -1.5164  0.9731
  185SAPI  H12Y21268   5.869   0.322   8.953 -0.8596  0.9452  0.0890
  185SAPI  C31321269   5.698   0.201   8.928 -0.0083 -0.2889  0.4601
  185SAPI  H13X21270   5.713   0.223   8.820 -1.4221  0.6141  0.4092
  185SAPI  H13Y21271   5.612   0.264   8.959 -0.2144 -0.6299  0.5846
  185SAPI  C31421272   5.668   0.052   8.920  0.6789 -0.3679  0.4976
  185SAPI  H14X21273   5.635   0.019   9.021 -0.2195 -1.2558 -0.0693
  185SAPI  H14Y21274   5.765   0.005   8.891  0.2001 -0.6438 -0.7035
  185SAPI  C31521275   5.559   0.002   8.826 -0.4623 -0.2268  0.2896
  185SAPI  H15X21276   5.585   0.024   8.720 -0.0448 -1.5345  0.1050
  185SAPI  H15Y21277   5.468   0.064   8.842 -0.0579  0.2863  0.6438
  185SAPI  C31621278   5.545  -0.148   8.824 -0.1590  0.3233 -0.0728
  185SAPI  H16X21279   5.631  -0.205   8.781 -1.4368 -0.6825 -1.4451
  185SAPI  H16Y21280   5.454  -0.180   8.768 -0.1058 -0.2878  0.1795
  185SAPI  C31721281   5.512  -0.221   8.957 -0.2517  0.0056  0.3992
  185SAPI  H17X21282   5.417  -0.181   8.998 -0.8475  0.5324 -1.3925
  185SAPI  H17Y21283   5.598  -0.199   9.023  1.4713 -0.9581 -1.4090
  185SAPI  C31821284   5.496  -0.371   8.938  1.0354  0.2007  0.3087
  185SAPI  H18X21285   5.475  -0.422   9.035  0.9706  0.8806  0.6636
  185SAPI  H18Y21286   5.587  -0.414   8.891  1.6323  1.8789 -0.1508
  185SAPI  H18Z21287   5.400  -0.374   8.881  1.0903  2.8124 -0.0547
  186SAPI   C1221288   6.247   0.165  11.101  0.4476 -0.0304 -0.4285
  186SAPI    H221289   6.340   0.192  11.156  1.1035 -2.1833 -0.4251
  186SAPI    O221290   6.204   0.049  11.171 -0.4570  0.7124  0.2162
  186SAPI   HO221291   6.283   0.015  11.213 -0.4966  1.0614  0.5813
  186SAPI   C1321292   6.137   0.266  11.114  0.1344 -0.0314  0.0907
  186SAPI    H321293   6.178   0.358  11.068  0.7682 -0.8279 -0.9795
  186SAPI    O321294   6.125   0.307  11.252  0.1063  0.1422 -0.5531
  186SAPI   HO321295   6.068   0.247  11.302 -0.5932  2.0895  1.1010
  186SAPI   C1421296   6.005   0.215  11.046  0.0289  0.1587 -0.0348
  186SAPI    H421297   5.978   0.120  11.097 -1.2603  1.4376  1.8076
  186SAPI    O421298   5.900   0.311  11.062 -0.0816  0.6050  0.0738
  186SAPI   HO421299   5.838   0.283  10.994  0.4876 -2.1708  0.5634
  186SAPI   C1521300   6.034   0.200  10.900 -0.6509  0.3492  0.5505
  186SAPI    H521301   6.071   0.293  10.852 -0.8148 -0.4958 -1.2982
  186SAPI    O521302   5.921   0.162  10.822 -0.0158  0.9924  0.2247
  186SAPI   HO521303   5.936   0.072  10.792  0.0904  0.7574  0.9727
  186SAPI   C1621304   6.145   0.096  10.885  0.9353  0.4925 -0.2417
  186SAPI    H621305   6.109   0.001  10.929  1.1282  1.4872  2.1717
  186SAPI    O621306   6.170   0.081  10.747 -0.0630 -1.1369 -0.1340
  186SAPI   HO621307   6.255   0.037  10.743 -1.0974 -3.2469 -0.0749
  186SAPI   C1121308   6.281   0.136  10.954  0.2783  0.5808  0.1332
  186SAPI    H121309   6.319   0.230  10.910 -1.6425  0.7417 -1.3003
  186SAPI     P21310   6.513   0.039  10.854 -0.1200 -0.0675  0.5066
  186SAPI   O1321311   6.602  -0.078  10.877  0.2226 -0.1995 -0.4069
  186SAPI   O1421312   6.575   0.174  10.865 -0.0919 -0.5348  0.4437
  186SAPI   O1221313   6.382   0.031  10.958 -0.1140  0.3544 -0.2712
  186SAPI   O1121314   6.444   0.023  10.717  0.4355  0.1300 -0.4917
  186SAPI    C121315   6.518   0.064  10.600  0.5333 -0.4730  0.0035
  186SAPI    HA21316   6.494   0.171  10.583 -1.0101 -0.5886  1.2583
  186SAPI    HB21317   6.628   0.061  10.609  0.7423 -0.1272 -2.0316
  186SAPI    C221318   6.468  -0.015  10.474  0.1820  0.0386  0.0642
  186SAPI    HS21319   6.496  -0.123  10.474  0.1026 -0.1978  4.4884
  186SAPI   O2121320   6.520   0.052  10.354 -0.0493 -0.2670 -0.2111
  186SAPI   C2121321   6.649   0.050  10.348  0.4132  0.4354 -0.1892
  186SAPI   O2221322   6.730  -0.028  10.400 -0.3475 -0.2290 -0.1583
  186SAPI   C2221323   6.686   0.162  10.250  0.2283  0.7454 -0.7719
  186SAPI   H2R21324   6.708   0.251  10.312  0.9590 -0.0952  0.2049
  186SAPI   H2S21325   6.775   0.137  10.189 -0.9414 -0.6840 -1.9896
  186SAPI    C321326   6.306  -0.039  10.479 -0.2717 -0.9436  0.5702
  186SAPI    HX21327   6.242   0.051  10.491  0.9078  0.1248 -0.8878
  186SAPI    HY21328   6.298  -0.094  10.575 -0.7401  0.0971  1.1458
  186SAPI   O3121329   6.270  -0.112  10.359 -0.3419  0.0462  0.0918
  186SAPI   C3121330   6.208  -0.058  10.265 -0.0729 -0.7371 -0.5010
  186SAPI   O3221331   6.181   0.062  10.259 -0.1059 -0.5157 -0.5450
  186SAPI   C3221332   6.178  -0.162  10.163 -0.1569  0.4777  0.6980
  186SAPI   H2X21333   6.103  -0.227  10.214  0.3737  0.5898  1.6367
  186SAPI   H2Y21334   6.261  -0.235  10.155 -0.6656 -0.1749  1.2238
  186SAPI   C2321335   6.568   0.207  10.158 -0.8786  0.2401  0.2015
  186SAPI   H3R21336   6.583   0.303  10.103 -0.6071  0.2340  0.2627
  186SAPI   H3S21337   6.465   0.207  10.200 -0.0418 -2.7607  2.6114
  186SAPI   C2421338   6.566   0.117  10.029  0.0788 -0.2883  0.2574
  186SAPI   H4R21339   6.551   0.011  10.061 -2.5734 -0.0612  0.0204
  186SAPI   H4S21340   6.658   0.110   9.966 -0.0634 -1.2766  0.1338
  186SAPI   C2521341   6.439   0.159   9.955 -0.6365 -0.5694 -0.1068
  186SAPI   H5R21342   6.353   0.161  10.024 -1.0095 -0.5613 -0.5619
  186SAPI   C2621343   6.426   0.213   9.828 -0.4419 -0.3065  0.2304
  186SAPI   H6R21344   6.324   0.242   9.801 -0.1881  0.3379 -0.0460
  186SAPI   C2721345   6.528   0.243   9.717 -0.2279 -0.8863 -0.5680
  186SAPI   H7R21346   6.626   0.207   9.757  0.1400 -0.6594 -1.2486
  186SAPI   H7S21347   6.544   0.352   9.702 -0.6929 -0.4489  1.7903
  186SAPI   C2821348   6.482   0.168   9.600  0.7789  0.7615 -0.7074
  186SAPI   H8R21349   6.429   0.073   9.617  0.7629  0.8921  0.0362
  186SAPI   C2921350   6.491   0.220   9.475  0.4148  0.5817  0.4188
  186SAPI   H9R21351   6.435   0.165   9.398 -2.0644 -0.0829  2.5520
  186SAPI  C21021352   6.551   0.356   9.430  1.0369  0.0587 -0.0215
  186SAPI  H10R21353   6.627   0.335   9.352  1.2862 -1.3772  0.5752
  186SAPI  H10S21354   6.602   0.416   9.509 -0.0584  1.0294 -0.0214
  186SAPI  C21121355   6.440   0.440   9.376 -0.8275 -0.0662  0.4491
  186SAPI  H11R21356   6.388   0.500   9.451 -0.7420 -0.6884  1.0202
  186SAPI  C21221357   6.404   0.445   9.247  0.4491 -0.0539 -0.1101
  186SAPI  H12R21358   6.322   0.511   9.215  0.8437  0.2087 -0.6090
  186SAPI  C21321359   6.465   0.387   9.123 -0.4562  0.2682  0.4205
  186SAPI  H13R21360   6.382   0.334   9.071  1.5230 -0.9340 -1.6666
  186SAPI  H13S21361   6.553   0.328   9.157  1.7948  3.1395 -0.0556
  186SAPI  C21421362   6.504   0.507   9.035  0.4029  0.3903  0.4747
  186SAPI  H14R21363   6.483   0.606   9.077 -2.8340  0.2700 -0.5745
  186SAPI  C21521364   6.541   0.507   8.904  0.5677 -0.7838 -0.5697
  186SAPI  H15R21365   6.586   0.598   8.861  0.3480  0.0673  0.9118
  186SAPI  C21621366   6.550   0.377   8.829  0.1057  0.7202 -0.1642
  186SAPI  H16R21367   6.457   0.318   8.840  0.6868 -0.0756  0.6657
  186SAPI  H16S21368   6.631   0.322   8.882 -0.6011  1.0517  1.3070
  186SAPI  C21721369   6.585   0.388   8.684 -0.3790 -0.1303  0.8568
  186SAPI  H17R21370   6.499   0.430   8.628  1.0386  0.3564 -1.0429
  186SAPI  H17S21371   6.600   0.286   8.641  1.6961  0.6572 -0.4448
  186SAPI  C21821372   6.715   0.462   8.650  0.5127  0.0648  0.4476
  186SAPI  H18R21373   6.696   0.571   8.650  0.7956  0.1248 -0.8636
  186SAPI  H18S21374   6.740   0.433   8.546  0.4701  0.3181  0.3683
  186SAPI  C21921375   6.838   0.438   8.739 -0.3409 -0.4439  0.2178
  186SAPI  H19R21376   6.886   0.338   8.729  3.3838  1.3973 -2.9157
  186SAPI  H19S21377   6.813   0.447   8.847  0.4292  0.8072  0.3064
  186SAPI  C22021378   6.947   0.540   8.704 -0.0926 -0.5828  0.1558
  186SAPI  H20R21379   7.042   0.506   8.750  0.5931  0.7798 -0.2075
  186SAPI  H20S21380   6.934   0.643   8.745  1.7820 -0.4398  0.4944
  186SAPI  H20T21381   6.957   0.557   8.595 -0.7943 -0.5844  0.0822
  186SAPI   C3321382   6.144  -0.109  10.020 -0.3839 -0.0768 -0.1333
  186SAPI   H3X21383   6.224  -0.035   9.999 -0.8672  0.4959  0.0086
  186SAPI   H3Y21384   6.045  -0.059  10.011 -0.7125 -0.7954 -0.5740
  186SAPI   C3421385   6.143  -0.218   9.915  0.3183  0.0329 -0.5383
  186SAPI   H4X21386   6.054  -0.282   9.930 -1.3614  2.3387 -0.1104
  186SAPI   H4Y21387   6.226  -0.292   9.908 -0.7113 -1.3136  0.8846
  186SAPI   C3521388   6.131  -0.159   9.774 -0.9618 -0.3432  0.3580
  186SAPI   H5X21389   6.205  -0.076   9.772 -0.7284 -0.5095 -2.7745
  186SAPI   H5Y21390   6.028  -0.120   9.759 -1.1473 -1.4244 -1.5263
  186SAPI   C3621391   6.162  -0.270   9.675 -0.1842 -0.0098 -0.3376
  186SAPI   H6X21392   6.092  -0.352   9.698 -0.7509  1.3489  3.4773
  186SAPI   H6Y21393   6.270  -0.295   9.690 -0.6122 -0.4144  2.5262
  186SAPI   C3721394   6.143  -0.245   9.527  0.9584 -0.0294 -0.5057
  186SAPI   H7X21395   6.059  -0.173   9.524  2.5371  1.8471 -1.3288
  186SAPI   H7Y21396   6.111  -0.337   9.473  0.3642  1.0407 -2.0425
  186SAPI   C3821397   6.248  -0.166   9.452  0.1772 -1.0964 -0.0787
  186SAPI   H8X21398   6.342  -0.225   9.440  0.3649 -0.8532  0.1850
  186SAPI   H8Y21399   6.277  -0.072   9.504  2.2358 -2.2004  0.9212
  186SAPI   C3921400   6.195  -0.141   9.302  0.0445  0.0828 -1.0378
  186SAPI   H9X21401   6.101  -0.082   9.302  0.9532  1.6342  0.5690
  186SAPI   H9Y21402   6.182  -0.244   9.262  3.2119 -0.7692 -0.2293
  186SAPI  C31021403   6.298  -0.071   9.207 -0.1516  0.2901  0.6875
  186SAPI  H10X21404   6.399  -0.109   9.235 -0.9111 -0.6271  2.3130
  186SAPI  H10Y21405   6.293   0.036   9.235 -2.8581  0.5396 -0.3988
  186SAPI  C31121406   6.276  -0.103   9.060 -0.3268  0.4739  0.6661
  186SAPI  H11X21407   6.176  -0.056   9.047 -0.7075 -0.4110  0.3080
  186SAPI  H11Y21408   6.269  -0.213   9.045 -0.4908  0.7612 -1.6279
  186SAPI  C31221409   6.355  -0.022   8.951 -0.4622 -0.1022  0.0845
  186SAPI  H12X21410   6.455  -0.069   8.939 -0.8847 -1.2161  0.7853
  186SAPI  H12Y21411   6.366   0.080   8.992  2.3433 -0.5009  0.5576
  186SAPI  C31321412   6.291  -0.027   8.809  1.1111 -0.1534 -0.5633
  186SAPI  H13X21413   6.272  -0.130   8.774 -0.1030 -0.0660 -0.1982
  186SAPI  H13Y21414   6.365   0.007   8.733  1.0619  0.1837 -0.4635
  186SAPI  C31421415   6.157   0.041   8.790 -0.0494 -0.3597 -0.0110
  186SAPI  H14X21416   6.181   0.147   8.810  0.6630 -0.2972 -1.1134
  186SAPI  H14Y21417   6.078   0.018   8.865 -0.0780  1.3825  0.5358
  186SAPI  C31521418   6.107   0.018   8.646 -0.0261  0.2301  0.2676
  186SAPI  H15X21419   6.089  -0.089   8.625 -0.5350  0.4780 -0.5759
  186SAPI  H15Y21420   6.191   0.044   8.579 -0.6994 -1.3991 -1.2656
  186SAPI  C31621421   5.981   0.097   8.600 -0.1432 -0.7398  0.5733
  186SAPI  H16X21422   6.003   0.203   8.627  1.2359 -0.2460 -2.1861
  186SAPI  H16Y21423   5.897   0.075   8.670 -0.6695  1.8954  0.8997
  186SAPI  C31721424   5.944   0.085   8.459 -0.1051 -0.7764 -0.7182
  186SAPI  H17X21425   6.018   0.121   8.384  0.8071  0.4360  0.7215
  186SAPI  H17Y21426   5.862   0.159   8.446 -0.9731 -1.4846  0.5012
  186SAPI  C31821427   5.884  -0.053   8.417  0.8703 -0.3005  0.4376
  186SAPI  H18X21428   5.790  -0.072   8.475 -0.4038  2.5277 -0.5216
  186SAPI  H18Y21429   5.947  -0.136   8.456  1.8623  0.7627  1.1532
  186SAPI  H18Z21430   5.873  -0.058   8.307  0.8468  0.3912  0.4088
  187SAPI   C1221431   1.141   1.578   6.366  0.1393  0.4481 -0.0233
  187SAPI    H221432   1.064   1.541   6.295  0.3357 -1.9697  0.8996
  187SAPI    O221433   1.201   1.452   6.412 -0.2306  0.5152 -0.4268
  187SAPI   HO221434   1.194   1.390   6.339  0.3096  1.7204 -1.5499
  187SAPI   C1321435   1.246   1.667   6.302 -0.4440  0.0529  0.2151
  187SAPI    H321436   1.201   1.761   6.262 -0.2618  0.8865  1.8980
  187SAPI    O321437   1.306   1.595   6.195 -0.5538 -0.2811  0.1611
  187SAPI   HO321438   1.388   1.559   6.230  0.3525  1.6729  0.1788
  187SAPI   C1421439   1.350   1.701   6.405  0.7110  1.0269  0.3130
  187SAPI    H421440   1.395   1.607   6.441  0.9550  0.9658 -0.1511
  187SAPI    O421441   1.454   1.779   6.347 -0.3713 -0.0393  0.6680
  187SAPI   HO421442   1.429   1.871   6.354 -0.7753  0.1653 -2.4153
  187SAPI   C1521443   1.280   1.765   6.529  0.3979 -0.1864 -0.6969
  187SAPI    H521444   1.237   1.861   6.495  1.2333 -0.0166 -1.3113
  187SAPI    O521445   1.380   1.803   6.622 -0.2328  0.0744 -0.1249
  187SAPI   HO521446   1.393   1.897   6.636 -1.0615 -0.0071  1.3652
  187SAPI   C1621447   1.178   1.676   6.589 -0.3851  0.3224  0.2484
  187SAPI    H621448   1.233   1.587   6.626  0.5206  1.3120  1.3999
  187SAPI    O621449   1.112   1.728   6.703  0.4171  1.0582  0.7277
  187SAPI   HO621450   1.064   1.663   6.756  0.3033  0.0345 -0.5863
  187SAPI   C1121451   1.068   1.646   6.482  0.1747 -0.1853  0.7366
  187SAPI    H121452   1.037   1.745   6.442  1.5783 -0.4284 -1.0684
  187SAPI     P21453   0.809   1.586   6.458 -0.1010  0.1903  0.2602
  187SAPI   O1321454   0.732   1.467   6.475 -0.3582  0.1165  0.2150
  187SAPI   O1421455   0.820   1.624   6.316 -0.6364 -0.2884  0.5059
  187SAPI   O1221456   0.959   1.559   6.525  0.1450 -0.4601  0.2458
  187SAPI   O1121457   0.746   1.705   6.545  0.2841 -0.3834  0.1140
  187SAPI    C121458   0.662   1.696   6.663  0.2303 -1.2834 -0.6179
  187SAPI    HA21459   0.601   1.789   6.656 -0.3402 -1.7266 -2.0098
  187SAPI    HB21460   0.595   1.609   6.644 -0.1958 -0.8035 -1.3849
  187SAPI    C221461   0.741   1.671   6.794 -0.4727  0.4058 -0.3050
  187SAPI    HS21462   0.833   1.734   6.796 -0.2040 -0.0026  0.4103
  187SAPI   O2121463   0.758   1.525   6.805 -0.2835 -0.1443 -0.4222
  187SAPI   C2121464   0.867   1.480   6.863  0.5957 -0.5556  0.2666
  187SAPI   O2221465   0.959   1.543   6.903 -0.4054 -0.0318  0.6571
  187SAPI   C2221466   0.844   1.331   6.881  0.1669 -0.7232 -0.0704
  187SAPI   H2R21467   0.757   1.329   6.950  0.9210  1.4584  1.0271
  187SAPI   H2S21468   0.837   1.277   6.784  0.1915  0.7128 -0.9032
  187SAPI    C321469   0.651   1.714   6.912  0.2807 -0.4175 -0.9823
  187SAPI    HX21470   0.573   1.635   6.919  1.1340 -1.4090 -2.2723
  187SAPI    HY21471   0.613   1.815   6.887 -1.7703 -1.1601 -1.0678
  187SAPI   O3121472   0.730   1.720   7.034  0.2723  0.6153 -0.3971
  187SAPI   C3121473   0.699   1.639   7.128 -0.8569 -0.0986  0.0662
  187SAPI   O3221474   0.628   1.544   7.118  0.9194  0.0693  0.4446
  187SAPI   C3221475   0.789   1.661   7.249 -0.1162 -0.2441 -0.3513
  187SAPI   H2X21476   0.814   1.769   7.241 -0.8068 -0.1808 -2.3104
  187SAPI   H2Y21477   0.888   1.611   7.242 -0.2032 -0.3173 -1.1360
  187SAPI   C2321478   0.956   1.264   6.976  0.2628 -0.1683  0.6682
  187SAPI   H3R21479   1.003   1.333   7.049  0.9048  3.6815 -3.0249
  187SAPI   H3S21480   1.035   1.231   6.906 -1.7623  1.1157 -2.4735
  187SAPI   C2421481   0.901   1.136   7.043  0.4911  0.2954  0.5783
  187SAPI   H4R21482   0.795   1.163   7.064 -0.4284 -1.5724 -1.3199
  187SAPI   H4S21483   0.947   1.141   7.144  2.2022 -0.1356 -0.1453
  187SAPI   C2521484   0.922   1.012   6.957 -0.1604  0.9189  1.2226
  187SAPI   H5R21485   0.991   1.024   6.872 -1.3084 -0.4385  0.0511
  187SAPI   C2621486   0.856   0.895   6.968 -0.0078  0.2036 -0.5726
  187SAPI   H6R21487   0.887   0.805   6.913 -2.1595 -1.8864  1.3675
  187SAPI   C2721488   0.755   0.863   7.076 -0.3145 -0.3186 -0.0625
  187SAPI   H7R21489   0.661   0.820   7.036 -2.0958  0.2450  3.1485
  187SAPI   H7S21490   0.712   0.958   7.115  2.0218  0.2917  1.2202
  187SAPI   C2821491   0.819   0.787   7.193  0.0710  0.3344  0.1839
  187SAPI   H8R21492   0.858   0.856   7.269 -0.2554  1.0987 -0.3279
  187SAPI   C2921493   0.846   0.655   7.207  0.2033  1.0428 -0.0385
  187SAPI   H9R21494   0.896   0.619   7.299 -1.0109  0.3238  0.3630
  187SAPI  C21021495   0.806   0.538   7.112  0.4549 -0.1408 -0.6443
  187SAPI  H10R21496   0.826   0.568   7.007 -0.6777 -0.2865 -0.9187
  187SAPI  H10S21497   0.695   0.533   7.120  0.5623 -0.0455  1.4078
  187SAPI  C21121498   0.869   0.400   7.125 -0.2345 -1.1815 -0.1998
  187SAPI  H11R21499   0.945   0.371   7.051 -1.1191 -0.0176 -1.6390
  187SAPI  C21221500   0.830   0.324   7.230  0.5815 -0.1438 -0.0009
  187SAPI  H12R21501   0.870   0.222   7.233  1.5914  0.2634  0.5719
  187SAPI  C21321502   0.730   0.361   7.338 -0.0671  0.5706  0.1431
  187SAPI  H13R21503   0.753   0.465   7.369  1.0390 -0.6757  4.1509
  187SAPI  H13S21504   0.762   0.299   7.425 -0.7549  0.2909  0.2059
  187SAPI  C21421505   0.582   0.339   7.320  0.7568 -0.0543 -0.1797
  187SAPI  H14R21506   0.552   0.336   7.214 -0.8203  0.6370  0.2237
  187SAPI  C21521507   0.486   0.300   7.408 -0.1220 -0.0056  0.3985
  187SAPI  H15R21508   0.390   0.269   7.366  1.3225 -0.9531 -2.4588
  187SAPI  C21621509   0.515   0.294   7.556  0.9780  0.2027  0.1839
  187SAPI  H16R21510   0.558   0.391   7.587 -2.2851  2.2432 -1.1222
  187SAPI  H16S21511   0.586   0.214   7.586  0.3686  0.5204  2.7121
  187SAPI  C21721512   0.390   0.278   7.647  0.4770  0.8494 -0.7675
  187SAPI  H17R21513   0.345   0.177   7.634  0.6671 -0.0411  3.7273
  187SAPI  H17S21514   0.314   0.355   7.622 -0.9128  0.5789  2.1804
  187SAPI  C21821515   0.419   0.297   7.789  0.0060 -0.6400 -0.9750
  187SAPI  H18R21516   0.520   0.255   7.808  0.7519  0.4189 -2.4748
  187SAPI  H18S21517   0.351   0.228   7.844 -1.4117  0.1454 -1.6974
  187SAPI  C21921518   0.405   0.440   7.842 -0.0826  0.1162  0.0413
  187SAPI  H19R21519   0.388   0.512   7.759 -0.6791  0.4488  0.4525
  187SAPI  H19S21520   0.492   0.474   7.901  1.2167 -2.3540 -0.2747
  187SAPI  C22021521   0.289   0.449   7.942  0.6145  0.4411 -0.2992
  187SAPI  H20R21522   0.191   0.473   7.895  0.6049  0.6402 -0.1780
  187SAPI  H20S21523   0.311   0.525   8.020  0.9897  1.3398 -1.2655
  187SAPI  H20T21524   0.292   0.350   7.992  1.3078 -0.1872 -1.5332
  187SAPI   C3321525   0.714   1.644   7.376 -0.2045  0.2206 -0.0368
  187SAPI   H3X21526   0.642   1.559   7.370 -0.3285  0.1894  1.5523
  187SAPI   H3Y21527   0.655   1.733   7.406 -0.6260  0.4708 -1.5145
  187SAPI   C3421528   0.813   1.602   7.480  0.0883 -0.3012  0.3764
  187SAPI   H4X21529   0.904   1.666   7.479  1.3789 -1.9849 -2.0513
  187SAPI   H4Y21530   0.863   1.511   7.442 -1.7293 -1.0064 -0.4234
  187SAPI   C3521531   0.751   1.586   7.620 -0.8409  0.0240  0.3317
  187SAPI   H5X21532   0.671   1.509   7.617  2.0098 -3.1241 -0.4699
  187SAPI   H5Y21533   0.719   1.685   7.660  0.1121 -0.5390  2.6730
  187SAPI   C3621534   0.865   1.538   7.718  0.6378 -0.4802 -0.0348
  187SAPI   H6X21535   0.942   1.616   7.733 -1.0753  1.5186 -1.0268
  187SAPI   H6Y21536   0.911   1.449   7.670 -1.5388 -0.2656 -2.8084
  187SAPI   C3721537   0.813   1.515   7.864  0.2335 -0.5977 -0.9191
  187SAPI   H7X21538   0.759   1.608   7.892  2.1242  0.1073  0.6356
  187SAPI   H7Y21539   0.897   1.507   7.936 -1.9355 -1.2576  1.6983
  187SAPI   C3821540   0.724   1.394   7.883 -0.9172 -0.0794 -0.2317
  187SAPI   H8X21541   0.802   1.315   7.883  0.1051  0.8795  0.5723
  187SAPI   H8Y21542   0.661   1.386   7.792 -1.2735  1.1888 -0.1213
  187SAPI   C3921543   0.653   1.406   8.009  0.5209 -0.0328 -0.4953
  187SAPI   H9X21544   0.577   1.325   8.013  0.8760 -0.3231  0.7888
  187SAPI   H9Y21545   0.602   1.504   8.017 -0.8944 -0.8927  2.0201
  187SAPI  C31021546   0.744   1.385   8.134  0.1819  0.0353  0.1747
  187SAPI  H10X21547   0.850   1.400   8.101 -0.1504  2.4356 -0.0162
  187SAPI  H10Y21548   0.731   1.281   8.171  2.6097  0.1723  1.6393
  187SAPI  C31121549   0.728   1.482   8.248 -0.5809 -0.6452  0.5148
  187SAPI  H11X21550   0.622   1.484   8.284  0.0636 -0.4650  2.5161
  187SAPI  H11Y21551   0.753   1.584   8.214  1.7001 -1.4779 -0.5080
  187SAPI  C31221552   0.811   1.441   8.376  0.2696 -0.8336  0.2138
  187SAPI  H12X21553   0.911   1.484   8.355 -0.3123  1.0351  1.0800
  187SAPI  H12Y21554   0.804   1.330   8.384  1.7371 -1.1136 -1.6729
  187SAPI  C31321555   0.756   1.523   8.496  0.3362 -0.0554  0.2781
  187SAPI  H13X21556   0.779   1.630   8.480  0.5201 -0.0004  0.9052
  187SAPI  H13Y21557   0.819   1.487   8.580  1.4709 -2.0662 -1.3279
  187SAPI  C31421558   0.606   1.494   8.532  0.0970  0.1006  0.4624
  187SAPI  H14X21559   0.593   1.384   8.529 -1.5189  0.2907 -0.2961
  187SAPI  H14Y21560   0.541   1.539   8.454 -3.3003 -2.9196  1.2650
  187SAPI  C31521561   0.569   1.535   8.674 -0.5375  0.2729  0.3345
  187SAPI  H15X21562   0.459   1.548   8.673 -1.0228 -2.6073  2.3881
  187SAPI  H15Y21563   0.615   1.632   8.703  0.7489 -0.4567  0.8188
  187SAPI  C31621564   0.602   1.429   8.782 -0.4740  0.1311  0.7912
  187SAPI  H16X21565   0.711   1.427   8.801  0.0783 -0.0407 -1.9655
  187SAPI  H16Y21566   0.577   1.332   8.735 -3.1633  1.7933 -1.5573
  187SAPI  C31721567   0.511   1.444   8.900 -0.4342  0.9894  1.4152
  187SAPI  H17X21568   0.404   1.435   8.868 -0.0501  1.3173 -0.0561
  187SAPI  H17Y21569   0.510   1.550   8.933 -1.6814  1.2919  0.4903
  187SAPI  C31821570   0.525   1.344   9.018 -0.1389 -0.5246 -0.2115
  187SAPI  H18X21571   0.626   1.352   9.064  0.8729 -2.7254 -1.8810
  187SAPI  H18Y21572   0.503   1.240   8.987  1.0021 -0.4625 -1.3394
  187SAPI  H18Z21573   0.459   1.373   9.102  0.8026  2.4076 -0.3757
  188SAPI   C1221574   5.860   5.311   6.207 -0.0789  0.2973 -0.8565
  188SAPI    H221575   5.807   5.391   6.263  0.4759  0.8380 -1.0933
  188SAPI    O221576   5.817   5.188   6.252  0.1062  0.8317  0.1929
  188SAPI   HO221577   5.722   5.181   6.238  0.3527  1.1167 -1.8121
  188SAPI   C1321578   5.840   5.321   6.053 -0.0029 -0.5464  0.4781
  188SAPI    H321579   5.880   5.420   6.021 -3.2468  0.7818  0.1294
  188SAPI    O321580   5.704   5.316   6.021  0.5891 -0.2718 -0.8036
  188SAPI   HO321581   5.672   5.243   6.074  2.0538  0.5108  1.2837
  188SAPI   C1421582   5.920   5.226   5.964 -0.1949 -0.1840 -0.2530
  188SAPI    H421583   5.885   5.125   5.992 -1.4889  0.4298  0.4229
  188SAPI    O421584   5.899   5.239   5.829 -0.9258 -0.2411  0.1337
  188SAPI   HO421585   5.934   5.328   5.814 -1.6625  0.7147  3.2424
  188SAPI   C1521586   6.067   5.247   5.998 -0.1868 -0.0949  0.6861
  188SAPI    H521587   6.094   5.351   5.970 -0.7380 -0.0816  0.1936
  188SAPI    O521588   6.155   5.170   5.920 -0.0277 -0.4154  0.2882
  188SAPI   HO521589   6.162   5.222   5.840  0.0825 -0.7513  0.0764
  188SAPI   C1621590   6.095   5.233   6.148  0.5017 -0.9270 -0.0925
  188SAPI    H621591   6.081   5.125   6.174 -0.9701 -0.6256  0.4692
  188SAPI    O621592   6.229   5.252   6.174  0.1437  0.4952  0.5748
  188SAPI   HO621593   6.233   5.253   6.270 -0.1693  0.5299  0.5869
  188SAPI   C1121594   6.009   5.327   6.233 -0.1146  0.2401 -0.3766
  188SAPI    H121595   6.032   5.432   6.206  0.3495  0.0379 -0.7703
  188SAPI     P21596   6.023   5.417   6.488 -0.0585  0.8005 -0.2596
  188SAPI   O1321597   5.939   5.525   6.434  0.0909 -0.3890  0.4769
  188SAPI   O1421598   6.148   5.453   6.549  0.1007  0.2520 -0.6183
  188SAPI   O1221599   6.048   5.309   6.370 -0.2125  0.2883 -0.0517
  188SAPI   O1121600   5.943   5.334   6.602 -0.0583  0.1182  0.3686
  188SAPI    C121601   5.825   5.263   6.591 -0.5624  1.1021  0.1705
  188SAPI    HA21602   5.780   5.274   6.491 -0.9908  1.2276  0.3770
  188SAPI    HB21603   5.852   5.155   6.588 -1.7722  0.7957  0.0439
  188SAPI    C221604   5.715   5.292   6.701  0.1643  0.4678  0.1851
  188SAPI    HS21605   5.694   5.399   6.682 -0.6146  0.4023  0.6610
  188SAPI   O2121606   5.767   5.278   6.840 -0.9602  0.1069  0.1857
  188SAPI   C2121607   5.695   5.342   6.927 -0.6804 -0.3816  0.1036
  188SAPI   O2221608   5.594   5.407   6.904  0.4892 -0.3052  0.0918
  188SAPI   C2221609   5.751   5.318   7.059 -0.9153 -0.0348  0.4612
  188SAPI   H2R21610   5.788   5.215   7.042 -1.1791  0.2640 -2.3458
  188SAPI   H2S21611   5.835   5.389   7.069  0.1184 -1.0027 -1.0470
  188SAPI    C321612   5.588   5.218   6.682  0.1883  0.4660 -0.2797
  188SAPI    HX21613   5.540   5.231   6.582 -0.8247 -0.2226  0.0873
  188SAPI    HY21614   5.509   5.245   6.756 -0.7561  0.1940 -1.1572
  188SAPI   O3121615   5.616   5.078   6.709  0.1797  0.1793 -0.2002
  188SAPI   C3121616   5.554   5.013   6.813  0.2819 -0.6320  0.3363
  188SAPI   O3221617   5.445   5.038   6.861  0.1784 -0.2598  0.0712
  188SAPI   C3221618   5.648   4.911   6.871  0.3137  0.5176  0.0692
  188SAPI   H2X21619   5.712   4.981   6.930 -2.0445  2.7530  0.1792
  188SAPI   H2Y21620   5.704   4.868   6.786 -0.6492 -0.8692  0.0904
  188SAPI   C2321621   5.663   5.333   7.186  0.3952  0.1195 -0.4699
  188SAPI   H3R21622   5.618   5.433   7.202  1.9145  0.3458  3.3435
  188SAPI   H3S21623   5.732   5.327   7.272 -2.7512 -0.5950  2.2217
  188SAPI   C2421624   5.549   5.225   7.193 -0.0420  0.3238 -0.8635
  188SAPI   H4R21625   5.487   5.231   7.100 -0.3402 -0.7177 -0.7423
  188SAPI   H4S21626   5.486   5.251   7.281  0.2908  0.0374 -0.5399
  188SAPI   C2521627   5.598   5.082   7.213  0.1054 -0.0593 -0.2012
  188SAPI   H5R21628   5.613   5.030   7.118  0.0882 -0.4233 -0.0053
  188SAPI   C2621629   5.646   5.036   7.327  0.2665 -0.5219  0.2980
  188SAPI   H6R21630   5.666   4.928   7.326 -0.1553 -0.6219 -1.7749
  188SAPI   C2721631   5.659   5.117   7.449 -0.8111 -0.0074  0.0249
  188SAPI   H7R21632   5.568   5.178   7.465 -0.1241  0.5432  2.2298
  188SAPI   H7S21633   5.744   5.186   7.437 -0.6082 -0.2811 -0.1234
  188SAPI   C2821634   5.682   5.014   7.563 -0.3113  0.2525 -0.0219
  188SAPI   H8R21635   5.615   4.928   7.557 -2.1879  1.7073 -0.8391
  188SAPI   C2921636   5.752   5.028   7.675 -0.1042 -0.2676 -1.2253
  188SAPI   H9R21637   5.753   4.947   7.749  1.5734  0.5561 -0.2861
  188SAPI  C21021638   5.839   5.148   7.717  0.2969 -0.0222  0.3426
  188SAPI  H10R21639   5.883   5.197   7.627  0.2278 -0.5982 -0.0121
  188SAPI  H10S21640   5.928   5.113   7.775  1.5259  0.4225 -1.2074
  188SAPI  C21121641   5.744   5.244   7.797 -0.5353 -0.0263 -0.7810
  188SAPI  H11R21642   5.668   5.301   7.741 -1.5785 -2.1182 -1.6077
  188SAPI  C21221643   5.751   5.248   7.932  0.3440  0.5090 -0.1740
  188SAPI  H12R21644   5.669   5.301   7.983  1.0172  1.1419  0.2731
  188SAPI  C21321645   5.847   5.179   8.020  0.2498  1.1508  0.3434
  188SAPI  H13R21646   5.893   5.087   7.977 -2.3157  0.4253 -1.0559
  188SAPI  H13S21647   5.795   5.149   8.114 -0.7212  0.0239 -0.5240
  188SAPI  C21421648   5.968   5.274   8.049 -0.0217  0.2479 -0.3365
  188SAPI  H14R21649   5.982   5.370   7.996  1.2305  0.0013 -0.4735
  188SAPI  C21521650   6.070   5.241   8.131  0.3317  0.3553  0.1995
  188SAPI  H15R21651   6.157   5.309   8.137  0.8702 -0.3720  0.6673
  188SAPI  C21621652   6.081   5.113   8.198  0.0380 -0.4388 -0.5742
  188SAPI  H16R21653   6.185   5.085   8.228 -0.0094  0.5155  0.5421
  188SAPI  H16S21654   6.039   5.033   8.133 -1.8738 -0.2815  0.3850
  188SAPI  C21721655   6.009   5.110   8.335  0.3408  0.3395 -0.2395
  188SAPI  H17R21656   5.919   5.176   8.336  0.3023  0.3159 -1.1223
  188SAPI  H17S21657   6.078   5.146   8.415 -1.2015  2.0174  0.4220
  188SAPI  C21821658   5.960   4.966   8.366  0.0544 -0.2821  0.0158
  188SAPI  H18R21659   6.051   4.904   8.350  0.7878  0.6655  0.4454
  188SAPI  H18S21660   5.880   4.918   8.306  1.3447 -3.1335  0.4179
  188SAPI  C21921661   5.928   4.930   8.515 -0.3826  0.4569 -0.1609
  188SAPI  H19R21662   5.834   4.986   8.532 -1.1480 -0.0998 -2.2737
  188SAPI  H19S21663   6.008   4.967   8.582  1.2042 -3.6309  0.4745
  188SAPI  C22021664   5.912   4.775   8.536 -0.5079 -0.5193  0.1379
  188SAPI  H20R21665   5.992   4.730   8.473 -0.7981  0.4967 -0.9848
  188SAPI  H20S21666   5.810   4.743   8.505 -0.0508 -0.5842 -1.3881
  188SAPI  H20T21667   5.917   4.753   8.644  0.8750 -2.2161 -0.2168
  188SAPI   C3321668   5.582   4.803   6.963  0.1540 -0.2083  0.0081
  188SAPI   H3X21669   5.501   4.759   6.901  1.4007 -3.2735  0.3607
  188SAPI   H3Y21670   5.547   4.855   7.055  1.8300  2.3724 -0.7161
  188SAPI   C3421671   5.665   4.676   6.995 -0.0725 -0.0496  0.6030
  188SAPI   H4X21672   5.766   4.696   7.036  0.8870 -0.9472 -1.2364
  188SAPI   H4Y21673   5.698   4.642   6.895 -0.7034  2.2919 -0.4602
  188SAPI   C3521674   5.587   4.561   7.066 -0.2505  0.0281  0.3269
  188SAPI   H5X21675   5.658   4.476   7.067  3.3191  2.7500  1.8882
  188SAPI   H5Y21676   5.508   4.527   6.995  0.7769  0.3722 -1.0079
  188SAPI   C3621677   5.520   4.588   7.196  0.3113  0.4345 -0.6735
  188SAPI   H6X21678   5.457   4.500   7.219  1.0502 -0.0740 -0.5626
  188SAPI   H6Y21679   5.451   4.674   7.182 -0.9720 -0.6694 -1.2736
  188SAPI   C3721680   5.629   4.606   7.306  0.7111 -0.5041 -0.4554
  188SAPI   H7X21681   5.676   4.706   7.293 -0.3970  0.2648  1.2030
  188SAPI   H7Y21682   5.703   4.524   7.294  0.1944 -0.7119 -2.6858
  188SAPI   C3821683   5.562   4.594   7.436 -0.6749 -0.0920 -0.9419
  188SAPI   H8X21684   5.500   4.502   7.447  0.9460 -1.4253 -2.3208
  188SAPI   H8Y21685   5.499   4.684   7.455  0.5833  1.2882 -2.9063
  188SAPI   C3921686   5.673   4.599   7.549  0.1073  0.9170  0.2176
  188SAPI   H9X21687   5.738   4.687   7.535  0.1072  0.6256 -1.9425
  188SAPI   H9Y21688   5.738   4.509   7.542 -2.7427 -1.3677  0.8644
  188SAPI  C31021689   5.608   4.587   7.690  0.3388 -0.5431 -0.0760
  188SAPI  H10X21690   5.550   4.492   7.695  0.8207 -0.7617  3.1272
  188SAPI  H10Y21691   5.537   4.672   7.703 -0.0193 -1.1587  2.6372
  188SAPI  C31121692   5.720   4.588   7.797 -0.0923 -0.6132 -0.1180
  188SAPI  H11X21693   5.765   4.689   7.802 -0.6910 -0.4129  2.2471
  188SAPI  H11Y21694   5.797   4.519   7.757  1.1255  1.1447 -0.9255
  188SAPI  C31221695   5.683   4.537   7.938  1.1506 -0.5890 -0.7524
  188SAPI  H12X21696   5.647   4.432   7.930  0.1959 -0.5733  2.0973
  188SAPI  H12Y21697   5.596   4.601   7.964  1.3277 -0.4824 -0.4096
  188SAPI  C31321698   5.797   4.544   8.041 -0.3490  0.6609  0.1571
  188SAPI  H13X21699   5.754   4.506   8.137  0.4687  1.0210  0.6804
  188SAPI  H13Y21700   5.817   4.651   8.059 -0.1463  0.6375  0.0628
  188SAPI  C31421701   5.935   4.482   7.997  0.1529  0.1724  1.1574
  188SAPI  H14X21702   5.947   4.494   7.887  2.7022 -0.6082  1.2842
  188SAPI  H14Y21703   5.916   4.373   8.009 -2.0770  0.1641 -1.5194
  188SAPI  C31521704   6.057   4.530   8.077 -0.5734 -0.1376  0.3156
  188SAPI  H15X21705   6.045   4.507   8.185 -0.9626  0.1602  0.3360
  188SAPI  H15Y21706   6.060   4.640   8.065  2.4398 -0.0661  0.9264
  188SAPI  C31621707   6.193   4.466   8.032 -0.2991  0.2861  0.0203
  188SAPI  H16X21708   6.280   4.533   8.047 -0.5505  0.2365  2.0470
  188SAPI  H16Y21709   6.177   4.454   7.923  0.6905  1.9422 -0.3394
  188SAPI  C31721710   6.212   4.329   8.100 -0.2293 -0.4033  0.4062
  188SAPI  H17X21711   6.136   4.253   8.074 -1.7196  0.5072  1.8903
  188SAPI  H17Y21712   6.209   4.344   8.210  2.5045  0.8775  0.3937
  188SAPI  C31821713   6.352   4.261   8.071  0.3905 -0.6600  0.7384
  188SAPI  H18X21714   6.362   4.237   7.962  1.2954 -0.3240  0.7315
  188SAPI  H18Y21715   6.364   4.159   8.113 -0.7874 -1.1217 -0.0226
  188SAPI  H18Z21716   6.439   4.326   8.097  0.5824 -1.1521  1.3588
  189POPC     N21717   4.041   4.520  10.777  0.1647  0.1983  0.6613
  189POPC   C1221718   4.054   4.662  10.721  0.3764 -0.0173  0.8668
  189POPC  H12A21719   3.998   4.726  10.787 -0.7232  0.3219 -0.3533
  189POPC  H12B21720   4.000   4.670  10.628  1.4162 -0.5324  0.2013
  189POPC   C1321721   3.906   4.469  10.755 -0.0323 -0.3082  0.0084
  189POPC  H13A21722   3.897   4.369  10.793  0.9706 -0.5693 -0.4066
  189POPC  H13B21723   3.829   4.531  10.798 -0.7052  0.0865 -1.6886
  189POPC  H13C21724   3.878   4.467  10.651 -0.0953 -0.7039  0.0319
  189POPC   C1421725   4.136   4.425  10.705 -0.0486  0.7355  0.4255
  189POPC  H14A21726   4.239   4.455  10.717 -0.0349  0.1086  2.2409
  189POPC  H14B21727   4.131   4.319  10.727  1.8888  0.4007 -0.5297
  189POPC  H14C21728   4.128   4.431  10.598  1.0792  0.4534  0.3093
  189POPC   C1521729   4.069   4.523  10.922 -0.5831  0.4348 -0.4356
  189POPC  H15A21730   4.056   4.424  10.963 -0.4919  1.0250  1.0723
  189POPC  H15B21731   4.007   4.595  10.973  1.3041  1.1395  0.9902
  189POPC  H15C21732   4.172   4.549  10.938 -0.0383 -1.0604 -1.2385
  189POPC   C1121733   4.196   4.716  10.699 -0.3600 -0.7936 -0.1533
  189POPC  H11A21734   4.179   4.815  10.652  0.8836 -1.0953 -1.2784
  189POPC  H11B21735   4.256   4.658  10.626  0.7669 -0.1620  0.2493
  189POPC     P21736   4.420   4.723  10.845  0.3728 -0.0154 -0.1006
  189POPC   O1321737   4.456   4.578  10.881  0.1562  0.0699  0.6446
  189POPC   O1421738   4.459   4.833  10.940  0.2885  0.0950  0.1250
  189POPC   O1221739   4.267   4.736  10.823 -0.4817 -0.2118  0.5203
  189POPC   O1121740   4.479   4.766  10.698 -0.1995  0.0295 -0.5138
  189POPC    C121741   4.526   4.904  10.682  0.3173  0.6389  0.0590
  189POPC    HA21742   4.623   4.922  10.733  0.0853  1.1219  0.3412
  189POPC    HB21743   4.449   4.974  10.722 -2.3705 -1.7846 -0.4867
  189POPC    C221744   4.536   4.941  10.537  0.0609  0.1242 -0.3913
  189POPC    HS21745   4.628   5.000  10.522  0.7582 -0.6185  0.7821
  189POPC   O2121746   4.420   5.018  10.493 -0.1486  0.0562  0.2665
  189POPC   C2121747   4.446   5.138  10.441 -1.3074 -0.2310  0.1264
  189POPC   O2221748   4.558   5.184  10.434  0.6097 -0.1569 -0.0244
  189POPC   C2221749   4.318   5.204  10.400 -0.5547 -0.0313 -0.0667
  189POPC   H2R21750   4.271   5.253  10.488 -0.7943 -0.6494  0.1525
  189POPC   H2S21751   4.251   5.124  10.361 -0.8796  0.5825 -0.7964
  189POPC    C321752   4.540   4.817  10.444  0.1977 -0.3841  0.2640
  189POPC    HX21753   4.433   4.785  10.439  0.7591 -2.1230 -2.7355
  189POPC    HY21754   4.615   4.742  10.477  1.1757  0.5696  0.2701
  189POPC   O3121755   4.569   4.861  10.311  0.2649 -0.2220 -0.0508
  189POPC   C3121756   4.685   4.910  10.287  0.1639 -0.1318  0.1962
  189POPC   O3221757   4.780   4.911  10.362  0.6865 -0.2192 -0.4119
  189POPC   C3221758   4.674   4.968  10.144  0.2425  0.1148 -0.1040
  189POPC   H2X21759   4.613   5.060  10.146  0.0152 -0.0394  0.9464
  189POPC   H2Y21760   4.629   4.895  10.073  0.1676  0.2680 -0.2164
  189POPC   C2321761   4.331   5.316  10.292  0.3216 -0.6737 -0.4817
  189POPC   H3R21762   4.407   5.390  10.326 -0.9602  0.2686  0.4872
  189POPC   H3S21763   4.234   5.371  10.287  0.5287  0.1860  2.8549
  189POPC   C2421764   4.363   5.258  10.154  0.0833  0.9273  0.4458
  189POPC   H4R21765   4.267   5.216  10.116  0.7925  0.1696 -0.5453
  189POPC   H4S21766   4.438   5.177  10.161 -1.6395 -0.6732  1.4097
  189POPC   C2521767   4.407   5.361  10.052 -0.1108 -0.7273  0.9056
  189POPC   H5R21768   4.486   5.426  10.094 -0.8666 -0.0189  1.2651
  189POPC   H5S21769   4.331   5.439  10.029  0.5834 -0.8657 -2.2699
  189POPC   C2621770   4.453   5.304   9.916 -0.0305 -0.1564 -0.0119
  189POPC   H6R21771   4.379   5.229   9.883  2.6603 -2.4582 -1.2796
  189POPC   H6S21772   4.544   5.241   9.931  0.6590  0.8898  0.3472
  189POPC   C2721773   4.481   5.421   9.821 -0.0598 -0.1625  0.2227
  189POPC   H7R21774   4.567   5.481   9.858 -0.1583 -0.7387  1.4445
  189POPC   H7S21775   4.400   5.496   9.814 -0.5087 -0.2614  3.2623
  189POPC   C2821776   4.496   5.373   9.671  0.2057 -0.1621 -0.2113
  189POPC   H8R21777   4.483   5.468   9.614  0.9024 -0.3310 -0.6752
  189POPC   H8S21778   4.411   5.307   9.646  0.3895  0.3127 -2.2718
  189POPC   C2921779   4.629   5.310   9.639  0.2084  0.5304 -0.3533
  189POPC   H9121780   4.707   5.329   9.715 -0.0675 -1.7974  0.5801
  189POPC  C21021781   4.655   5.256   9.521  0.0509 -0.4273  0.1884
  189POPC  H10121782   4.755   5.209   9.509 -0.8694 -3.4101  2.7480
  189POPC  C21121783   4.558   5.247   9.400 -0.6762 -0.2717 -0.0451
  189POPC  H11R21784   4.456   5.248   9.444  0.7264 -2.4837  3.7216
  189POPC  H11S21785   4.563   5.146   9.354 -3.8428 -0.3531 -0.4120
  189POPC  C21221786   4.589   5.352   9.295  0.5352  0.0059  0.1193
  189POPC  H12R21787   4.688   5.323   9.254  2.1938  1.2807  2.9123
  189POPC  H12S21788   4.595   5.451   9.345 -0.8836 -0.3284  1.0267
  189POPC  C21321789   4.474   5.347   9.192  0.0365 -0.6547  0.4057
  189POPC  H13R21790   4.376   5.367   9.242  1.5476 -0.5929  3.5984
  189POPC  H13S21791   4.466   5.248   9.144 -1.1976 -1.2875  1.8296
  189POPC  C21421792   4.503   5.453   9.079 -0.0277  0.5150 -0.4728
  189POPC  H14R21793   4.530   5.548   9.131  0.4721  0.6684 -1.0057
  189POPC  H14S21794   4.412   5.469   9.018  0.1135  1.1955 -0.5234
  189POPC  C21521795   4.610   5.410   8.971  0.2387 -0.0239 -0.5382
  189POPC  H15R21796   4.711   5.400   9.015 -0.7287 -3.3911  1.3109
  189POPC  H15S21797   4.621   5.492   8.896  1.6326  0.4715  0.1773
  189POPC  C21621798   4.589   5.275   8.905  0.6930 -0.0359  0.1166
  189POPC  H16R21799   4.481   5.275   8.879  0.2630 -0.6968  1.7666
  189POPC  H16S21800   4.618   5.188   8.969  0.3477 -1.4784 -1.6199
  189POPC  C21721801   4.671   5.252   8.769  0.4589  0.3835  0.0618
  189POPC  H17R21802   4.648   5.145   8.756 -0.9226  0.3268  2.3632
  189POPC  H17S21803   4.779   5.270   8.792  0.2219 -0.3159  1.8747
  189POPC  C21821804   4.628   5.318   8.641 -0.4683 -0.5194 -0.2418
  189POPC  H18R21805   4.699   5.294   8.558  1.5630 -2.0029  1.8068
  189POPC  H18S21806   4.630   5.429   8.635  0.4656 -0.5704 -1.4652
  189POPC  H18T21807   4.526   5.285   8.612  0.4516 -2.3874 -1.5253
  189POPC   C3321808   4.819   5.000  10.101  0.0109  0.1865  0.2681
  189POPC   H3X21809   4.885   4.911  10.111  1.0407  0.8131 -0.6177
  189POPC   H3Y21810   4.859   5.079  10.168 -1.3030  1.7918 -0.7581
  189POPC   C3421811   4.815   5.052   9.956  0.3326  0.7262 -0.1165
  189POPC   H4X21812   4.924   5.058   9.938  0.6914 -0.0310  1.5980
  189POPC   H4Y21813   4.764   5.149   9.934  0.6905  0.4813 -2.2570
  189POPC   C3521814   4.762   4.934   9.861  0.0475  0.1498 -0.8087
  189POPC   H5X21815   4.652   4.932   9.874  0.4008 -1.6514  3.3703
  189POPC   H5Y21816   4.804   4.837   9.894  1.8300  0.5647 -1.6963
  189POPC   C3621817   4.788   4.954   9.713  0.0982  0.1689  0.5778
  189POPC   H6X21818   4.898   4.961   9.696 -0.2115  2.2075 -1.0119
  189POPC   H6Y21819   4.750   5.054   9.682 -3.2266 -0.1806  2.9523
  189POPC   C3721820   4.717   4.854   9.618  0.3831  0.3815  0.3301
  189POPC   H7X21821   4.610   4.847   9.648 -0.0996  2.6747 -0.6547
  189POPC   H7Y21822   4.754   4.750   9.636 -1.0454  0.0088  1.2801
  189POPC   C3821823   4.740   4.896   9.466  0.0391 -0.5997 -1.0963
  189POPC   H8X21824   4.843   4.938   9.459  0.5604 -1.1166  1.9847
  189POPC   H8Y21825   4.669   4.978   9.444  1.2250  1.2509  1.4764
  189POPC   C3921826   4.714   4.775   9.378  0.5622 -0.2946 -0.4847
  189POPC   H9X21827   4.620   4.719   9.400  1.1087 -0.9196  0.3197
  189POPC   H9Y21828   4.799   4.704   9.389  2.2185  1.2968 -2.1872
  189POPC  C31021829   4.685   4.808   9.224 -0.9598  0.1351 -0.1022
  189POPC  H10X21830   4.594   4.870   9.212  0.1797  2.5045  2.5640
  189POPC  H10Y21831   4.667   4.712   9.171 -1.4830 -0.3770  0.9759
  189POPC  C31121832   4.805   4.872   9.156 -0.2768 -0.4489 -0.5460
  189POPC  H11X21833   4.791   4.839   9.051 -2.1499 -2.1537  0.1840
  189POPC  H11Y21834   4.897   4.833   9.206 -0.3518 -0.0841 -0.1149
  189POPC  C31221835   4.783   5.022   9.152 -0.3257 -0.5082  0.5670
  189POPC  H12X21836   4.798   5.074   9.249 -0.1871  0.7640 -0.1032
  189POPC  H12Y21837   4.680   5.057   9.129  0.1590  0.6934  0.1166
  189POPC  C31321838   4.870   5.085   9.049  0.2058  0.0700  0.5487
  189POPC  H13X21839   4.854   5.195   9.042  1.7368  0.3908  1.5954
  189POPC  H13Y21840   4.842   5.049   8.948 -0.2933  2.8197 -0.3785
  189POPC  C31421841   5.020   5.083   9.085 -0.5632  0.7679 -0.1736
  189POPC  H14X21842   5.051   4.983   9.124 -2.0286  0.2409 -0.2951
  189POPC  H14Y21843   5.044   5.159   9.161  1.5256  0.1353 -0.1429
  189POPC  C31521844   5.107   5.121   8.963 -0.2515  0.2039  0.3986
  189POPC  H15X21845   5.086   5.225   8.931 -0.1401  0.1290  0.0669
  189POPC  H15Y21846   5.062   5.062   8.880  0.6023  0.4110 -0.2370
  189POPC  C31621847   5.255   5.081   8.969  0.4241 -0.4538  0.2024
  189POPC  H16X21848   5.309   5.138   9.047  0.6964 -0.3401 -0.0663
  189POPC  H16Y21849   5.303   5.116   8.874  2.9251 -1.9093  0.8324
  189POPC  H16Z21850   5.264   4.972   8.985  2.6577 -0.5906 -1.4247
  190POPC     N21851   0.663   1.584  11.478  0.1676  0.1061 -0.1618
  190POPC   C1221852   0.693   1.679  11.360  0.2911 -0.2129  0.2055
  190POPC  H12A21853   0.782   1.738  11.372 -0.3836  1.1277 -1.0320
  190POPC  H12B21854   0.609   1.747  11.358 -0.2268 -0.8575 -0.2984
  190POPC   C1321855   0.775   1.494  11.523 -0.1038  0.1561  0.2023
  190POPC  H13A21856   0.805   1.420  11.451 -0.5541  1.5750 -1.4896
  190POPC  H13B21857   0.848   1.567  11.554 -0.4647  0.1876  1.0286
  190POPC  H13C21858   0.746   1.437  11.610  1.5654 -1.7750 -0.4397
  190POPC   C1421859   0.637   1.684  11.594  0.1629 -0.0710  0.7499
  190POPC  H14A21860   0.601   1.631  11.681 -2.6009 -3.0975 -1.9649
  190POPC  H14B21861   0.733   1.732  11.609  0.4762 -0.0413 -1.0747
  190POPC  H14C21862   0.566   1.756  11.557  1.1419  0.1609 -0.7696
  190POPC   C1521863   0.539   1.510  11.448  0.0317  0.0030  0.6474
  190POPC  H15A21864   0.460   1.570  11.405 -0.1606  0.3579  1.4583
  190POPC  H15B21865   0.491   1.459  11.531 -0.8239  1.5172  1.1441
  190POPC  H15C21866   0.565   1.432  11.378 -3.7113 -1.6560  0.8416
  190POPC   C1121867   0.713   1.609  11.225  0.1828  0.5601 -0.2300
  190POPC  H11A21868   0.736   1.693  11.156  3.2565  0.5245  0.6059
  190POPC  H11B21869   0.624   1.556  11.185  0.1149 -0.0083  0.6552
  190POPC     P21870   0.975   1.578  11.190  0.0086  0.3300  0.0539
  190POPC   O1321871   1.078   1.488  11.242 -0.0853  0.0764  0.0772
  190POPC   O1421872   0.998   1.715  11.230  0.1398 -0.2890  0.0901
  190POPC   O1221873   0.827   1.522  11.234 -0.3456  0.3514  0.3384
  190POPC   O1121874   0.968   1.571  11.030  0.4146  0.0713 -0.2545
  190POPC    C121875   0.884   1.460  10.976  0.5009 -0.2628 -0.4011
  190POPC    HA21876   0.820   1.496  10.893 -0.7560  2.7707  1.7257
  190POPC    HB21877   0.804   1.423  11.043  2.0420 -1.5568  0.8250
  190POPC    C221878   0.964   1.331  10.928 -0.0694  0.6567  0.8530
  190POPC    HS21879   1.016   1.280  11.013  1.5132 -1.2406 -1.1413
  190POPC   O2121880   1.058   1.376  10.825  0.5555  0.0484  0.0581
  190POPC   C2121881   1.181   1.326  10.841  0.1776  0.8596 -0.4391
  190POPC   O2221882   1.227   1.261  10.932 -0.4524  0.4740  0.3110
  190POPC   C2221883   1.255   1.348  10.712 -0.1385  0.9879  0.0705
  190POPC   H2R21884   1.314   1.441  10.730  0.1200  1.2478 -1.8504
  190POPC   H2S21885   1.187   1.364  10.625 -0.1368 -0.3141 -0.1977
  190POPC    C321886   0.871   1.222  10.873  0.1476 -0.4074  0.0727
  190POPC    HX21887   0.817   1.280  10.795  0.2850  0.1897  0.4108
  190POPC    HY21888   0.785   1.194  10.938 -2.4152 -1.0530 -3.3035
  190POPC   O3121889   0.949   1.125  10.807 -0.5291  0.2962  0.1830
  190POPC   C3121890   0.884   1.014  10.785 -0.0217  0.3844  0.4765
  190POPC   O3221891   0.770   0.993  10.821  0.6512 -0.2428 -0.0625
  190POPC   C3221892   0.961   0.924  10.692 -0.4232  0.8048  0.7816
  190POPC   H2X21893   1.028   0.860  10.753 -1.5230 -0.6552  0.5041
  190POPC   H2Y21894   1.028   0.987  10.629  1.8489 -1.0296  1.2261
  190POPC   C2321895   1.349   1.238  10.672 -0.5421 -0.0015  0.0981
  190POPC   H3R21896   1.290   1.144  10.668  1.3348 -1.3491  1.9972
  190POPC   H3S21897   1.432   1.233  10.745 -1.3553 -0.2469  1.0219
  190POPC   C2421898   1.402   1.268  10.527 -0.6388 -0.5338 -0.9828
  190POPC   H4R21899   1.434   1.375  10.530  0.1065 -0.7380  1.7701
  190POPC   H4S21900   1.315   1.255  10.459 -0.7092 -0.6733 -0.8654
  190POPC   C2521901   1.495   1.155  10.485 -0.0520 -0.2221 -0.3259
  190POPC   H5R21902   1.446   1.061  10.519 -0.8036  1.0221  2.3339
  190POPC   H5S21903   1.582   1.162  10.554 -0.6103 -2.1392  0.6352
  190POPC   C2621904   1.532   1.158  10.343  0.3614  0.0021  0.1397
  190POPC   H6R21905   1.448   1.203  10.286 -1.7240 -2.1770  1.2523
  190POPC   H6S21906   1.546   1.053  10.308  0.3522  0.2186 -0.5190
  190POPC   C2721907   1.660   1.241  10.305 -0.2906  0.5499 -0.1090
  190POPC   H7R21908   1.738   1.196  10.371 -0.6467  1.2542  0.8046
  190POPC   H7S21909   1.643   1.349  10.324  1.4842  0.5534  1.8971
  190POPC   C2821910   1.702   1.222  10.157  0.1937  0.2666 -0.3640
  190POPC   H8R21911   1.612   1.248  10.098 -0.7597  0.3105  1.0436
  190POPC   H8S21912   1.739   1.117  10.147  0.3168  0.3556 -0.8543
  190POPC   C2921913   1.812   1.320  10.132 -0.1752  0.5694 -0.7156
  190POPC   H9121914   1.876   1.327  10.221 -1.0337 -1.4767  0.1238
  190POPC  C21021915   1.844   1.387  10.022 -0.3989  0.4053 -0.1535
  190POPC  H10121916   1.938   1.445  10.017  0.4836 -0.9806 -0.1049
  190POPC  C21121917   1.773   1.381   9.886  0.6381  0.6516  0.4784
  190POPC  H11R21918   1.700   1.463   9.871 -0.9810 -0.8791 -0.4214
  190POPC  H11S21919   1.708   1.291   9.880  0.8583  0.4065  1.4823
  190POPC  C21221920   1.874   1.365   9.772 -0.6949 -0.1908  0.2847
  190POPC  H12R21921   1.969   1.319   9.808  1.3228  1.0808 -2.9327
  190POPC  H12S21922   1.908   1.466   9.740 -2.8707 -0.0923 -1.9643
  190POPC  C21321923   1.818   1.279   9.654 -0.3390 -0.9056  0.0009
  190POPC  H13R21924   1.734   1.335   9.607 -0.9789 -1.0818  0.9060
  190POPC  H13S21925   1.759   1.193   9.692 -0.7023 -0.0372  1.4571
  190POPC  C21421926   1.938   1.254   9.566 -0.1084 -0.0832 -0.8359
  190POPC  H14R21927   2.012   1.187   9.615  0.2918  1.0670  0.1605
  190POPC  H14S21928   1.987   1.353   9.558  0.6513 -0.2294  1.3590
  190POPC  C21521929   1.891   1.196   9.429 -0.1154 -0.5416  0.7264
  190POPC  H15R21930   1.796   1.241   9.394  0.0493 -0.1896  0.7259
  190POPC  H15S21931   1.872   1.088   9.449 -0.3357 -0.1999  2.5686
  190POPC  C21621932   1.994   1.207   9.310  0.3012 -0.4311  0.3397
  190POPC  H16R21933   2.074   1.131   9.322  1.5402  0.8334  0.3003
  190POPC  H16S21934   2.047   1.303   9.324  0.1515 -0.2309 -0.4188
  190POPC  C21721935   1.936   1.203   9.171  1.2025 -0.4000 -0.1211
  190POPC  H17R21936   1.870   1.291   9.152 -1.1651 -1.7077  1.5168
  190POPC  H17S21937   1.866   1.118   9.159 -1.6689  1.7909 -0.0651
  190POPC  C21821938   2.031   1.181   9.054 -0.3105  0.6457  0.2895
  190POPC  H18R21939   1.982   1.152   8.958  0.1590  1.4140 -0.1947
  190POPC  H18S21940   2.089   1.090   9.079 -0.1485  0.4946 -0.6097
  190POPC  H18T21941   2.093   1.272   9.037 -0.4246  0.4924 -1.0707
  190POPC   C3321942   0.866   0.827  10.617 -0.3692  0.0950 -0.4742
  190POPC   H3X21943   0.773   0.878  10.584 -2.5876 -3.7874 -0.8536
  190POPC   H3Y21944   0.822   0.755  10.690 -2.2029  1.5593 -0.0528
  190POPC   C3421945   0.928   0.757  10.501  0.2816  0.2706  0.2578
  190POPC   H4X21946   0.860   0.674  10.470  1.0902  0.2782 -1.6855
  190POPC   H4Y21947   1.021   0.711  10.541 -0.9475 -0.8696  1.9376
  190POPC   C3521948   0.955   0.843  10.380 -0.4895  0.1944  0.0458
  190POPC   H5X21949   1.043   0.909  10.393 -0.0250  0.0861 -2.1494
  190POPC   H5Y21950   0.867   0.911  10.379 -0.3225  0.4329  1.0495
  190POPC   C3621951   0.975   0.764  10.248  0.7379 -0.3632 -0.1049
  190POPC   H6X21952   0.873   0.722  10.237 -0.3650  2.5232 -2.2771
  190POPC   H6Y21953   1.052   0.686  10.261  2.0966  0.4062 -2.7153
  190POPC   C3721954   1.000   0.854  10.123 -0.9264  0.3431  0.1014
  190POPC   H7X21955   1.094   0.913  10.129 -0.4608 -0.0597 -2.3716
  190POPC   H7Y21956   0.920   0.930  10.137 -0.3446  0.4594  4.2452
  190POPC   C3821957   0.994   0.768  10.007 -0.4396 -0.7203 -0.4169
  190POPC   H8X21958   0.909   0.696  10.016  0.6667 -1.9570  0.4227
  190POPC   H8Y21959   1.080   0.698  10.009  1.3756  1.4472  0.6604
  190POPC   C3921960   0.994   0.840   9.874 -0.3823  0.3089 -0.4334
  190POPC   H9X21961   1.062   0.928   9.885  0.3269 -0.4448  1.6988
  190POPC   H9Y21962   0.890   0.874   9.856 -0.8378 -1.4023 -1.1882
  190POPC  C31021963   1.040   0.763   9.753  0.6452  0.0822  0.1191
  190POPC  H10X21964   0.985   0.667   9.760 -2.2314  1.6996  1.2661
  190POPC  H10Y21965   1.150   0.749   9.741  0.2549 -2.3951 -1.4144
  190POPC  C31121966   0.981   0.840   9.623  0.6436  0.4547 -0.5013
  190POPC  H11X21967   0.997   0.948   9.642 -0.1667  0.2079  2.0295
  190POPC  H11Y21968   0.872   0.822   9.628  1.0350 -2.6451 -1.2133
  190POPC  C31221969   1.022   0.791   9.485  0.8248  0.0460  0.0997
  190POPC  H12X21970   0.981   0.688   9.473 -1.1462  0.9234 -1.0579
  190POPC  H12Y21971   1.132   0.780   9.473  0.7077 -1.3976  0.0913
  190POPC  C31321972   0.956   0.871   9.374  0.4064 -0.2537 -0.6897
  190POPC  H13X21973   0.966   0.980   9.395  1.0150 -0.4359  0.0256
  190POPC  H13Y21974   0.848   0.845   9.366  0.1814  0.6139 -0.5768
  190POPC  C31421975   1.021   0.836   9.235  0.2570 -0.0280  0.0385
  190POPC  H14X21976   1.034   0.726   9.221  1.5155  0.0042  0.7740
  190POPC  H14Y21977   1.121   0.883   9.240  0.6233 -0.5517 -1.5958
  190POPC  C31521978   0.958   0.897   9.105 -0.2932  0.0570  0.3899
  190POPC  H15X21979   0.942   1.005   9.127  2.1448  0.3317  1.1136
  190POPC  H15Y21980   0.858   0.850   9.094 -0.4072 -0.1681  2.0643
  190POPC  C31621981   1.056   0.882   8.988  0.0926 -0.4478 -0.5775
  190POPC  H16X21982   1.086   0.776   8.976 -0.0257 -0.8111  1.8666
  190POPC  H16Y21983   1.137   0.954   9.011  0.8521 -0.1264 -3.7752
  190POPC  H16Z21984   1.013   0.921   8.893  0.0830  1.2732  0.1019
  191POPC     N21985   1.020   4.848   6.308  0.1609 -0.5263  0.1543
  191POPC   C1221986   0.969   4.921   6.429  0.2403 -0.2456 -0.3923
  191POPC  H12A21987   0.933   5.017   6.393 -0.5089 -0.7836 -1.1010
  191POPC  H12B21988   1.040   4.954   6.503 -3.3542  2.0148  2.4001
  191POPC   C1321989   1.099   4.728   6.346  0.4579 -0.3836  0.3244
  191POPC  H13A21990   1.177   4.755   6.415  1.2450  0.2093 -0.7728
  191POPC  H13B21991   1.038   4.656   6.399 -2.0552  2.5858  1.7514
  191POPC  H13C21992   1.140   4.686   6.255  0.4149 -0.9220  0.5477
  191POPC   C1421993   0.915   4.806   6.216  0.7342  0.2281  0.1260
  191POPC  H14A21994   0.953   4.745   6.135  0.6273 -0.1406  0.3518
  191POPC  H14B21995   0.845   4.750   6.276 -0.7386  1.1908 -0.6403
  191POPC  H14C21996   0.860   4.890   6.175  0.2438 -0.7899 -1.4036
  191POPC   C1521997   1.114   4.938   6.233 -0.2706  0.2186 -0.3585
  191POPC  H15A21998   1.199   4.971   6.291 -1.7090  1.7893  0.9827
  191POPC  H15B21999   1.059   5.028   6.209 -3.7025 -1.0927  1.8136
  191POPC  H15C22000   1.145   4.897   6.138 -2.0303  0.4486 -1.0795
  191POPC   C1122001   0.858   4.848   6.507 -0.2543 -0.5544  0.5636
  191POPC  H11A22002   0.849   4.880   6.613  0.0106 -0.6450  0.6139
  191POPC  H11B22003   0.880   4.740   6.498  0.5913 -0.4734  1.5277
  191POPC     P22004   0.663   5.016   6.466 -0.2086 -0.3355  0.1629
  191POPC   O1322005   0.530   5.008   6.405  0.3568  0.4731  0.2829
  191POPC   O1422006   0.759   5.116   6.414  0.2475 -0.0332 -0.0945
  191POPC   O1222007   0.728   4.872   6.441 -0.1004  0.5817 -0.5710
  191POPC   O1122008   0.646   5.033   6.622  0.6666 -0.1249  0.4026
  191POPC    C122009   0.574   4.933   6.698 -0.3568  0.2090 -0.7048
  191POPC    HA22010   0.632   4.839   6.706  1.1486  1.1031 -0.7133
  191POPC    HB22011   0.472   4.904   6.665  0.0785 -1.3682 -0.7491
  191POPC    C222012   0.565   4.976   6.845 -0.0764 -0.0690 -1.1708
  191POPC    HS22013   0.557   4.886   6.910  1.9866  0.9478  0.6229
  191POPC   O2122014   0.457   5.072   6.863 -0.1761 -0.0683 -0.6325
  191POPC   C2122015   0.345   5.016   6.894 -0.0747  0.0211 -0.7497
  191POPC   O2222016   0.325   4.894   6.879 -0.1564  0.0460 -0.2807
  191POPC   C2222017   0.250   5.109   6.961  0.6816 -0.2386  0.3367
  191POPC   H2R22018   0.154   5.054   6.965  0.7180 -0.2902  0.4905
  191POPC   H2S22019   0.233   5.201   6.900  2.4836  0.6857  1.1493
  191POPC    C322020   0.696   5.049   6.885 -0.1480 -0.7158 -0.3079
  191POPC    HX22021   0.711   5.138   6.821 -0.3567  0.6620  1.4665
  191POPC    HY22022   0.789   4.996   6.854  0.7984  0.1969  0.8489
  191POPC   O3122023   0.703   5.107   7.017  0.3365  0.0572  0.4338
  191POPC   C3122024   0.737   5.024   7.108  0.0398  0.5785 -0.4126
  191POPC   O3222025   0.769   4.908   7.090 -0.4116  0.4967 -0.1642
  191POPC   C3222026   0.733   5.101   7.244  0.4313  0.1627  0.1963
  191POPC   H2X22027   0.650   5.174   7.240  0.0447 -0.1720  1.6278
  191POPC   H2Y22028   0.821   5.169   7.237  0.1947  0.2876 -3.3245
  191POPC   C2322029   0.296   5.141   7.100  0.3266 -0.2604 -0.4062
  191POPC   H3R22030   0.227   5.224   7.128  1.8311  1.1659 -0.7530
  191POPC   H3S22031   0.393   5.196   7.103  2.0306 -3.1106  0.1998
  191POPC   C2422032   0.298   5.026   7.196  0.0559 -0.2296  0.1839
  191POPC   H4R22033   0.384   4.962   7.167  0.1988  0.3728 -0.7761
  191POPC   H4S22034   0.204   4.966   7.192 -2.0270  2.6305  1.8631
  191POPC   C2522035   0.318   5.076   7.340 -0.2470 -0.1698  0.7282
  191POPC   H5R22036   0.228   5.135   7.369  0.3971  0.6554  1.1113
  191POPC   H5S22037   0.413   5.132   7.355  0.1724 -0.5732 -0.3103
  191POPC   C2622038   0.335   4.951   7.435  0.1010 -0.6735  0.5948
  191POPC   H6R22039   0.437   4.918   7.406  0.5842  0.6735  0.6813
  191POPC   H6S22040   0.253   4.876   7.423 -2.1066  1.9410 -2.6199
  191POPC   C2722041   0.348   4.981   7.584 -0.1373 -0.1334  0.3402
  191POPC   H7R22042   0.261   5.042   7.617 -1.7071 -0.6214 -2.6084
  191POPC   H7S22043   0.442   5.037   7.602 -2.0362  2.7714  2.2146
  191POPC   C2822044   0.340   4.858   7.677  0.4645  0.2073  0.0636
  191POPC   H8R22045   0.246   4.803   7.655  0.2430  0.2814  0.7782
  191POPC   H8S22046   0.329   4.902   7.779 -0.1606 -1.7011  0.8739
  191POPC   C2922047   0.460   4.770   7.669 -0.8774  0.8359 -0.3730
  191POPC   H9122048   0.438   4.668   7.632 -0.5946  0.2979  0.8863
  191POPC  C21022049   0.574   4.777   7.742 -0.3189 -0.1657 -0.3783
  191POPC  H10122050   0.654   4.703   7.735 -0.2310 -0.2560  1.1798
  191POPC  C21122051   0.608   4.883   7.845 -0.0841  0.3409  1.0267
  191POPC  H11R22052   0.587   4.981   7.796 -2.4545  0.5548  2.3483
  191POPC  H11S22053   0.718   4.883   7.857  0.1314 -2.4937 -0.2165
  191POPC  C21222054   0.545   4.882   7.985 -0.3068 -0.0447 -0.1031
  191POPC  H12R22055   0.436   4.900   7.986 -0.4084 -0.2563 -2.6284
  191POPC  H12S22056   0.590   4.969   8.039 -1.6859 -0.3239  1.5853
  191POPC  C21322057   0.582   4.748   8.066 -0.0625 -1.0989 -0.2545
  191POPC  H13R22058   0.533   4.658   8.022 -1.3769 -1.1102  1.1406
  191POPC  H13S22059   0.542   4.777   8.166 -1.4616  1.8952 -1.5623
  191POPC  C21422060   0.733   4.733   8.070 -0.0229  0.3270 -0.5900
  191POPC  H14R22061   0.777   4.834   8.063 -0.9477  0.8629  0.8821
  191POPC  H14S22062   0.760   4.681   7.976 -0.1551 -1.7988  0.4724
  191POPC  C21522063   0.789   4.654   8.195  0.0590  0.2016  0.1729
  191POPC  H15R22064   0.813   4.723   8.279  0.5385 -0.2767  0.4365
  191POPC  H15S22065   0.895   4.631   8.171  0.4477 -0.8459  2.6079
  191POPC  C21622066   0.711   4.527   8.239 -0.2121  0.4538 -0.4076
  191POPC  H16R22067   0.722   4.453   8.157 -1.6038 -1.0310  0.6871
  191POPC  H16S22068   0.606   4.563   8.231  0.2243  1.9018 -0.0044
  191POPC  C21722069   0.733   4.458   8.376 -0.0464  0.0086 -0.3387
  191POPC  H17R22070   0.835   4.416   8.370 -0.5953 -1.9122  1.9955
  191POPC  H17S22071   0.672   4.365   8.375  1.1210 -0.7743 -1.1181
  191POPC  C21822072   0.701   4.538   8.503 -0.3276  0.4457  0.1757
  191POPC  H18R22073   0.596   4.573   8.492 -0.8160  0.1505  3.1024
  191POPC  H18S22074   0.761   4.631   8.502  0.4631 -0.0513  0.5311
  191POPC  H18T22075   0.701   4.487   8.601 -1.3619 -0.1806 -0.1367
  191POPC   C3322076   0.708   5.010   7.361 -0.2032  0.1365 -0.6087
  191POPC   H3X22077   0.637   4.937   7.315  0.7495 -0.8778 -0.5288
  191POPC   H3Y22078   0.665   5.069   7.444  1.1069 -1.2527  1.1305
  191POPC   C3422079   0.829   4.936   7.417 -0.6785  0.0731 -0.3606
  191POPC   H4X22080   0.881   4.886   7.332 -1.9215 -1.2782 -0.3733
  191POPC   H4Y22081   0.797   4.857   7.488  0.1122  1.2255  1.3499
  191POPC   C3522082   0.926   5.020   7.501 -0.0039 -0.4090  0.7613
  191POPC   H5X22083   0.931   5.123   7.458 -2.0971 -0.9226 -0.8480
  191POPC   H5Y22084   1.028   4.977   7.504 -0.1567 -0.7538  1.0345
  191POPC   C3622085   0.887   5.036   7.647 -0.7259  0.2818 -0.2765
  191POPC   H6X22086   0.873   4.934   7.687 -0.8758  0.8817  1.2870
  191POPC   H6Y22087   0.796   5.096   7.668 -1.1650 -0.3959 -0.2144
  191POPC   C3722088   0.989   5.115   7.741 -0.2074 -0.4508 -0.1186
  191POPC   H7X22089   0.980   5.225   7.725  0.1851 -0.3377  0.4375
  191POPC   H7Y22090   1.096   5.088   7.728  0.5108  1.9722  0.1914
  191POPC   C3822091   0.961   5.090   7.894 -0.5255 -0.4121  0.1672
  191POPC   H8X22092   0.987   4.986   7.923 -1.0449  0.0526  2.5139
  191POPC   H8Y22093   0.851   5.097   7.909 -0.4984 -2.5178  1.9026
  191POPC   C3922094   1.021   5.193   7.991  0.2411 -0.3537  0.1481
  191POPC   H9X22095   1.000   5.296   7.957  0.4683 -0.7286 -1.1710
  191POPC   H9Y22096   1.132   5.192   7.998  0.2621 -2.2290  0.1887
  191POPC  C31022097   0.968   5.163   8.127 -0.0180 -0.0105 -0.4758
  191POPC  H10X22098   0.944   5.055   8.136  0.1660 -0.0579 -0.5490
  191POPC  H10Y22099   0.871   5.215   8.141  0.5592  0.8596  0.4316
  191POPC  C31122100   1.054   5.210   8.243 -0.2402  0.1359  0.6418
  191POPC  H11X22101   1.074   5.319   8.231  2.2623 -0.4402 -1.0540
  191POPC  H11Y22102   1.149   5.154   8.254 -1.1308 -1.3311  1.1231
  191POPC  C31222103   0.975   5.199   8.375  0.1699 -0.3028  0.2717
  191POPC  H12X22104   0.988   5.101   8.425 -2.1042 -1.4868 -1.2681
  191POPC  H12Y22105   0.869   5.194   8.341  0.2516 -0.0852 -0.0146
  191POPC  C31322106   0.983   5.319   8.467  0.6347  0.0297 -0.0561
  191POPC  H13X22107   0.945   5.409   8.414  2.0332  1.7881  1.7689
  191POPC  H13Y22108   1.092   5.340   8.466  1.0196 -1.7085 -1.7713
  191POPC  C31422109   0.925   5.295   8.606  0.4533  0.3190  1.1607
  191POPC  H14X22110   0.944   5.388   8.664 -0.0263  0.5617  0.9354
  191POPC  H14Y22111   0.978   5.209   8.653  1.3676  1.8349  3.0548
  191POPC  C31522112   0.771   5.286   8.597 -0.5754  0.2335  0.3547
  191POPC  H15X22113   0.735   5.237   8.690 -1.0734 -1.3764 -0.6400
  191POPC  H15Y22114   0.734   5.215   8.519  2.5526  0.8283 -1.8477
  191POPC  C31622115   0.696   5.417   8.577 -0.0252  0.2842 -0.4057
  191POPC  H16X22116   0.588   5.394   8.572  0.1927 -1.3926  1.2412
  191POPC  H16Y22117   0.712   5.469   8.480 -3.2219  1.0281 -0.6311
  191POPC  H16Z22118   0.721   5.494   8.653  0.2986  1.0115 -1.2295
  192POPC     N22119   4.854   0.922   6.176 -0.0986  0.4586  0.4950
  192POPC   C1222120   4.888   0.798   6.254 -0.6263  0.3793 -0.2510
  192POPC  H12A22121   4.994   0.780   6.248 -0.6344 -0.2068  1.0080
  192POPC  H12B22122   4.847   0.711   6.206  0.5585  0.0224 -0.6599
  192POPC   C1322123   4.711   0.949   6.194 -0.0281  0.6561 -0.2499
  192POPC  H13A22124   4.680   1.044   6.153 -0.0008  0.6945 -0.1815
  192POPC  H13B22125   4.655   0.868   6.150  0.6702  0.2689 -0.4538
  192POPC  H13C22126   4.688   0.948   6.299  1.2041 -1.3720  0.0519
  192POPC   C1422127   4.920   1.035   6.233 -0.0103 -0.0704 -0.0009
  192POPC  H14A22128   4.893   1.129   6.186  0.7126 -0.5814 -1.4933
  192POPC  H14B22129   4.899   1.038   6.339 -0.1791  1.1106 -0.0522
  192POPC  H14C22130   5.028   1.028   6.232 -0.0570 -0.8338 -0.4699
  192POPC   C1522131   4.886   0.910   6.024 -0.1279  0.1966 -0.0239
  192POPC  H15A22132   4.993   0.913   6.011 -0.1837  2.4843 -0.3347
  192POPC  H15B22133   4.842   0.993   5.970 -0.1403 -0.0578 -0.4043
  192POPC  H15C22134   4.836   0.821   5.987 -2.0463  0.6083  1.3728
  192POPC   C1122135   4.849   0.811   6.406 -0.0292 -0.0333  0.3186
  192POPC  H11A22136   4.870   0.909   6.455 -1.2697  0.1820  0.4422
  192POPC  H11B22137   4.911   0.749   6.474  1.2939 -0.1602 -0.9510
  192POPC     P22138   4.657   0.650   6.430  0.2135 -0.0442  0.6030
  192POPC   O1322139   4.688   0.576   6.306 -0.2430 -0.2144  0.4691
  192POPC   O1422140   4.512   0.653   6.465 -0.2756 -0.3494 -0.0168
  192POPC   O1222141   4.711   0.793   6.429  0.1696 -0.2644 -0.1359
  192POPC   O1122142   4.741   0.569   6.539  0.6422  0.1484 -0.2789
  192POPC    C122143   4.749   0.620   6.673 -0.0584  0.5866  0.2241
  192POPC    HA22144   4.724   0.729   6.678 -4.9080 -0.2783  0.1566
  192POPC    HB22145   4.853   0.611   6.709 -0.0821 -1.9142 -0.1782
  192POPC    C222146   4.648   0.547   6.765  0.2033  0.5301  0.2575
  192POPC    HS22147   4.543   0.581   6.754 -0.0986  0.5129  2.5453
  192POPC   O2122148   4.677   0.567   6.906 -1.0395  0.7936  0.2353
  192POPC   C2122149   4.661   0.687   6.947  0.3560  0.2453 -0.5879
  192POPC   O2222150   4.613   0.778   6.878 -0.3557 -0.0298 -0.8234
  192POPC   C2222151   4.705   0.692   7.095  0.7292  0.7427  0.4201
  192POPC   H2R22152   4.703   0.801   7.118 -3.1345  1.4767 -2.3879
  192POPC   H2S22153   4.808   0.650   7.099  0.0041 -1.0685  0.9243
  192POPC    C322154   4.649   0.389   6.736  0.1547 -0.0375  0.0898
  192POPC    HX22155   4.755   0.358   6.721  0.4670 -0.1337  2.1753
  192POPC    HY22156   4.601   0.380   6.637 -2.1310  0.6390  1.0771
  192POPC   O3122157   4.585   0.302   6.836 -0.3174  0.1203  0.0785
  192POPC   C3122158   4.451   0.314   6.838 -0.3471 -0.7102 -0.1054
  192POPC   O3222159   4.382   0.395   6.776 -0.1622  0.2435 -0.7975
  192POPC   C3222160   4.394   0.203   6.918  0.1800 -0.0514  0.2760
  192POPC   H2X22161   4.480   0.137   6.944 -0.0119 -0.1010  0.7796
  192POPC   H2Y22162   4.326   0.149   6.849 -0.1855  0.2018  0.4357
  192POPC   C2322163   4.610   0.614   7.188 -0.4366  0.3256 -0.1387
  192POPC   H3R22164   4.597   0.508   7.157 -1.7163  0.2079  0.7520
  192POPC   H3S22165   4.513   0.668   7.197  0.0727  1.3933 -0.8222
  192POPC   C2422166   4.667   0.603   7.330  0.0369  0.7539 -0.1082
  192POPC   H4R22167   4.699   0.704   7.365 -1.3555  1.0874  0.2688
  192POPC   H4S22168   4.754   0.536   7.336  0.0673  0.8988  2.8738
  192POPC   C2522169   4.570   0.537   7.433 -0.6992 -0.2948  0.6983
  192POPC   H5R22170   4.513   0.461   7.375  0.5659 -0.4155 -0.4421
  192POPC   H5S22171   4.493   0.616   7.450  0.5419  1.3842 -1.0232
  192POPC   C2622172   4.626   0.483   7.559  0.1356  0.3764  0.4638
  192POPC   H6R22173   4.711   0.411   7.556 -0.4813 -0.3368 -1.2434
  192POPC   H6S22174   4.544   0.433   7.616 -0.8271 -0.6658 -1.7095
  192POPC   C2722175   4.676   0.602   7.651  0.3108  0.5841  0.4529
  192POPC   H7R22176   4.771   0.631   7.600  1.3628 -2.6144  0.4155
  192POPC   H7S22177   4.695   0.563   7.753 -2.7415  1.9084  1.6557
  192POPC   C2822178   4.584   0.722   7.653  0.2404 -0.1924 -0.2399
  192POPC   H8R22179   4.478   0.692   7.636  1.2720 -3.4603 -1.8256
  192POPC   H8S22180   4.608   0.793   7.572 -0.1786  0.4416  0.1794
  192POPC   C2922181   4.581   0.816   7.779  0.3752 -0.0149  0.8178
  192POPC   H9122182   4.612   0.919   7.757 -0.7127  0.3277  0.8256
  192POPC  C21022183   4.545   0.771   7.907 -0.1549  0.1513  0.5900
  192POPC  H10122184   4.538   0.848   7.985 -1.4819  0.4922  0.1669
  192POPC  C21122185   4.492   0.630   7.940 -0.0661 -0.1819  0.0492
  192POPC  H11R22186   4.487   0.571   7.846  0.5761  0.7874 -0.6183
  192POPC  H11S22187   4.384   0.641   7.967  0.3894 -0.7901  2.2669
  192POPC  C21222188   4.583   0.561   8.039  0.5348  0.0051  1.0535
  192POPC  H12R22189   4.591   0.620   8.132 -1.5944  0.1165  1.2177
  192POPC  H12S22190   4.678   0.539   7.985 -0.5198 -2.0253 -0.0988
  192POPC  C21322191   4.527   0.421   8.076  0.1862 -0.1931 -0.0081
  192POPC  H13R22192   4.440   0.446   8.140  0.4429 -4.1785  2.1983
  192POPC  H13S22193   4.604   0.372   8.140 -0.2783  0.9151  1.4548
  192POPC  C21422194   4.493   0.328   7.954 -0.0054 -0.2493 -1.1923
  192POPC  H14R22195   4.581   0.318   7.887  2.8357  1.3136  1.9747
  192POPC  H14S22196   4.409   0.374   7.898 -0.8685 -0.9621 -0.5102
  192POPC  C21522197   4.443   0.184   7.988 -0.2422 -0.0583 -0.9373
  192POPC  H15R22198   4.529   0.127   8.031 -0.3581  0.2978 -0.2309
  192POPC  H15S22199   4.416   0.136   7.892  1.5680 -1.4415 -0.8228
  192POPC  C21622200   4.321   0.180   8.085 -0.8328 -0.4170 -0.6066
  192POPC  H16R22201   4.241   0.252   8.060  1.1395  0.7676 -4.1416
  192POPC  H16S22202   4.364   0.219   8.180  1.8249  1.1290 -2.3233
  192POPC  C21722203   4.271   0.039   8.114 -0.2312 -0.3103  0.1752
  192POPC  H17R22204   4.225   0.005   8.019 -0.1819 -0.8214  0.3304
  192POPC  H17S22205   4.181   0.050   8.179  0.4893  2.5260  0.8493
  192POPC  C21822206   4.365  -0.069   8.173  0.0183 -0.0399  0.4317
  192POPC  H18R22207   4.430  -0.104   8.091  0.3226 -1.1614  1.1229
  192POPC  H18S22208   4.307  -0.156   8.212  0.8110 -0.0776  1.5866
  192POPC  H18T22209   4.429  -0.027   8.253 -0.4077 -0.0608  0.7866
  192POPC   C3322210   4.324   0.246   7.046 -0.0666 -0.6423  0.3665
  192POPC   H3X22211   4.269   0.339   7.022  0.2863 -0.9219 -1.7333
  192POPC   H3Y22212   4.388   0.266   7.135 -0.9062  1.0732  0.6224
  192POPC   C3422213   4.206   0.157   7.087 -0.4844 -0.6138 -0.6283
  192POPC   H4X22214   4.251   0.069   7.138  0.1631  0.5314  0.8515
  192POPC   H4Y22215   4.149   0.123   6.998 -1.5708  2.3992 -1.2204
  192POPC   C3522216   4.110   0.236   7.179  0.2845 -0.0310 -0.6317
  192POPC   H5X22217   4.089   0.337   7.139 -0.1434 -0.4129 -1.3930
  192POPC   H5Y22218   4.162   0.249   7.277  0.1868 -1.8461 -0.3028
  192POPC   C3622219   3.973   0.170   7.203 -0.2492  0.0331 -0.2513
  192POPC   H6X22220   3.992   0.061   7.217  0.8205  0.2130 -0.2201
  192POPC   H6Y22221   3.911   0.169   7.110 -0.6472 -0.8460  0.0124
  192POPC   C3722222   3.882   0.224   7.313 -0.7701 -0.2739 -0.6063
  192POPC   H7X22223   3.780   0.180   7.309 -0.3240 -1.3862 -0.3734
  192POPC   H7Y22224   3.889   0.334   7.299  0.9632 -0.5553 -2.2682
  192POPC   C3822225   3.939   0.213   7.461  0.2388  0.0835  0.4498
  192POPC   H8X22226   4.047   0.235   7.450  0.2931 -0.7383 -0.8468
  192POPC   H8Y22227   3.922   0.106   7.488 -0.5139 -0.1717 -0.9666
  192POPC   C3922228   3.861   0.285   7.567  0.5531  0.8597  0.1037
  192POPC   H9X22229   3.768   0.225   7.576  1.8184 -1.3456 -0.8863
  192POPC   H9Y22230   3.841   0.384   7.520 -0.2546  0.3530 -0.6710
  192POPC  C31022231   3.929   0.289   7.708  0.0407 -0.0154 -0.0423
  192POPC  H10X22232   4.012   0.362   7.701  1.2367 -1.1010  1.7996
  192POPC  H10Y22233   3.979   0.191   7.727 -1.3945 -1.3475 -2.4969
  192POPC  C31122234   3.818   0.314   7.815 -0.2760  0.2492  0.0352
  192POPC  H11X22235   3.741   0.234   7.811 -1.4000  1.3358 -0.9039
  192POPC  H11Y22236   3.784   0.419   7.804  3.2908  1.5247 -0.0190
  192POPC  C31222237   3.874   0.307   7.963  0.1452  0.4455  0.2015
  192POPC  H12X22238   3.970   0.363   7.969 -0.7897  1.9108  2.3601
  192POPC  H12Y22239   3.908   0.202   7.981 -1.8610 -0.1223  0.8676
  192POPC  C31322240   3.776   0.352   8.069 -0.2710  0.7158  0.4718
  192POPC  H13X22241   3.670   0.328   8.042 -0.1879 -0.6273  1.2623
  192POPC  H13Y22242   3.779   0.461   8.089 -1.9662  1.0807 -0.9406
  192POPC  C31422243   3.797   0.271   8.195 -0.5345  0.1442  0.1092
  192POPC  H14X22244   3.904   0.281   8.224 -0.4007  0.7295 -0.5387
  192POPC  H14Y22245   3.775   0.164   8.172 -2.7806  0.7459 -0.7820
  192POPC  C31522246   3.699   0.317   8.308 -0.2243 -0.1799  0.5855
  192POPC  H15X22247   3.730   0.260   8.398  0.1189  0.4483  0.8722
  192POPC  H15Y22248   3.594   0.297   8.280  0.1166  0.2784 -1.1500
  192POPC  C31622249   3.720   0.455   8.363  0.4778  0.0533 -0.3993
  192POPC  H16X22250   3.820   0.497   8.340  0.4171  0.2104 -0.3795
  192POPC  H16Y22251   3.715   0.462   8.474 -1.2529 -1.1705 -0.3593
  192POPC  H16Z22252   3.644   0.523   8.320 -2.8951 -2.2909  1.3608
  193SOD    SOD22253   5.675   5.971  16.932 -0.5982  0.2743  0.1936
  194SOD    SOD22254   6.597   5.318  12.103 -0.0986 -0.1824  0.9744
  195SOD    SOD22255   3.116   5.509   0.346  0.3021 -0.0320 -0.0073
  196SOD    SOD22256   0.289   4.790   5.130  0.2252 -0.1789  0.2597
  197SOD    SOD22257   4.154   6.338  12.763 -0.7652 -0.3382  0.0832
  198SOD    SOD22258   3.701   1.099  10.552 -0.2433 -0.1974 -0.2060
  199SOD    SOD22259   6.537   5.006  10.819  0.5057 -0.0175  0.0378
  200SOD    SOD22260   1.113   6.534   1.905 -0.3579 -0.1496 -0.1825
  201SOD    SOD22261   5.114   3.451   5.191 -0.0630  0.0075  0.0874
  202SOD    SOD22262   5.137   5.889   2.295 -0.1886  0.6017  0.4623
  203SOD    SOD22263   0.759   4.698  10.567 -0.0353 -0.5496  0.3813
  204SOD    SOD22264   2.302   3.849   4.625  0.8599  0.0472  0.4076
  205SOD    SOD22265   4.425   5.367   0.649  0.4328 -0.0635 -0.0798
  206SOD    SOD22266   3.220   6.323   0.348 -0.1089 -0.4390 -0.4341
  207SOD    SOD22267   4.022   1.694  12.130 -0.0457 -0.2925  0.6369
  208SOD    SOD22268   0.885   0.138   4.781  0.1074 -0.0969  0.4399
  209SOD    SOD22269   5.950   3.125   0.500  0.1327 -0.1453  0.0091
  210SOD    SOD22270   2.330   6.690  12.336  0.2200  0.0911 -0.3888
  211SOD    SOD22271   5.638   2.065  11.399  0.1549 -0.7191 -0.3631
  212SOD    SOD22272   3.666   1.863   5.980  0.0578 -0.4542  0.2923
  213SOD    SOD22273   3.758   0.759  12.358 -0.1286  0.0072  0.4456
  214SOD    SOD22274   4.282   3.208   6.321  0.1757  0.0767  0.0990
  215SOD    SOD22275   2.687   6.510   4.453 -0.3156  0.5950 -0.0910
  216SOD    SOD22276   1.127   0.786  11.585  0.0850  0.3594  1.0148
  217SOD    SOD22277   1.172   1.802   4.855 -0.1799  0.0040  0.3474
  218SOD    SOD22278   1.843   2.569  16.657  0.2500  0.2288  0.0744
  219SOD    SOD22279   0.255   2.337  15.399 -0.2972 -0.7404  0.5081
  220SOD    SOD22280   5.645   3.893  16.026  0.1223 -0.7024 -0.3048
  221SOD    SOD22281   2.760   2.696  11.121  0.1917  0.3240  0.2577
  222SOD    SOD22282   5.305   1.160   5.151 -0.0670  0.5046  0.0335
  223SOD    SOD22283   5.259   2.068   5.627  0.0079  0.1708  0.1988
  224SOD    SOD22284   1.393   3.316  11.956  0.0470  0.2869 -0.1301
  225SOD    SOD22285   3.131   6.601   2.884  0.2370  0.6643  0.1882
  226SOD    SOD22286   5.154   2.240  15.198  0.3140  0.5680 -0.2224
  227SOD    SOD22287   1.889   2.774   0.093 -0.1014 -0.1029 -0.0487
  228SOD    SOD22288   3.721   3.341  12.939 -0.1276 -0.5062 -0.4285
  229SOD    SOD22289   1.267   2.199   3.908 -0.5190  0.2883 -0.3129
  230SOD    SOD22290   4.250   0.904   2.725  0.3277  0.2628 -0.0167
  231SOD    SOD22291   6.689   3.862  13.817 -0.1225 -0.1208 -0.4318
  232SOD    SOD22292   3.598   4.025   5.549  0.3462  0.1687  0.4256
  233SOD    SOD22293   2.314   4.316   4.786 -0.3645  0.0794  0.3221
  234SOD    SOD22294   6.317   3.073   4.647 -0.3117  0.3308  0.4188
  235SOD    SOD22295   5.246   3.104  14.153 -0.0602 -0.6620 -0.4228
  236SOD    SOD22296   5.120   3.761  12.600 -0.3175  0.4710 -0.3210
  237SOD    SOD22297   6.608   0.397  10.844  0.1731 -0.1694  0.3681
  238SOD    SOD22298   6.083   0.516  14.139 -0.3476  0.4503 -0.3394
  239SOD    SOD22299   3.842   1.482   0.825 -0.1495  0.6057  0.5125
  240SOD    SOD22300   0.437   5.756  14.363  0.3621  0.1288 -0.2814
  241SOD    SOD22301   4.024   5.014  13.483  0.0489 -0.0812  0.1023
  242SOD    SOD22302   2.489   1.621  17.160 -0.3802 -0.6647 -0.7252
  243SOD    SOD22303   2.777   3.104   5.131  0.3216  0.1975  0.0736
  244SOD    SOD22304   0.285   1.760   5.927  0.3104 -0.0494  0.2406
  245SOD    SOD22305   2.320   6.213   4.269  0.1787  0.2127 -0.5046
  246SOD    SOD22306   0.757   4.059   4.821  0.1610 -0.2947  0.0820
  247SOD    SOD22307   0.738   2.951   1.325  0.0091  0.1372  0.3825
  248SOD    SOD22308   2.268   1.558   5.387  0.0833  0.1033  0.9700
  249SOD    SOD22309   5.187   1.613  14.104 -0.4396  0.3502 -0.2106
  250SOD    SOD22310   5.348   6.003   2.931 -0.1595  0.0175  0.3143
  251SOD    SOD22311   6.483   3.111   5.739  0.1070 -0.1369  0.0843
  252SOD    SOD22312   4.948   3.646   1.739 -0.1094  0.3409 -0.2483
  253SOD    SOD22313   1.450   3.599  12.990 -0.3371  0.1064 -0.3278
  254SOD    SOD22314   2.895   4.320   0.061  0.0184  0.2900  0.1287
  255SOD    SOD22315   1.285   1.210  15.592  0.3142  0.1418  0.1748
  256SOD    SOD22316   6.150   2.583   3.995  0.3807 -0.3279  0.5619
  257SOD    SOD22317   5.200   4.195   4.010 -0.2768  0.5258 -0.0743
  258SOD    SOD22318   1.567   2.423  14.508  0.0377  0.1525 -0.0714
  259SOD    SOD22319   2.630   2.272   6.213  0.0991 -0.3908  0.2531
  260SOD    SOD22320   4.804   4.069  16.053  0.2653  0.1573 -0.2263
  261SOD    SOD22321   6.723   3.294  11.638  0.1011 -0.3313  0.1301
  262SOD    SOD22322   1.706   1.377  17.097 -0.3776  0.4542  0.0597
  263SOD    SOD22323   0.733   4.481  16.700 -0.4495  0.0397  0.2428
  264SOD    SOD22324   1.407   4.116   5.710 -0.5883 -0.4204  0.1140
  265SOD    SOD22325   2.022   0.391  11.806  0.4060  0.1675  0.2169
  266SOD    SOD22326   4.906   4.517  14.346  0.5348 -0.8197 -0.2589
  267SOD    SOD22327   4.959   1.301  13.030  0.4220 -0.2109  0.1012
  268SOD    SOD22328   6.378   2.998   6.530 -0.3182  0.2996  0.0115
  269SOD    SOD22329   6.493   0.321   3.514 -0.4154  0.1298  0.2240
  270CLA    CLA22330   5.947   5.397  13.190 -0.1892 -0.3579 -0.5941
  271CLA    CLA22331   6.424   5.966   1.313  0.2634 -0.2656  0.2597
  272CLA    CLA22332   6.540   4.749   4.665 -0.2282  0.5294 -0.1317
  273CLA    CLA22333   6.106   2.087   2.390 -0.5542 -0.2109 -0.1291
  274CLA    CLA22334   1.682   1.904   1.468  0.2795 -0.0130 -0.5696
  275CLA    CLA22335   1.707   0.383   4.415  0.0546  0.0240 -0.3223
  276CLA    CLA22336   5.480   5.499   2.876  0.1676 -0.1210 -0.0166
  277CLA    CLA22337   4.429   5.334   3.270 -0.2502 -0.1582 -0.3917
  278CLA    CLA22338   0.958   4.296  15.924  0.3914 -0.5314  0.3271
  279CLA    CLA22339   2.877   6.351   3.181 -0.4608  0.0369 -0.2050
  280CLA    CLA22340   5.390   1.380  13.755 -0.0327  0.1931  0.5288
  281CLA    CLA22341   2.396   4.000  13.092 -0.0502  0.4394 -0.1440
  282CLA    CLA22342   1.287   5.999  15.376  0.2732  0.2323 -0.1916
  283CLA    CLA22343   6.555   5.077   0.109  0.1149  0.0077  0.1100
  284CLA    CLA22344   3.542   1.899  12.083  0.1058 -0.4425 -0.1542
  285CLA    CLA22345   3.295   0.969   4.073  0.0018 -0.0320  0.3789
  286CLA    CLA22346   4.586   4.890  12.956 -0.3701  0.1874 -0.0281
  287CLA    CLA22347   5.205   1.321   5.578 -0.0065 -0.1049  0.3195
  288CLA    CLA22348   0.264   3.302   5.046  0.1251 -0.0197 -0.2859
  289CLA    CLA22349   3.037   2.375   5.120  0.1383 -0.3045  0.2532
  290CLA    CLA22350   4.354   4.343  15.943 -0.1542  0.0600 -0.2475
  291CLA    CLA22351   5.099   4.537  12.474  0.3095  0.2707  0.0548
  292CLA    CLA22352   5.476   2.068   1.488  0.2025  0.5812 -0.0838
  293CLA    CLA22353   0.636   0.074   1.442 -0.3749 -0.4082  0.2839
  294CLA    CLA22354   2.512   2.760   2.815  0.2001  0.0896  0.1622
  295CLA    CLA22355   4.672   3.088   3.316 -0.1241 -0.6105 -0.0776
  296CLA    CLA22356   2.783   0.752   5.217 -0.1695  0.0673  0.0197
  297CLA    CLA22357   4.506   3.575  13.166 -0.2437 -0.0236 -0.1192
  298CLA    CLA22358   1.540   0.594   2.366 -0.4874 -0.2221  0.1882
  299CLA    CLA22359   6.451   3.506  16.515  0.1176  0.3453 -0.4665
  300CLA    CLA22360   2.791   5.874   0.159  0.3316 -0.1625  0.4764
  301CLA    CLA22361   3.092   2.398  17.056  0.1169 -0.2553  0.5711
  302CLA    CLA22362   0.657   1.463  15.488 -0.0777  0.3541  0.2584
  303CLA    CLA22363   0.462   6.643   2.314  0.0448 -0.2244 -0.1822
  304CLA    CLA22364   2.797   1.224   0.764  0.0140 -0.2754  0.2660
  305CLA    CLA22365   3.047   1.572  13.903 -0.7873 -0.0604  0.4644
  306CLA    CLA22366   4.639   0.063  13.094 -0.3087  0.1230 -0.2641
  307CLA    CLA22367   4.703   5.684   2.020  0.4279  0.2412 -0.5333
  308CLA    CLA22368   5.981   3.043   4.242 -0.4247  0.2035  0.2608
  309CLA    CLA22369   5.297   2.810  16.080  0.4445  0.4309 -0.2436
  310CLA    CLA22370   4.682   0.559  15.303 -0.3576 -0.0546  0.1071
  311CLA    CLA22371   4.938   6.037   2.658  0.2427 -0.0504  0.7492
  312CLA    CLA22372   2.832   2.423  14.992 -0.1749 -0.2154 -0.2003
  313CLA    CLA22373   0.033   6.661   3.705 -0.1038  0.0975  0.0640
  314CLA    CLA22374   3.073   6.163   2.518 -0.3081 -0.4035  0.1270
  315CLA    CLA22375   4.868   6.351  14.249 -0.0336 -0.1600  0.0981
  316CLA    CLA22376   3.549   6.468  16.250  0.1925  0.3823  0.5329
  317CLA    CLA22377   0.141   4.078   2.838 -0.4112 -0.0049 -0.1002
  318CLA    CLA22378   0.389   2.232  17.189 -0.1829 -0.4142  0.1588
  319CLA    CLA22379   4.959   0.492  14.777  0.0387  0.0324  0.4390
  320CLA    CLA22380   0.159   0.859  15.437  0.2761 -0.3793 -0.0805
  321CLA    CLA22381   4.741   1.566  15.891  0.0655 -0.3544  0.2273
  322CLA    CLA22382   3.114   0.491  12.483 -0.2467  0.1792 -0.5138
  323TIP3   OH222383   1.388   3.906  11.407 -0.2875 -0.0556  0.5195
  323TIP3    H122384   1.344   3.864  11.332 -0.5162  0.0250  0.6064
  323TIP3    H222385   1.346   3.868  11.484  0.0103 -0.2048  0.6110
  324TIP3   OH222386   2.225   6.450  16.341  0.1409  0.2670  0.0724
  324TIP3    H122387   2.201   6.468  16.250  0.9900 -0.9001 -0.4243
  324TIP3    H222388   2.310   6.493  16.352  0.9256 -1.1047 -0.3041
  325TIP3   OH222389   0.961   1.012   0.342 -0.1272  0.4149 -0.5322
  325TIP3    H122390   0.974   0.990   0.434  0.3284  0.5684 -0.5586
  325TIP3    H222391   0.872   0.984   0.323 -0.2342  0.4169 -0.0346
  326TIP3   OH222392   4.063   6.196  13.960  0.7233  0.7755  0.4011
  326TIP3    H122393   4.114   6.221  14.038  0.2895 -0.4891  1.1284
  326TIP3    H222394   4.128   6.156  13.901  0.6470 -0.7460  1.2861
  327TIP3   OH222395   3.257   6.377  15.376 -0.3660  0.5960  0.1829
  327TIP3    H122396   3.286   6.449  15.319  0.9147  1.1967  1.5398
  327TIP3    H222397   3.289   6.298  15.333 -1.0887  0.8648 -0.9014
  328TIP3   OH222398   0.855   5.100  16.388  0.9108 -0.2833 -0.1647
  328TIP3    H122399   0.775   5.104  16.337  0.2026  1.2493  0.9721
  328TIP3    H222400   0.833   5.142  16.471  2.0857 -2.4417  1.3476
  329TIP3   OH222401   0.227   0.433   4.594  0.4038  0.5533  0.4104
  329TIP3    H122402   0.276   0.352   4.602 -1.4856 -0.8158 -0.8454
  329TIP3    H222403   0.263   0.475   4.516  0.0471 -0.1509 -0.1569
  330TIP3   OH222404   6.780   0.668   2.498  0.3092 -0.6062  0.3327
  330TIP3    H122405   6.813   0.758   2.502  0.0649 -0.5475  1.1786
  330TIP3    H222406   6.761   0.645   2.589  1.9120 -2.1106  0.3453
  331TIP3   OH222407   4.653   1.907   4.773  0.5419  0.1931 -0.4802
  331TIP3    H122408   4.708   1.934   4.846  1.2083  0.3801 -1.0386
  331TIP3    H222409   4.646   1.812   4.781 -0.7393  0.3599  0.7475
  332TIP3   OH222410   6.367   3.062  13.581  0.3470  0.8768 -0.2319
  332TIP3    H122411   6.384   3.084  13.673 -0.1477  0.4504 -0.0313
  332TIP3    H222412   6.449   3.081  13.536  1.6367 -1.7184  0.7981
  333TIP3   OH222413   3.001   3.489   3.608  0.2775  0.3153  0.0419
  333TIP3    H122414   3.096   3.476   3.608  0.0355 -2.0450  0.8592
  333TIP3    H222415   2.971   3.444   3.530 -0.2874 -0.4011  0.6554
  334TIP3   OH222416   3.798   5.372   4.408  0.5973 -0.3170 -0.2861
  334TIP3    H122417   3.775   5.465   4.410 -0.7812 -0.6522  0.7539
  334TIP3    H222418   3.889   5.371   4.379  0.3435  1.2866 -1.3072
  335TIP3   OH222419   2.019   1.257  11.145  1.1494  0.5271  0.0638
  335TIP3    H122420   1.978   1.300  11.069 -1.8228 -1.3692  0.4028
  335TIP3    H222421   2.026   1.165  11.119 -1.1373 -0.4217  2.4182
  336TIP3   OH222422   2.195   6.106   3.893  0.2883 -0.0940  0.1043
  336TIP3    H122423   2.245   6.135   3.817  0.2899  1.0397  0.5134
  336TIP3    H222424   2.257   6.055   3.945  1.2249  1.7401  0.8694
  337TIP3   OH222425   6.780   4.942  16.669 -0.2123  0.2685 -0.7435
  337TIP3    H122426   6.761   5.025  16.712 -0.1689  1.7308 -3.3444
  337TIP3    H222427   6.851   4.903  16.720  1.6954  3.1638 -0.9840
  338TIP3   OH222428   4.508   3.751   1.095  0.5454 -0.3743  0.1444
  338TIP3    H122429   4.434   3.743   1.156  0.4808  0.7390  0.2347
  338TIP3    H222430   4.475   3.810   1.026  1.6336  0.8876  0.6639
  339TIP3   OH222431   4.474   6.564   0.510 -0.1288 -0.0352 -0.4012
  339TIP3    H122432   4.555   6.614   0.515  0.0192 -0.1747 -1.2970
  339TIP3    H222433   4.500   6.480   0.473 -0.8684  0.3908 -1.9674
  340TIP3   OH222434   2.103   2.963   1.605 -0.4099  0.3917 -1.1707
  340TIP3    H122435   2.140   3.023   1.669  0.5993 -0.2947 -1.0838
  340TIP3    H222436   2.087   2.882   1.654 -2.3745  0.7690 -1.1288
  341TIP3   OH222437   5.281   4.900   4.463 -0.8076 -0.0139 -0.2507
  341TIP3    H122438   5.365   4.904   4.509 -1.7733  2.1149  1.5041
  341TIP3    H222439   5.285   4.971   4.399 -0.6840 -0.9892 -1.3714
  342TIP3   OH222440   0.887   4.829   3.057  0.5309  0.2610  0.1145
  342TIP3    H122441   0.915   4.776   2.983  1.5637 -0.7166  1.1656
  342TIP3    H222442   0.791   4.822   3.057  0.6475 -1.6980  0.2779
  343TIP3   OH222443   1.604   1.952   2.056 -0.0281  0.5763 -0.6164
  343TIP3    H122444   1.643   2.007   2.124  1.8041 -0.3091 -0.8961
  343TIP3    H222445   1.583   2.012   1.985 -1.1098  1.3751  0.3473
  344TIP3   OH222446   6.087   3.761   6.353  0.2503 -0.6417  0.6064
  344TIP3    H122447   6.070   3.743   6.446 -1.6703  0.4355  0.5362
  344TIP3    H222448   6.005   3.736   6.309 -0.2284  2.1108 -0.2734
  345TIP3   OH222449   0.503   0.243  14.332  0.5123 -0.5528 -0.2359
  345TIP3    H122450   0.411   0.266  14.343  0.7244 -0.1597  0.8280
  345TIP3    H222451   0.526   0.278  14.246 -0.6105 -1.6373 -1.0024
  346TIP3   OH222452   4.289   5.058   4.749  0.7096 -0.6767 -0.6758
  346TIP3    H122453   4.348   5.132   4.763  0.4404 -0.6406  0.3654
  346TIP3    H222454   4.307   4.999   4.822 -0.7027 -0.5547 -0.2071
  347TIP3   OH222455   2.939   1.609  15.162  0.1298 -0.2102 -0.1863
  347TIP3    H122456   2.977   1.614  15.074  3.2751  1.4924  1.0909
  347TIP3    H222457   2.867   1.672  15.160  2.0118  2.0608 -0.8449
  348TIP3   OH222458   3.215   3.713   5.230 -0.0213  0.5439 -0.6091
  348TIP3    H122459   3.264   3.696   5.150 -1.7138 -0.7092 -1.4320
  348TIP3    H222460   3.271   3.678   5.300  0.6005 -0.1684 -1.4426
  349TIP3   OH222461   2.058   4.863  11.310 -0.1364  0.1860  0.2329
  349TIP3    H122462   2.028   4.789  11.362  0.4776  0.3492  0.8439
  349TIP3    H222463   1.987   4.879  11.247  0.3965 -1.9129 -0.9854
  350TIP3   OH222464   6.128   6.672   2.570 -1.2165  0.1495 -0.1806
  350TIP3    H122465   6.054   6.625   2.608 -0.9189 -0.5450 -0.4437
  350TIP3    H222466   6.165   6.611   2.507  0.3204  0.0253  0.8040
  351TIP3   OH222467   6.334   2.994  16.341 -0.5303  0.2320 -0.0775
  351TIP3    H122468   6.360   3.047  16.416 -0.0596 -0.7444  0.4812
  351TIP3    H222469   6.382   3.030  16.268  0.7520 -0.1825  0.5340
  352TIP3   OH222470   2.413   4.315  15.707  0.4428  0.5421  0.2120
  352TIP3    H122471   2.345   4.258  15.743 -1.2767  0.8453 -2.2598
  352TIP3    H222472   2.495   4.281  15.743 -0.8258 -1.1195  1.7238
  353TIP3   OH222473   3.235   3.397  12.025 -0.5200  0.3579 -0.2884
  353TIP3    H122474   3.242   3.381  11.931  0.1456 -0.4979 -0.1103
  353TIP3    H222475   3.141   3.404  12.041 -0.6135  1.0716 -1.0993
  354TIP3   OH222476   1.514   5.554   2.560 -0.6690 -0.4852  0.3752
  354TIP3    H122477   1.476   5.581   2.644  0.2663  0.2821  0.5634
  354TIP3    H222478   1.608   5.558   2.573 -0.5031 -1.1736 -0.4715
  355TIP3   OH222479   5.964   1.668  13.140  0.1582  0.1018  0.5456
  355TIP3    H122480   6.010   1.619  13.072  1.6308 -2.0718  2.9508
  355TIP3    H222481   6.019   1.745  13.156  0.6709 -0.2440  0.4354
  356TIP3   OH222482   4.637   3.534  14.198  0.4323  0.2135  0.1780
  356TIP3    H122483   4.555   3.485  14.207 -1.2182  2.2612 -2.3170
  356TIP3    H222484   4.701   3.470  14.168 -0.6777 -1.1053  0.5482
  357TIP3   OH222485   0.868   5.402  13.402  0.2646 -0.3259  0.3492
  357TIP3    H122486   0.787   5.451  13.420  0.7543  0.9652 -0.7282
  357TIP3    H222487   0.938   5.461  13.431  0.9152  0.1582 -1.9625
  358TIP3   OH222488   3.029   0.375  16.626  0.3178  0.8787 -0.1464
  358TIP3    H122489   2.952   0.420  16.661  1.5133  2.7194  0.2250
  358TIP3    H222490   3.005   0.282  16.629 -1.9143  1.3966 -0.1619
  359TIP3   OH222491   0.065   2.639   5.768  0.0949  0.2917  0.8342
  359TIP3    H122492   0.040   2.648   5.860  0.4847 -0.7759  1.0578
  359TIP3    H222493   0.127   2.566   5.767 -1.0408 -0.7076 -0.4794
  360TIP3   OH222494   1.767   1.977   5.646 -0.1222  0.3088 -0.0859
  360TIP3    H122495   1.782   1.917   5.719  1.9066  0.1563 -0.5689
  360TIP3    H222496   1.687   2.024   5.669  0.4450  0.2486  2.2203
  361TIP3   OH222497   0.046   5.916   3.314 -0.8233 -0.0069 -0.1430
  361TIP3    H122498   0.112   5.964   3.363 -0.4126 -1.3513  0.6800
  361TIP3    H222499  -0.038   5.943   3.352 -0.6587  0.7249 -0.3045
  362TIP3   OH222500   5.822   6.339  16.697 -0.0747  0.1339  0.0994
  362TIP3    H122501   5.847   6.392  16.621  0.2771  1.2620  0.9678
  362TIP3    H222502   5.733   6.310  16.678 -0.4984  1.5208 -0.1705
  363TIP3   OH222503   1.632   6.459  12.484 -0.0372  0.0063 -0.1927
  363TIP3    H122504   1.545   6.496  12.471  0.4296  1.6249  0.9926
  363TIP3    H222505   1.688   6.534  12.506  1.8687 -0.8562 -1.7167
  364TIP3   OH222506   6.093   5.068   2.683 -0.1228  0.3007 -0.1478
  364TIP3    H122507   6.024   5.096   2.623  0.7886  2.7824 -0.1524
  364TIP3    H222508   6.128   4.988   2.643 -0.1012  1.4105 -2.5434
  365TIP3   OH222509   0.358   5.997   5.273 -0.1194  0.8198  0.3143
  365TIP3    H122510   0.267   5.997   5.301 -0.1308  2.0425  0.3461
  365TIP3    H222511   0.393   6.079   5.307  1.0377  0.2962  0.4314
  366TIP3   OH222512   3.085   3.375  14.010 -0.1617  0.0585  0.1485
  366TIP3    H122513   3.076   3.430  13.933 -0.5537  0.6030  0.5784
  366TIP3    H222514   3.036   3.420  14.079  1.4882  0.3980  1.1563
  367TIP3   OH222515   1.069   5.944   1.028 -0.3460 -0.3691 -0.0235
  367TIP3    H122516   1.018   5.864   1.043  3.1231 -2.6965  0.6579
  367TIP3    H222517   1.052   5.966   0.936 -0.9699 -2.2915 -0.4299
  368TIP3   OH222518   3.085   3.617  16.590  0.1110 -0.3999  0.0196
  368TIP3    H122519   3.122   3.615  16.502 -0.8962 -0.8987 -0.4078
  368TIP3    H222520   3.141   3.559  16.641  1.2569  0.6116 -0.0498
  369TIP3   OH222521   1.019   0.341   3.090  0.2845  0.1209  0.2908
  369TIP3    H122522   0.928   0.310   3.092  0.0757  0.7134  2.2132
  369TIP3    H222523   1.072   0.262   3.098 -0.1228 -0.1194  0.6643
  370TIP3   OH222524   1.488   6.538   3.906  0.6556 -0.9277 -0.1278
  370TIP3    H122525   1.584   6.536   3.904  0.8917  2.7183  0.7316
  370TIP3    H222526   1.464   6.612   3.851 -1.4527  0.0291  1.8741
  371TIP3   OH222527   4.668   5.665  14.544  0.7915  0.1695  0.0808
  371TIP3    H122528   4.749   5.636  14.585  0.3242 -1.3078  0.0370
  371TIP3    H222529   4.689   5.673  14.451 -0.1336 -5.2227 -0.9651
  372TIP3   OH222530   0.464   2.852  12.846  0.4694  0.0081  0.3509
  372TIP3    H122531   0.514   2.882  12.770 -0.8250 -1.6956 -1.2630
  372TIP3    H222532   0.507   2.770  12.872 -0.4483 -0.6165 -0.0310
  373TIP3   OH222533   1.599   2.641  12.110 -0.3581  0.2252  0.1709
  373TIP3    H122534   1.662   2.695  12.063  0.1908  0.1087  0.7633
  373TIP3    H222535   1.649   2.602  12.182 -1.2532  0.6527  1.0447
  374TIP3   OH222536   6.567   0.056  14.173  0.1924 -0.0808  0.1447
  374TIP3    H122537   6.478   0.045  14.140  0.4176  2.3645 -1.6199
  374TIP3    H222538   6.623   0.045  14.095  1.2933 -0.1532  0.9192
  375TIP3   OH222539   0.440   1.606   5.927  0.2661 -0.1188  0.0988
  375TIP3    H122540   0.536   1.609   5.931  0.2948  0.3384 -0.6843
  375TIP3    H222541   0.417   1.528   5.977  1.1582 -1.2459 -1.1614
  376TIP3   OH222542   0.245   4.249  14.315  0.3680  0.4478  0.5739
  376TIP3    H122543   0.265   4.331  14.359  2.2393  0.0562  0.5409
  376TIP3    H222544   0.220   4.189  14.385  0.4266  0.6469  0.7642
  377TIP3   OH222545   3.120   3.304  12.952  0.4070 -0.4934  0.1976
  377TIP3    H122546   3.174   3.229  12.927  0.1693 -0.5301 -0.2286
  377TIP3    H222547   3.149   3.374  12.894  0.4573 -0.3282  0.4239
  378TIP3   OH222548   3.995   5.261   0.738  0.1819 -0.0509 -0.3375
  378TIP3    H122549   3.941   5.186   0.762 -0.2406  0.3091 -0.1571
  378TIP3    H222550   3.976   5.327   0.805  0.7660  0.1191 -0.3286
  379TIP3   OH222551   4.948   5.200   5.500 -0.4328  0.0922 -0.1012
  379TIP3    H122552   5.013   5.269   5.487 -0.2682  0.0756  0.5650
  379TIP3    H222553   4.873   5.228   5.448  0.1388  0.0627 -0.9565
  380TIP3   OH222554   5.818   3.116   0.289  0.5346 -0.6308  0.1720
  380TIP3    H122555   5.724   3.116   0.274  0.8666 -1.5440 -2.5196
  380TIP3    H222556   5.855   3.154   0.209  2.4793 -0.3584  1.1229
  381TIP3   OH222557   6.129   4.605   0.099 -0.0126 -1.2063 -0.6389
  381TIP3    H122558   6.053   4.546   0.092 -0.0095 -1.3356  0.3117
  381TIP3    H222559   6.180   4.587   0.020 -0.4250 -1.8994 -0.7619
  382TIP3   OH222560   0.629   1.915  12.213  0.0524  0.3548 -0.3253
  382TIP3    H122561   0.703   1.861  12.239 -0.8583 -0.6026  0.3380
  382TIP3    H222562   0.559   1.853  12.193 -0.6433  1.2419 -0.7454
  383TIP3   OH222563   1.843   1.233  14.797  0.4093 -0.2559 -0.6262
  383TIP3    H122564   1.916   1.180  14.830  0.9289  0.3408 -0.8032
  383TIP3    H222565   1.807   1.182  14.725 -1.2314 -1.9619  1.2774
  384TIP3   OH222566   1.295   2.004   3.542  0.1898  0.2671  0.0724
  384TIP3    H122567   1.366   1.944   3.568 -0.2984 -0.2769  0.1607
  384TIP3    H222568   1.217   1.949   3.540 -0.0907  0.6852 -0.8399
  385TIP3   OH222569   5.743   5.112   2.113 -0.0749  0.2112 -0.1709
  385TIP3    H122570   5.795   5.187   2.083  0.7417 -0.3947 -0.3053
  385TIP3    H222571   5.720   5.133   2.203 -0.6354  1.0300 -0.4887
  386TIP3   OH222572   0.020   6.274   5.602  1.0188  0.7813 -0.3627
  386TIP3    H122573  -0.058   6.255   5.550  0.8830  0.9151 -0.2103
  386TIP3    H222574   0.045   6.190   5.640 -0.3583  1.1020  1.3889
  387TIP3   OH222575   0.260   4.223   2.060  0.3648 -0.2471 -0.2144
  387TIP3    H122576   0.337   4.196   2.110  1.0648  0.7755 -0.6839
  387TIP3    H222577   0.199   4.150   2.068  2.2087 -2.0743 -1.5904
  388TIP3   OH222578   5.454   5.886   3.881  0.1619 -0.7149 -0.9823
  388TIP3    H122579   5.485   5.874   3.792  0.0306 -0.2479 -1.0900
  388TIP3    H222580   5.432   5.979   3.888  1.1390 -0.5247 -0.1560
  389TIP3   OH222581   1.041   3.422  15.919  0.3204 -0.0217 -0.1259
  389TIP3    H122582   1.046   3.378  16.003 -0.0289  0.1942  0.0109
  389TIP3    H222583   0.948   3.440  15.907  0.5643  1.7841  0.4093
  390TIP3   OH222584   3.427   1.297   2.805 -0.0664 -0.4762 -0.2683
  390TIP3    H122585   3.344   1.250   2.803 -0.5294  0.3381 -1.6830
  390TIP3    H222586   3.445   1.311   2.898 -0.4162 -2.5197  0.1564
  391TIP3   OH222587   5.209   6.726   2.802 -0.4543  0.6535 -0.6403
  391TIP3    H122588   5.184   6.798   2.861 -1.4425 -0.9501  0.9959
  391TIP3    H222589   5.127   6.685   2.778  0.1347 -0.2943 -1.0858
  392TIP3   OH222590   4.431   4.510   2.880  0.1212  0.1945  0.1405
  392TIP3    H122591   4.521   4.478   2.879 -0.1509 -0.6533 -2.0582
  392TIP3    H222592   4.438   4.600   2.849  0.3801  0.8511  1.9563
  393TIP3   OH222593   6.398   6.200   1.787 -0.2673  0.2864  0.4947
  393TIP3    H122594   6.398   6.210   1.882 -0.0635  1.0746  0.4217
  393TIP3    H222595   6.350   6.118   1.771  0.3798 -0.2636  1.3092
  394TIP3   OH222596   4.616   0.845  15.637 -0.5212  0.5816  0.5747
  394TIP3    H122597   4.548   0.813  15.578  0.4187  0.2095 -0.3113
  394TIP3    H222598   4.594   0.938  15.649 -1.4113  0.3789  0.6273
  395TIP3   OH222599   6.154   6.314  14.007 -0.1092  0.0279  0.4069
  395TIP3    H122600   6.240   6.355  14.013  1.3004 -2.6381 -0.0665
  395TIP3    H222601   6.104   6.352  14.079  1.8953  0.7362  1.4997
  396TIP3   OH222602   1.508   4.587   1.392  0.0646 -0.3326 -0.6673
  396TIP3    H122603   1.426   4.540   1.379  0.5968 -1.3607 -0.4266
  396TIP3    H222604   1.514   4.646   1.317 -0.7398 -0.4778 -0.8525
  397TIP3   OH222605   1.438   4.499   3.503 -0.2658  0.6342 -0.8580
  397TIP3    H122606   1.527   4.535   3.506  0.5772 -1.3366 -0.8219
  397TIP3    H222607   1.385   4.562   3.552  0.9763  2.1452 -1.3577
  398TIP3   OH222608   1.810   1.811   4.909  0.6602  0.1524  0.2423
  398TIP3    H122609   1.872   1.854   4.968  1.0647  0.1950 -0.2123
  398TIP3    H222610   1.733   1.794   4.964  0.2058  2.0664  0.2532
  399TIP3   OH222611   1.522   5.005   4.812 -0.4063 -0.1957  0.2870
  399TIP3    H122612   1.528   5.100   4.808 -1.0295 -0.0273  2.2795
  399TIP3    H222613   1.459   4.988   4.882  0.8610 -2.0932  1.0410
  400TIP3   OH222614   2.247   0.100  13.212  0.5923  0.2839  0.2327
  400TIP3    H122615   2.199   0.125  13.290 -4.2132 -1.0817 -1.9256
  400TIP3    H222616   2.274   0.183  13.172 -0.0735  1.1454  1.5332
  401TIP3   OH222617   2.762   2.652   4.206  1.0972  0.2324  1.2543
  401TIP3    H122618   2.761   2.557   4.204  2.4323  0.1868  1.6515
  401TIP3    H222619   2.805   2.674   4.289  1.0562  1.1695  1.0447
  402TIP3   OH222620   2.454   4.664  14.072  0.1197  0.0381  0.2562
  402TIP3    H122621   2.538   4.709  14.061  0.4607 -0.7848 -0.7793
  402TIP3    H222622   2.410   4.676  13.988 -0.3764 -0.3633  0.4540
  403TIP3   OH222623   4.213   6.495  16.905 -0.1008  0.5708  0.2681
  403TIP3    H122624   4.155   6.561  16.943 -0.1909  0.9133 -0.4445
  403TIP3    H222625   4.227   6.525  16.815  0.6525  0.1374  0.2357
  404TIP3   OH222626   1.919   5.100  12.008 -0.2907  0.6471 -0.6569
  404TIP3    H122627   1.901   5.007  12.022  0.2046  0.3155 -2.1377
  404TIP3    H222628   1.838   5.144  12.035  0.5279  0.1495  3.2608
  405TIP3   OH222629   4.461   2.447   3.043 -0.7486 -0.0021 -0.0310
  405TIP3    H122630   4.397   2.375   3.039  0.1725 -0.8470 -0.0717
  405TIP3    H222631   4.408   2.526   3.055 -1.7839 -0.6977  0.1211
  406TIP3   OH222632   4.143   3.903  12.177 -0.6351  0.0073 -0.3184
  406TIP3    H122633   4.232   3.882  12.207 -0.8710  0.8723  1.1114
  406TIP3    H222634   4.143   3.880  12.084  0.5227 -1.7303  0.0536
  407TIP3   OH222635   3.737   1.174   5.012  0.0097 -0.2474  0.1327
  407TIP3    H122636   3.728   1.176   4.917 -0.2773  1.7087  0.1527
  407TIP3    H222637   3.811   1.116   5.029  0.0641 -0.6071 -1.2723
  408TIP3   OH222638   1.969   1.194   1.995  0.0480 -0.4826  0.0447
  408TIP3    H122639   1.916   1.267   1.963  0.2377 -1.0278 -1.6356
  408TIP3    H222640   2.056   1.231   2.009  0.1150 -0.3441 -0.6938
  409TIP3   OH222641   2.208   4.911   6.414 -0.4265  0.1899 -0.0063
  409TIP3    H122642   2.268   4.861   6.469  0.1782  2.3937  1.4725
  409TIP3    H222643   2.235   4.892   6.324  0.0709 -1.6959  0.5010
  410TIP3   OH222644   0.264   5.714  11.505  0.6333  0.5203 -0.1961
  410TIP3    H122645   0.236   5.690  11.417  0.5286 -0.4563  0.0882
  410TIP3    H222646   0.186   5.751  11.547 -0.4561 -2.4534  0.6924
  411TIP3   OH222647   5.377   3.352  16.126 -0.9343 -0.0577  0.0762
  411TIP3    H122648   5.398   3.416  16.057 -3.5090  2.4491  1.3706
  411TIP3    H222649   5.330   3.282  16.081  0.4148 -0.1978 -1.1594
  412TIP3   OH222650   0.298   6.121   0.072  0.4772 -0.3751 -0.3961
  412TIP3    H122651   0.241   6.178   0.124  1.2474  0.1191 -0.0881
  412TIP3    H222652   0.288   6.035   0.112 -1.1443 -0.6274 -1.2216
  413TIP3   OH222653   2.667   1.722  14.246 -0.2867 -0.1998 -0.5483
  413TIP3    H122654   2.596   1.674  14.203 -1.8817  0.4942  1.1583
  413TIP3    H222655   2.739   1.659  14.252 -1.5319 -1.6723 -0.3736
  414TIP3   OH222656   5.575   4.038  12.995  0.1295 -0.3558 -0.0170
  414TIP3    H122657   5.522   4.100  12.946 -1.4700 -0.7172  1.1884
  414TIP3    H222658   5.553   4.055  13.087  3.0136  0.2980  0.6559
  415TIP3   OH222659   1.401   4.521   2.945 -0.1614  0.2347 -0.2177
  415TIP3    H122660   1.417   4.536   3.038 -0.1085 -0.1421 -0.1626
  415TIP3    H222661   1.423   4.428   2.932  2.3240  0.8804 -1.1458
  416TIP3   OH222662   6.351   0.696  12.144  0.6019 -0.5588 -0.0812
  416TIP3    H122663   6.263   0.663  12.122 -0.1352  0.8039  0.6892
  416TIP3    H222664   6.339   0.790  12.152  1.8864 -0.4907  1.2241
  417TIP3   OH222665   4.058   3.444   4.755 -0.4084 -0.1776  0.0066
  417TIP3    H122666   4.094   3.457   4.842  0.2121 -0.0530 -0.2610
  417TIP3    H222667   4.041   3.350   4.750 -0.9833 -0.1003  0.4617
  418TIP3   OH222668   3.316   6.730   3.005  0.0171  0.3254  0.3714
  418TIP3    H122669   3.397   6.682   3.021  0.3292  0.8447  0.3614
  418TIP3    H222670   3.262   6.714   3.083  1.2149  2.2049  1.6784
  419TIP3   OH222671   2.021   6.500   0.219 -0.6483  0.7843 -0.1668
  419TIP3    H122672   2.111   6.467   0.222 -0.7036  0.7371  1.3273
  419TIP3    H222673   2.027   6.581   0.168  0.2285  0.7391 -0.1490
  420TIP3   OH222674   2.882   5.317  12.672 -0.4410  0.4787  0.5977
  420TIP3    H122675   2.832   5.395  12.697 -0.8994  0.5131 -0.3962
  420TIP3    H222676   2.956   5.317  12.732 -0.3158  1.8039  0.4795
  421TIP3   OH222677   2.399   5.242  13.456  0.1374 -0.5511 -0.1976
  421TIP3    H122678   2.439   5.179  13.516 -1.6663 -0.9061  0.7041
  421TIP3    H222679   2.368   5.313  13.513 -0.7596 -0.4396 -0.7946
  422TIP3   OH222680   0.099   3.592   1.904  0.0017 -0.5394 -0.4813
  422TIP3    H122681   0.154   3.669   1.922  2.3256 -1.9238 -1.1788
  422TIP3    H222682   0.102   3.583   1.808 -0.1093 -1.5607 -0.3985
  423TIP3   OH222683   0.415   5.824   4.651  0.5419 -0.0678  0.2121
  423TIP3    H122684   0.365   5.762   4.597 -0.8002  1.1836 -0.0327
  423TIP3    H222685   0.385   5.910   4.623  3.9006  0.8728 -0.9876
  424TIP3   OH222686   2.620   0.737  17.121 -0.0980 -0.4338  0.5340
  424TIP3    H122687   2.654   0.723  17.033  1.8132  0.6513  1.0387
  424TIP3    H222688   2.573   0.656  17.142 -0.5195 -0.7438 -1.4133
  425TIP3   OH222689   0.052   5.462   5.380 -0.3807 -0.0401  0.3948
  425TIP3    H122690   0.074   5.369   5.390 -0.8844 -0.1395  0.5687
  425TIP3    H222691   0.091   5.504   5.457 -0.8709 -0.2333  0.7563
  426TIP3   OH222692   1.337   1.898  14.713 -0.0008  0.3163  0.1683
  426TIP3    H122693   1.273   1.834  14.745 -0.9397  0.5667 -1.0912
  426TIP3    H222694   1.290   1.982  14.714  0.9442  0.8499  1.0229
  427TIP3   OH222695   2.824   5.275  15.131  0.6360 -0.0349 -0.1455
  427TIP3    H122696   2.856   5.309  15.214  1.2533 -2.3537  0.6469
  427TIP3    H222697   2.902   5.264  15.077  0.2015  1.7919 -1.2178
  428TIP3   OH222698   3.812   0.933   5.651 -0.7430  0.4914  0.0148
  428TIP3    H122699   3.841   0.861   5.706  1.0284 -0.0690 -1.5415
  428TIP3    H222700   3.848   1.011   5.693 -1.9862  0.4310  1.2644
  429TIP3   OH222701   0.395   4.064  12.401 -0.1861 -0.0453  0.0025
  429TIP3    H122702   0.479   4.070  12.356  0.6643 -1.7566  1.2598
  429TIP3    H222703   0.387   4.146  12.449  1.6314 -0.5638  1.2652
  430TIP3   OH222704   6.710   1.811   6.293 -0.4397 -0.3274 -0.2902
  430TIP3    H122705   6.730   1.825   6.200 -2.5811 -0.9455 -0.9211
  430TIP3    H222706   6.753   1.882   6.338  1.7569 -0.7465 -1.5925
  431TIP3   OH222707   5.906   6.689  12.572  0.0603  0.4170 -0.0087
  431TIP3    H122708   5.868   6.743  12.642  1.5927  0.9465  0.4502
  431TIP3    H222709   5.924   6.605  12.614  0.1884  0.4521  0.0068
  432TIP3   OH222710   6.126   1.520   2.751 -0.1976 -0.2759 -0.1390
  432TIP3    H122711   6.108   1.614   2.762 -1.6425 -0.5092 -0.3583
  432TIP3    H222712   6.221   1.513   2.760 -0.2850  0.8378  2.5483
  433TIP3   OH222713   6.752   5.355  14.722  1.9021 -0.3848 -0.0529
  433TIP3    H122714   6.745   5.439  14.768  0.0190 -0.9921  0.8972
  433TIP3    H222715   6.794   5.297  14.785  0.8573 -0.7849  0.3004
  434TIP3   OH222716   2.111   3.884   3.922 -0.3227 -0.1289  0.1869
  434TIP3    H122717   2.155   3.834   3.991  0.3095  0.9142  0.5494
  434TIP3    H222718   2.136   3.840   3.841  2.6755  1.2876  0.2273
  435TIP3   OH222719   0.544   0.464   4.515 -0.1891 -0.2043  0.5122
  435TIP3    H122720   0.468   0.474   4.459 -0.0349  1.0706  0.4980
  435TIP3    H222721   0.617   0.496   4.462  0.1393 -0.1143  1.0094
  436TIP3   OH222722   0.155   4.497  17.185 -0.2698 -0.1698 -0.4784
  436TIP3    H122723   0.085   4.486  17.120  0.3687 -0.3154 -1.1578
  436TIP3    H222724   0.136   4.431  17.252 -2.5028  1.7604  0.9531
  437TIP3   OH222725   6.546   5.016  13.777 -0.4095 -0.8143  0.3155
  437TIP3    H122726   6.469   5.033  13.830 -1.6120 -0.2263 -1.5455
  437TIP3    H222727   6.529   4.931  13.736  0.5477 -1.3107  0.9132
  438TIP3   OH222728   5.663   2.245   2.172  0.7339  0.4215 -0.1265
  438TIP3    H122729   5.694   2.177   2.113  0.6959 -0.4019  0.7673
  438TIP3    H222730   5.567   2.236   2.170  0.7585 -0.1155  0.6114
  439TIP3   OH222731   3.414   2.099   1.941 -0.3043 -0.1443  0.1722
  439TIP3    H122732   3.345   2.153   1.902  0.5820  1.0832  0.2375
  439TIP3    H222733   3.456   2.156   2.006  0.7753 -0.8591  0.1373
  440TIP3   OH222734   3.680   1.492  13.343  0.4134 -0.6049 -0.1328
  440TIP3    H122735   3.666   1.568  13.400  1.9572 -0.9871  0.8253
  440TIP3    H222736   3.611   1.497  13.278  0.2463  1.4067  0.1501
  441TIP3   OH222737   2.118   5.138  14.735 -0.1095  0.2025  0.5288
  441TIP3    H122738   2.213   5.124  14.732 -0.2981 -1.0597 -0.5124
  441TIP3    H222739   2.106   5.229  14.709  0.9145  1.0573  2.7192
  442TIP3   OH222740   0.879   0.668   2.437  0.2468 -0.3162  0.8816
  442TIP3    H122741   0.913   0.705   2.518  2.4132  0.6562 -0.3737
  442TIP3    H222742   0.820   0.598   2.465  0.7754  0.1221  3.2691
  443TIP3   OH222743   4.863   4.245  10.849  0.1172  0.4309  0.2113
  443TIP3    H122744   4.931   4.260  10.782 -0.9209  0.0414 -0.9794
  443TIP3    H222745   4.783   4.280  10.809 -0.4008  0.8187  1.5612
  444TIP3   OH222746   3.135   1.132   0.404  0.2901  0.7606 -0.1534
  444TIP3    H122747   3.221   1.164   0.376  0.4527  0.4521 -0.0086
  444TIP3    H222748   3.080   1.139   0.326  1.3140 -2.2346 -1.2826
  445TIP3   OH222749   3.792   5.654   4.473 -0.2800 -0.2034 -0.2975
  445TIP3    H122750   3.775   5.690   4.561 -0.9963  2.2241 -1.3437
  445TIP3    H222751   3.884   5.674   4.457 -0.0762 -0.8865 -0.0270
  446TIP3   OH222752   4.977   1.682   0.369  0.2632 -0.4001 -0.2036
  446TIP3    H122753   4.949   1.763   0.326 -0.1394 -0.4847 -0.1024
  446TIP3    H222754   4.942   1.688   0.458  2.1396  0.3397  0.5244
  447TIP3   OH222755   3.363   6.592  15.233  0.0535  0.6473  0.4018
  447TIP3    H122756   3.433   6.648  15.197 -0.2396  0.0676 -1.1667
  447TIP3    H222757   3.286   6.613  15.180  0.0605 -1.5651 -0.5932
  448TIP3   OH222758   4.781   5.255   4.552  0.3140  0.1119 -0.0415
  448TIP3    H122759   4.873   5.275   4.536  0.6403 -1.1101  0.2363
  448TIP3    H222760   4.759   5.187   4.489  0.1746 -1.0264  1.2008
  449TIP3   OH222761   2.416   4.985  16.653 -0.2357  0.2041  1.0418
  449TIP3    H122762   2.405   4.962  16.746  0.8673  0.3650  1.2170
  449TIP3    H222763   2.499   5.032  16.649 -1.0703  1.6729  0.2236
  450TIP3   OH222764   1.211   5.330   4.136  0.1786 -0.0637 -0.7718
  450TIP3    H122765   1.225   5.354   4.045 -0.4608  1.4240 -0.5047
  450TIP3    H222766   1.238   5.407   4.186  1.0046 -1.0377  0.3395
  451TIP3   OH222767   5.291   0.938  13.867  0.1670  0.1817 -0.2224
  451TIP3    H122768   5.234   0.965  13.794  2.0479 -0.6437 -2.1187
  451TIP3    H222769   5.367   0.899  13.824  2.5322  1.8562  2.1421
  452TIP3   OH222770   3.112   4.343  13.057  0.2873 -0.4025 -0.5651
  452TIP3    H122771   3.196   4.354  13.101  0.6613  0.7268 -1.4962
  452TIP3    H222772   3.131   4.362  12.965 -0.5704 -2.2288 -1.1506
  453TIP3   OH222773   6.293   6.377  14.482  0.1814 -0.4979  0.7322
  453TIP3    H122774   6.343   6.418  14.410 -0.3268 -0.9169  0.1292
  453TIP3    H222775   6.358   6.366  14.552  0.6488  0.0738  0.4026
  454TIP3   OH222776   3.060   3.934   5.284 -0.0119  0.3627 -0.1407
  454TIP3    H122777   3.094   3.968   5.367 -1.1185 -0.8620  0.8520
  454TIP3    H222778   3.099   3.847   5.276 -1.1627 -0.1724 -0.0855
  455TIP3   OH222779   0.881   6.441   1.491 -0.6801  0.2230  0.0009
  455TIP3    H122780   0.961   6.426   1.540 -2.0862  0.2861  2.5129
  455TIP3    H222781   0.897   6.404   1.404  1.8629 -0.1386  0.5676
  456TIP3   OH222782   2.295   5.824   4.350  0.4665 -0.0616  0.0072
  456TIP3    H122783   2.247   5.784   4.277  1.0152  0.4195 -0.6360
  456TIP3    H222784   2.245   5.903   4.370  1.0689  0.5433 -0.7932
  457TIP3   OH222785   1.359   4.041  13.740  0.5459 -0.4983 -0.9052
  457TIP3    H122786   1.278   4.047  13.791  1.7438  0.5305  1.0200
  457TIP3    H222787   1.330   4.017  13.652 -1.7948 -0.6462 -0.1755
  458TIP3   OH222788   1.857   6.455   5.606 -0.2050  0.7426 -0.4681
  458TIP3    H122789   1.790   6.413   5.660  2.0169 -3.3030 -0.4362
  458TIP3    H222790   1.839   6.424   5.518  2.0666 -1.2964 -0.3004
  459TIP3   OH222791   6.362   2.320  15.089  0.1226  0.5789  0.1035
  459TIP3    H122792   6.455   2.324  15.113  0.0171 -1.6401  1.1684
  459TIP3    H222793   6.316   2.335  15.172 -0.3475 -2.1124  0.4213
  460TIP3   OH222794   1.036   6.584  16.672 -0.1397 -0.0142 -0.1722
  460TIP3    H122795   1.109   6.592  16.733 -0.0090  0.4495 -0.3762
  460TIP3    H222796   0.969   6.535  16.719  0.3743 -0.6006 -0.0454
  461TIP3   OH222797   0.292   2.150  11.668 -0.0474  0.2599  0.1976
  461TIP3    H122798   0.386   2.167  11.674  0.1632  1.0728 -3.2678
  461TIP3    H222799   0.286   2.057  11.645 -0.0125  0.3942 -0.3753
  462TIP3   OH222800   3.033   1.711  16.127  0.0358 -0.2622 -0.2241
  462TIP3    H122801   3.115   1.724  16.176 -1.2990  0.4188  1.9703
  462TIP3    H222802   2.994   1.798  16.122 -1.6352 -0.8955  0.8778
  463TIP3   OH222803   2.565   0.926  12.938  0.3817  0.6543  0.4488
  463TIP3    H122804   2.543   0.992  13.003 -1.5191  1.0165 -0.4878
  463TIP3    H222805   2.527   0.845  12.972  0.2138  0.6476  0.2480
  464TIP3   OH222806   4.866   4.716   5.913  0.1236 -0.4471 -0.6594
  464TIP3    H122807   4.847   4.798   5.868  0.0693 -0.8172 -1.3240
  464TIP3    H222808   4.927   4.740   5.983 -1.3268  0.4681  0.3488
  465TIP3   OH222809   0.695   1.833  15.737  1.0571 -0.0326 -0.6124
  465TIP3    H122810   0.776   1.872  15.769 -0.2492  1.9121  0.5495
  465TIP3    H222811   0.698   1.742  15.767  1.0821  1.0099  3.0138
  466TIP3   OH222812   0.177   6.190  15.703 -0.6136 -0.5322  0.3553
  466TIP3    H122813   0.177   6.252  15.776 -0.8928  0.8709 -0.7939
  466TIP3    H222814   0.163   6.244  15.625 -1.0984 -2.0723 -0.6761
  467TIP3   OH222815   2.566   0.825   4.241 -0.4261 -0.2408  0.1087
  467TIP3    H122816   2.640   0.767   4.221 -0.3073 -0.2831  0.6614
  467TIP3    H222817   2.534   0.853   4.155  0.1098 -0.3770 -0.1402
  468TIP3   OH222818   0.601   3.976  15.167  0.4582 -0.3616  0.3120
  468TIP3    H122819   0.663   4.012  15.230  0.7850  2.4166 -1.3996
  468TIP3    H222820   0.517   4.017  15.190 -0.0459 -1.5019  0.5848
  469TIP3   OH222821   2.705   4.172  10.762 -0.1022 -0.1678  0.4063
  469TIP3    H122822   2.781   4.219  10.729 -0.5307  0.3686  0.1608
  469TIP3    H222823   2.632   4.203  10.707 -0.8985  0.9701  2.0308
  470TIP3   OH222824   6.452   5.160  12.021 -0.1930 -0.7265 -0.0067
  470TIP3    H122825   6.412   5.200  11.945  0.6304 -1.5641 -0.9136
  470TIP3    H222826   6.454   5.067  12.001  1.1909 -0.8244  0.4610
  471TIP3   OH222827   2.325   0.852  11.436 -0.4049  0.3402  0.1059
  471TIP3    H122828   2.402   0.890  11.479  0.1561 -0.8351  0.1814
  471TIP3    H222829   2.354   0.832  11.347 -1.4111  2.2817 -0.7283
  472TIP3   OH222830   6.436   6.257   3.548  0.2262 -0.4260  0.4976
  472TIP3    H122831   6.503   6.322   3.526  1.0214 -0.7841  1.7973
  472TIP3    H222832   6.412   6.276   3.639  0.9678 -2.3513  1.1432
  473TIP3   OH222833   2.664   5.766  15.908 -0.3721 -0.0810  0.0235
  473TIP3    H122834   2.729   5.827  15.872 -0.2172 -0.8788 -1.1451
  473TIP3    H222835   2.588   5.819  15.927  0.2890  0.7185  0.4904
  474TIP3   OH222836   4.870   2.621  11.899  0.2061  0.0524  0.2945
  474TIP3    H122837   4.906   2.661  11.978 -1.3079  1.1235  0.4801
  474TIP3    H222838   4.933   2.643  11.830  2.5499 -2.4831  1.4336
  475TIP3   OH222839   1.370   6.218  15.182 -0.0570 -0.1070 -0.5026
  475TIP3    H122840   1.464   6.200  15.171  0.1587  1.2436 -0.9667
  475TIP3    H222841   1.340   6.149  15.242  1.1559 -0.7444 -0.5891
  476TIP3   OH222842   2.893   2.826   0.999  0.6330 -0.1220 -0.3992
  476TIP3    H122843   2.882   2.745   0.949  2.0540 -0.8142  0.3322
  476TIP3    H222844   2.838   2.890   0.954 -1.2380 -1.7026 -0.4659
  477TIP3   OH222845   3.505   3.498  12.069 -0.0445 -0.6720  0.2820
  477TIP3    H122846   3.417   3.462  12.081 -0.2263 -0.1493  0.5092
  477TIP3    H222847   3.503   3.538  11.982  0.5288 -2.2699 -0.5093
  478TIP3   OH222848   4.886   3.174   4.866  0.6988 -0.0631 -0.0112
  478TIP3    H122849   4.801   3.216   4.879  0.8657  0.5771 -0.8916
  478TIP3    H222850   4.869   3.103   4.804  1.1636  1.4816 -2.0105
  479TIP3   OH222851   3.653   5.801   1.372  0.3163  0.3642 -0.0861
  479TIP3    H122852   3.567   5.828   1.340  0.4442  0.5822 -0.2463
  479TIP3    H222853   3.715   5.842   1.312  0.5158 -0.2095 -0.2827
  480TIP3   OH222854   4.591   2.792  16.326 -0.1464  0.0970 -0.1139
  480TIP3    H122855   4.544   2.874  16.309 -0.3389  0.2574  1.1284
  480TIP3    H222856   4.665   2.794  16.265 -0.0849  1.2555 -0.0204
  481TIP3   OH222857   0.219   4.968   6.154 -0.2986 -0.0133  0.1826
  481TIP3    H122858   0.259   4.914   6.221  2.7145 -0.7791 -2.0343
  481TIP3    H222859   0.138   4.923   6.131 -0.0223 -1.1736  1.4297
  482TIP3   OH222860   2.191   5.801   2.096  0.2871 -0.1391 -0.4342
  482TIP3    H122861   2.281   5.829   2.077 -0.7043  0.8519 -4.8468
  482TIP3    H222862   2.137   5.878   2.078 -1.6635 -1.6012 -1.2358
  483TIP3   OH222863   6.270   3.496  11.088  0.0149 -0.2172 -0.1792
  483TIP3    H122864   6.179   3.524  11.076  0.1748  0.5911  0.4159
  483TIP3    H222865   6.272   3.407  11.053 -1.1553 -0.4708  0.3252
  484TIP3   OH222866   0.665   0.378  12.807 -0.0003  0.0305 -0.0399
  484TIP3    H122867   0.651   0.466  12.843  0.9089 -0.3528  1.3237
  484TIP3    H222868   0.626   0.319  12.871  0.3779 -0.6099 -0.3875
  485TIP3   OH222869   0.545   0.698   2.809  0.2702  0.1231  0.1432
  485TIP3    H122870   0.485   0.769   2.783 -0.3684 -0.1030  0.9412
  485TIP3    H222871   0.603   0.687   2.734 -2.2629 -1.3707 -1.7812
  486TIP3   OH222872   0.896   3.121   1.445 -0.3520 -0.3821 -0.3002
  486TIP3    H122873   0.971   3.077   1.484 -0.1100  0.3928  0.1301
  486TIP3    H222874   0.837   3.137   1.518 -0.7654 -0.6507 -0.5739
  487TIP3   OH222875   3.418   4.975  16.827 -0.2150 -0.0728  0.4544
  487TIP3    H122876   3.435   4.985  16.921  0.6546 -0.0587  0.3105
  487TIP3    H222877   3.325   4.994  16.817 -0.4257 -0.5547  1.3800
  488TIP3   OH222878   3.152   4.705   0.954  0.1698 -0.1152  0.2249
  488TIP3    H122879   3.155   4.766   1.028 -0.0575  0.3033 -0.1037
  488TIP3    H222880   3.080   4.646   0.975 -0.9286  0.9561 -0.3700
  489TIP3   OH222881   3.587   0.640  12.493 -0.4610  0.2231  0.0829
  489TIP3    H122882   3.498   0.620  12.463 -0.3451 -1.6882  0.8719
  489TIP3    H222883   3.619   0.558  12.530  1.2634  1.1523  0.7744
  490TIP3   OH222884   4.537   0.212   0.435 -0.0407 -0.0204  0.1444
  490TIP3    H122885   4.509   0.226   0.344 -0.8316  0.8373  0.5047
  490TIP3    H222886   4.576   0.296   0.461 -0.4828 -0.0192  0.8203
  491TIP3   OH222887   5.011   1.261  12.770  0.2871 -0.1856 -0.2084
  491TIP3    H122888   5.053   1.204  12.705 -2.5721 -1.8459 -0.7609
  491TIP3    H222889   4.918   1.254  12.752 -0.3783  2.6256  1.4955
  492TIP3   OH222890   0.845   1.514   5.789  1.2085  0.0018 -0.5477
  492TIP3    H122891   0.780   1.447   5.770 -0.2047  1.6648 -1.9184
  492TIP3    H222892   0.847   1.519   5.884 -0.3694 -0.4117 -0.4651
  493TIP3   OH222893   0.548   4.011  15.792 -0.3874  0.3404 -0.0303
  493TIP3    H122894   0.595   4.079  15.841 -0.6406  0.0413  0.6302
  493TIP3    H222895   0.459   4.045  15.782  0.0885  1.2148 -1.8695
  494TIP3   OH222896   1.932   2.845  15.518 -0.6141 -0.1536  0.1217
  494TIP3    H122897   2.020   2.882  15.520 -0.8847  0.5757 -0.8063
  494TIP3    H222898   1.930   2.784  15.592  0.0278  1.2642  1.3554
  495TIP3   OH222899   6.169   5.394  12.043 -0.4452  0.1338 -0.1226
  495TIP3    H122900   6.208   5.364  11.961  0.2826  0.7767 -0.0276
  495TIP3    H222901   6.167   5.490  12.035  1.3930  0.3512  1.3335
  496TIP3   OH222902   2.063   1.491   5.482  0.3324 -1.0218  0.7376
  496TIP3    H122903   1.992   1.435   5.451 -0.6692 -0.1876  1.4342
  496TIP3    H222904   2.018   1.570   5.514  1.6709  0.1373 -0.1196
  497TIP3   OH222905   5.187   4.939  13.608 -0.5441  0.1449 -0.0994
  497TIP3    H122906   5.142   5.022  13.591  2.2182  1.9269  0.5704
  497TIP3    H222907   5.246   4.958  13.682  2.9144 -1.2467 -2.2252
  498TIP3   OH222908   3.838   5.622   3.300 -0.1815 -0.1819 -0.0929
  498TIP3    H122909   3.841   5.526   3.299 -1.3648 -0.2390 -0.8824
  498TIP3    H222910   3.747   5.642   3.320  0.2692  0.7980  1.0189
  499TIP3   OH222911   3.825   4.160  11.848  0.0408 -0.1852  0.6089
  499TIP3    H122912   3.814   4.235  11.789 -0.6429 -0.1270  0.7940
  499TIP3    H222913   3.804   4.084  11.794 -0.2136 -0.1601  0.6663
  500TIP3   OH222914   6.436   1.385  11.716  0.4513 -0.1625  0.1854
  500TIP3    H122915   6.378   1.453  11.751  0.7753 -0.1297  0.6725
  500TIP3    H222916   6.382   1.337  11.653  0.3843  0.9173 -0.6039
  501TIP3   OH222917   1.072   3.200   1.885  0.2041 -0.6033  0.2358
  501TIP3    H122918   1.144   3.249   1.926  0.3763 -0.3844 -0.3215
  501TIP3    H222919   1.097   3.109   1.895 -0.5131 -0.6394  2.0145
  502TIP3   OH222920   1.829   2.455   4.288 -0.2299 -0.5622  0.6190
  502TIP3    H122921   1.733   2.448   4.283 -0.3375  0.9000  0.0847
  502TIP3    H222922   1.858   2.450   4.197  0.1554 -0.4940  0.7370
  503TIP3   OH222923   3.002   0.416   0.610 -0.5743  0.1024 -0.5172
  503TIP3    H122924   2.969   0.445   0.524 -1.5665 -0.2277 -0.2574
  503TIP3    H222925   3.082   0.366   0.589 -0.3510  0.7160 -1.1768
  504TIP3   OH222926   1.667   0.108   2.778 -0.3757 -0.5374 -0.7594
  504TIP3    H122927   1.743   0.064   2.740  0.5516  0.8472 -0.5997
  504TIP3    H222928   1.596   0.090   2.717  0.1581 -1.5598 -1.1074
  505TIP3   OH222929   3.457   6.225   4.007 -0.4411  0.2905 -0.2294
  505TIP3    H122930   3.483   6.266   3.925  1.2572 -1.0298 -0.4008
  505TIP3    H222931   3.417   6.296   4.057 -2.4901  0.9076 -2.5449
  506TIP3   OH222932   2.120   6.496  16.097  0.0014  0.0177 -0.0513
  506TIP3    H122933   2.148   6.425  16.039 -2.2475 -1.2376  0.3263
  506TIP3    H222934   2.025   6.496  16.093 -0.1309  1.8845  1.3455
  507TIP3   OH222935   5.820   1.325   0.258  0.4935 -0.1979  0.4151
  507TIP3    H122936   5.896   1.271   0.237  0.2652 -1.3557  2.3366
  507TIP3    H222937   5.790   1.358   0.173  0.7886 -2.9150 -0.8724
  508TIP3   OH222938   4.694   4.294   1.758  0.0088 -0.4179 -0.3481
  508TIP3    H122939   4.713   4.275   1.850  1.1553  2.4813  0.1075
  508TIP3    H222940   4.599   4.294   1.752 -0.1038  0.5864  1.1536
  509TIP3   OH222941   0.565   0.467   2.975 -0.6785 -0.0243 -0.2100
  509TIP3    H122942   0.569   0.536   2.908  0.1119  0.0788 -0.0740
  509TIP3    H222943   0.579   0.512   3.058  2.1982 -0.5452 -0.2810
  510TIP3   OH222944   2.484   1.053  15.877 -0.2329  0.1331  0.0531
  510TIP3    H122945   2.431   1.056  15.797 -1.6337  0.0673  0.9389
  510TIP3    H222946   2.470   0.965  15.912  0.0938  0.2705  0.5431
  511TIP3   OH222947   5.994   2.747  11.649  0.3246 -0.6221 -0.1729
  511TIP3    H122948   6.056   2.683  11.613  1.2110 -0.0364  0.2864
  511TIP3    H222949   5.909   2.703  11.642  1.0161 -2.2784  1.0237
  512TIP3   OH222950   4.937   6.731  16.347  0.3396  0.2743  0.1085
  512TIP3    H122951   4.898   6.818  16.354 -0.3237 -0.0872  1.2902
  512TIP3    H222952   4.865   6.675  16.319  0.3405 -0.1553  0.9305
  513TIP3   OH222953   4.591   5.518   0.539  0.1775  0.2236 -0.3250
  513TIP3    H122954   4.650   5.467   0.482  0.2394 -1.1624  0.9173
  513TIP3    H222955   4.538   5.569   0.478 -0.7011 -2.2057 -1.7499
  514TIP3   OH222956   5.681   6.773  15.308  0.3677 -0.4288  0.4733
  514TIP3    H122957   5.667   6.831  15.233 -2.5328  0.0089  1.2284
  514TIP3    H222958   5.775   6.757  15.309  0.6798  0.6938 -2.3871
  515TIP3   OH222959   1.963   3.385   1.218 -0.5057  0.6830  0.4452
  515TIP3    H122960   1.880   3.433   1.208 -0.9858 -0.3115 -0.5189
  515TIP3    H222961   1.943   3.315   1.280 -0.1803  0.8573  0.7554
  516TIP3   OH222962   0.256   1.540   4.238 -0.3943 -0.5455  0.0605
  516TIP3    H122963   0.213   1.521   4.155 -0.6410 -1.1089  0.3077
  516TIP3    H222964   0.208   1.614   4.274 -1.2872 -1.2826  0.4161
  517TIP3   OH222965   0.148   4.487   5.678 -0.2971 -0.0976 -0.2988
  517TIP3    H122966   0.088   4.439   5.621  0.7786  0.2281 -1.7549
  517TIP3    H222967   0.178   4.421   5.742 -2.2222 -0.2397  0.5317
  518TIP3   OH222968   2.338   0.633  13.495  0.4914 -0.0284  0.5955
  518TIP3    H122969   2.301   0.548  13.517 -0.4635  0.1538 -0.2401
  518TIP3    H222970   2.429   0.615  13.471 -0.3577 -1.2391 -2.1133
  519TIP3   OH222971   1.486   1.295  12.794 -0.0602 -0.2267  0.2604
  519TIP3    H122972   1.576   1.276  12.821  0.8253 -0.0752 -2.3293
  519TIP3    H222973   1.494   1.370  12.735 -2.1649  1.0936  1.5424
  520TIP3   OH222974   6.192   0.091   5.327  0.1003  0.2170  0.2857
  520TIP3    H122975   6.263   0.083   5.392 -0.7805  0.2073  1.2672
  520TIP3    H222976   6.112   0.075   5.377 -0.6916  1.3547 -0.5608
  521TIP3   OH222977   0.472   5.833  14.574  0.2754  0.6468 -0.5138
  521TIP3    H122978   0.561   5.815  14.606  0.3319  2.4498  0.4579
  521TIP3    H222979   0.423   5.858  14.652 -1.4303 -1.3587 -0.8560
  522TIP3   OH222980   3.085   1.153   5.716  0.4371  0.8069  0.3753
  522TIP3    H122981   2.999   1.191   5.699  0.4837  0.6908 -0.1338
  522TIP3    H222982   3.146   1.215   5.675  0.4790 -0.1597 -1.1131
  523TIP3   OH222983   2.569   2.615  15.005 -0.1421  0.3260 -0.8239
  523TIP3    H122984   2.612   2.676  14.945 -1.3877  0.6832 -1.3821
  523TIP3    H222985   2.637   2.550  15.025  1.1899  1.8227 -0.2650
  524TIP3   OH222986   4.394   3.003  11.275  0.1102  0.5460 -0.3876
  524TIP3    H122987   4.340   3.077  11.247 -0.8145  0.1460  0.3330
  524TIP3    H222988   4.354   2.972  11.356  0.2186 -1.0400 -0.9093
  525TIP3   OH222989   1.474   1.370   0.136  0.0265  0.2110 -0.3719
  525TIP3    H122990   1.563   1.363   0.102  0.1343 -0.0203 -0.0527
  525TIP3    H222991   1.461   1.463   0.150  0.3919  0.2070  0.0238
  526TIP3   OH222992   5.741   1.703  12.989 -0.2359 -0.1437  0.7119
  526TIP3    H122993   5.812   1.673  13.046  0.2503  0.7988  0.6177
  526TIP3    H222994   5.780   1.709  12.902 -0.2051  1.1161  0.7954
  527TIP3   OH222995   1.990   4.821   2.273  0.2117  0.7014 -0.3045
  527TIP3    H122996   2.040   4.740   2.279 -0.9103 -0.0357 -0.5627
  527TIP3    H222997   2.052   4.886   2.241  0.6988 -0.4611 -1.7984
  528TIP3   OH222998   4.331   4.805  13.102 -0.0550  0.4582  0.0525
  528TIP3    H122999   4.263   4.851  13.053  0.5255  1.5425  0.2411
  528TIP3    H223000   4.412   4.848  13.076  0.5639 -0.7455 -0.0796
  529TIP3   OH223001   1.018   5.742   1.644 -0.2053 -0.0237  0.5532
  529TIP3    H123002   1.079   5.739   1.718 -0.8747  1.6775  1.2291
  529TIP3    H223003   0.940   5.697   1.676 -0.7032  1.1972  1.1389
  530TIP3   OH223004   2.251   0.890  16.638  0.1440 -0.0125  0.0635
  530TIP3    H123005   2.253   0.948  16.562  1.8799 -0.5704 -0.3567
  530TIP3    H223006   2.165   0.906  16.678 -0.0430  1.6724 -0.9227
  531TIP3   OH223007   6.303   2.300  13.724  0.3996 -0.7730 -0.1069
  531TIP3    H123008   6.233   2.314  13.788  0.6189 -0.2567  0.0318
  531TIP3    H223009   6.299   2.378  13.668  2.0320  0.2066  1.0234
  532TIP3   OH223010   1.878   0.681  16.835  0.5957 -0.2894 -0.1080
  532TIP3    H123011   1.841   0.656  16.920 -0.1627 -0.1373 -0.3885
  532TIP3    H223012   1.816   0.648  16.771  0.1682  1.2632 -0.5354
  533TIP3   OH223013   5.788   6.111   1.657 -0.8427  0.8218  0.2385
  533TIP3    H123014   5.776   6.176   1.587 -1.9455  0.4891  0.1084
  533TIP3    H223015   5.877   6.128   1.690 -0.7726  1.7915 -0.4082
  534TIP3   OH223016   0.478   2.665   0.447 -0.0533  0.2024 -0.6985
  534TIP3    H123017   0.545   2.630   0.388 -0.6129 -0.6373 -0.8508
  534TIP3    H223018   0.397   2.657   0.398 -0.3937  0.3541 -0.1622
  535TIP3   OH223019   0.679   4.795   4.382 -0.7144 -0.0761  0.3938
  535TIP3    H123020   0.661   4.829   4.470 -0.9963 -1.7284  1.0263
  535TIP3    H223021   0.619   4.844   4.325 -0.9647  0.5987  1.2124
  536TIP3   OH223022   1.868   4.463   0.769 -0.0253  0.8590  0.1036
  536TIP3    H123023   1.923   4.459   0.691  0.1133 -0.8888  0.2543
  536TIP3    H223024   1.817   4.382   0.767 -0.7641  1.2657  1.2974
  537TIP3   OH223025   5.888   3.454  16.644  0.2031 -0.8831  0.4035
  537TIP3    H123026   5.965   3.509  16.629  0.1131 -0.5174  1.2482
  537TIP3    H223027   5.821   3.514  16.678 -0.7151 -1.0516 -1.0242
  538TIP3   OH223028   1.050   5.219  11.543  0.0651 -0.6994 -0.3081
  538TIP3    H123029   0.986   5.273  11.589  1.1349 -0.4395  0.9269
  538TIP3    H223030   1.029   5.231  11.450 -2.1926 -1.2920  0.0657
  539TIP3   OH223031   4.390   4.338  13.080 -0.4304  0.2845 -0.4035
  539TIP3    H123032   4.314   4.394  13.072 -1.1173 -0.4136  0.8153
  539TIP3    H223033   4.410   4.337  13.174 -0.8016 -1.9051 -0.2795
  540TIP3   OH223034   0.178   4.784   2.610  0.2561 -0.0487 -0.1145
  540TIP3    H123035   0.144   4.751   2.693  2.8219 -1.0747  0.6297
  540TIP3    H223036   0.127   4.863   2.592 -1.7175 -0.9154  1.3679
  541TIP3   OH223037   0.181   2.200   1.266 -0.1175 -0.1136 -0.1252
  541TIP3    H123038   0.191   2.249   1.348  0.6048 -1.3346  0.5381
  541TIP3    H223039   0.242   2.244   1.205  0.9671 -0.5284  0.6349
  542TIP3   OH223040   3.983   3.374  12.621  0.0719  0.2479  0.7081
  542TIP3    H123041   3.963   3.466  12.607 -1.0073  0.1467  1.5356
  542TIP3    H223042   3.925   3.327  12.561  0.5301  0.0888  0.3796
  543TIP3   OH223043   2.809   2.302   1.093  0.1713  0.0471 -0.1327
  543TIP3    H123044   2.813   2.207   1.104  0.1209  0.1246  0.6556
  543TIP3    H223045   2.812   2.336   1.183  0.9192  0.8161 -0.4348
  544TIP3   OH223046   2.025   2.089  14.240 -0.0254  0.0309  0.3748
  544TIP3    H123047   2.007   2.043  14.322  3.8470 -0.7383  1.0106
  544TIP3    H223048   1.968   2.166  14.242 -0.7925 -0.4899  3.3287
  545TIP3   OH223049   0.572   4.946  17.022 -0.4061 -0.3157  0.3481
  545TIP3    H123050   0.667   4.956  17.033 -0.3704  0.9548 -0.7920
  545TIP3    H223051   0.535   4.969  17.107  0.3123 -0.9220  0.8321
  546TIP3   OH223052   2.389   3.029  14.837 -0.1680 -0.2584  0.0993
  546TIP3    H123053   2.328   2.959  14.818  0.6988 -1.5002  1.6238
  546TIP3    H223054   2.387   3.038  14.933 -1.3658  2.8835 -0.0874
  547TIP3   OH223055   2.280   4.143   0.923 -0.1613  0.4361 -0.2136
  547TIP3    H123056   2.188   4.143   0.897 -0.5121 -1.2293  0.8973
  547TIP3    H223057   2.286   4.207   0.994 -0.7229 -0.2808  0.4947
  548TIP3   OH223058   2.785   0.887  16.601  0.8711 -0.1031 -0.0083
  548TIP3    H123059   2.721   0.939  16.551  0.2050 -0.2947  0.6217
  548TIP3    H223060   2.785   0.927  16.688 -1.0439 -2.2122  1.0790
  549TIP3   OH223061   3.479   4.345  15.792 -0.0600  0.1870  0.0154
  549TIP3    H123062   3.459   4.361  15.884 -0.4280  2.6525 -0.4032
  549TIP3    H223063   3.394   4.345  15.749  0.1040 -1.0555 -0.3310
  550TIP3   OH223064   5.265   2.053  16.338 -0.3996 -1.1161  0.4618
  550TIP3    H123065   5.226   1.971  16.308  0.6042 -1.0461 -1.1985
  550TIP3    H223066   5.191   2.106  16.367 -1.1501 -2.2650  0.6825
  551TIP3   OH223067   0.021   4.983  10.889 -0.2182  0.0012  0.1474
  551TIP3    H123068   0.050   4.966  10.979 -2.0853  0.5849  0.9075
  551TIP3    H223069   0.088   5.042  10.853  0.2611  0.2258  1.3554
  552TIP3   OH223070   5.963   2.544  12.395  0.2690  0.1802  0.1067
  552TIP3    H123071   5.922   2.577  12.475 -1.3094 -1.1028 -0.1261
  552TIP3    H223072   5.954   2.616  12.332 -1.6713 -0.0393  0.0732
  553TIP3   OH223073   1.778   5.543   2.568  0.2887 -0.1910  0.0961
  553TIP3    H123074   1.823   5.561   2.651  0.9280  0.1131 -0.3118
  553TIP3    H223075   1.840   5.490   2.518 -0.0460 -0.2631 -0.2411
  554TIP3   OH223076   5.785   4.523   4.056  0.2917  0.3963  0.3040
  554TIP3    H123077   5.728   4.471   3.999 -2.1552  1.4954  1.5552
  554TIP3    H223078   5.784   4.610   4.018  1.2293  0.4175  0.3129
  555TIP3   OH223079   4.949   2.867  13.502 -0.8886  0.0043 -0.0014
  555TIP3    H123080   5.023   2.902  13.452 -1.5673  2.1077  0.3525
  555TIP3    H223081   4.898   2.817  13.438 -0.0743 -0.0340 -0.6427
  556TIP3   OH223082   4.079   2.965   5.887 -0.8755 -0.3105 -0.3737
  556TIP3    H123083   4.052   2.949   5.796 -0.0741  0.2495 -0.7226
  556TIP3    H223084   4.077   3.060   5.896 -2.8080 -0.4010  0.7989
  557TIP3   OH223085   0.347   1.137  15.785  0.3202  0.2858 -0.5739
  557TIP3    H123086   0.383   1.180  15.863 -0.4548 -1.6826  0.9697
  557TIP3    H223087   0.254   1.125  15.806  0.5579 -2.3774 -0.7296
  558TIP3   OH223088   1.726   1.469  10.700  0.0339  0.2145 -0.0792
  558TIP3    H123089   1.694   1.522  10.774 -1.2058  0.3373 -0.6673
  558TIP3    H223090   1.660   1.482  10.632  1.5520  0.7532 -1.5153
  559TIP3   OH223091   2.154   5.724   6.183  0.1645  0.1532 -0.4654
  559TIP3    H123092   2.172   5.777   6.261  0.5821  0.6761 -0.9125
  559TIP3    H223093   2.080   5.768   6.140 -0.3249 -0.3551 -0.1703
  560TIP3   OH223094   2.975   4.146   2.128  0.1022 -0.4058  0.2343
  560TIP3    H123095   2.949   4.148   2.036 -0.0833  1.2951  0.2944
  560TIP3    H223096   3.069   4.127   2.126 -0.1873 -1.9129 -0.2021
  561TIP3   OH223097   1.755   2.025  11.960  0.4983  0.1668  0.2127
  561TIP3    H123098   1.721   2.069  12.038 -1.4627  0.5152 -0.7744
  561TIP3    H223099   1.704   1.944  11.954  2.5504 -1.2394  0.7725
  562TIP3   OH223100   6.655   2.653  12.625 -0.0165  0.3132  0.3081
  562TIP3    H123101   6.619   2.703  12.551 -0.1262  0.9482  0.7840
  562TIP3    H223102   6.585   2.592  12.649  0.0143  0.1127 -0.0975
  563TIP3   OH223103   2.897   5.301  14.476  0.0513 -0.1622 -0.1004
  563TIP3    H123104   2.809   5.340  14.472  0.3476  0.7262  1.3164
  563TIP3    H223105   2.885   5.212  14.443 -1.5019 -0.2346  0.5735
  564TIP3   OH223106   3.427   0.092   3.858  0.5158  0.1189 -0.0591
  564TIP3    H123107   3.391   0.105   3.946  1.4259  0.1436  0.3287
  564TIP3    H223108   3.513   0.052   3.874  0.2930 -0.7741 -0.9806
  565TIP3   OH223109   1.770   2.377  17.040 -0.0345  0.0024 -0.2629
  565TIP3    H123110   1.756   2.471  17.032  1.4806  0.2572 -0.1216
  565TIP3    H223111   1.776   2.362  17.135  0.5849 -0.0940 -0.3148
  566TIP3   OH223112   4.948   2.975  12.750  0.3705 -0.0391 -0.8660
  566TIP3    H123113   4.974   2.891  12.787  1.6387  0.3675 -0.8051
  566TIP3    H223114   5.027   3.029  12.754 -0.4668  1.2159 -0.7379
  567TIP3   OH223115   2.014   3.508  12.325  0.6085 -0.2271 -0.0629
  567TIP3    H123116   2.087   3.479  12.380  1.5379  2.2790  0.1677
  567TIP3    H223117   1.953   3.548  12.386  0.3094  0.0822 -0.5570
  568TIP3   OH223118   5.026   1.130  11.255 -0.2262  0.4442 -0.0106
  568TIP3    H123119   4.992   1.121  11.343 -0.9462 -0.1918 -0.3405
  568TIP3    H223120   5.086   1.056  11.245  1.1988  1.4924  0.5274
  569TIP3   OH223121   4.600   4.318  14.587  0.1805 -0.0530 -0.1035
  569TIP3    H123122   4.645   4.379  14.645 -0.8642 -0.3874  1.1078
  569TIP3    H223123   4.546   4.375  14.531  0.4230  0.2231 -0.0585
  570TIP3   OH223124   2.955   0.211   5.654 -0.2339 -0.5268 -0.2934
  570TIP3    H123125   2.949   0.212   5.559 -1.8749 -0.6500 -0.2353
  570TIP3    H223126   3.032   0.158   5.674  0.2871 -0.2699 -1.5400
  571TIP3   OH223127   3.329   1.342  12.764 -0.4222 -0.2267 -0.1919
  571TIP3    H123128   3.317   1.306  12.676 -1.0267  2.2881 -1.2024
  571TIP3    H223129   3.424   1.355  12.772 -0.5096  1.1175 -1.1661
  572TIP3   OH223130   3.027   2.688   0.408  0.0441 -0.7122  0.4075
  572TIP3    H123131   3.059   2.751   0.472 -1.1939  0.4697 -0.0801
  572TIP3    H223132   3.082   2.610   0.421  2.2274  0.7372  0.4404
  573TIP3   OH223133   2.415   4.349  11.843 -0.2085  0.4363  0.4606
  573TIP3    H123134   2.329   4.391  11.841 -0.3264  0.2891  1.5414
  573TIP3    H223135   2.402   4.265  11.799 -0.6872  0.3159  0.8201
  574TIP3   OH223136   0.018   6.379   4.655 -0.2376 -0.4197 -0.0487
  574TIP3    H123137  -0.011   6.391   4.745  0.2392  0.1624  0.0324
  574TIP3    H223138   0.111   6.356   4.662 -0.0845  0.0782 -0.4095
  575TIP3   OH223139   3.638   4.848   0.206 -0.0127 -0.0615  0.2845
  575TIP3    H123140   3.718   4.799   0.223 -0.1620 -0.7387 -0.8852
  575TIP3    H223141   3.653   4.934   0.245  0.8983 -0.4997  0.9167
  576TIP3   OH223142   3.056   6.395  11.007 -0.1868  0.0802  0.2058
  576TIP3    H123143   3.041   6.316  11.059  0.0461  0.7995  1.4316
  576TIP3    H223144   2.987   6.395  10.941 -0.7234 -0.6811  0.7540
  577TIP3   OH223145   5.291   1.052  15.354  0.5987  0.0428 -0.2264
  577TIP3    H123146   5.221   1.001  15.394  1.3284  0.1008  1.1848
  577TIP3    H223147   5.325   0.995  15.285 -0.6191 -0.1004 -0.7279
  578TIP3   OH223148   2.902   3.860  13.821  0.4992  0.2687 -0.0416
  578TIP3    H123149   2.825   3.853  13.765  0.7945 -1.7811 -0.2614
  578TIP3    H223150   2.965   3.798  13.783  2.1143  1.5696  0.3785
  579TIP3   OH223151   5.175   3.220   2.597  0.0170 -0.0974 -0.4885
  579TIP3    H123152   5.257   3.179   2.626 -0.4324 -1.2625 -0.8055
  579TIP3    H223153   5.115   3.208   2.671 -0.9714 -2.6092 -1.5895
  580TIP3   OH223154   3.920   1.204   2.744  0.3867  0.0816  0.0597
  580TIP3    H123155   3.882   1.289   2.722  0.6905  0.0209 -0.7424
  580TIP3    H223156   3.872   1.142   2.690 -0.7267 -0.4469  1.5763
  581TIP3   OH223157   4.289   2.812   1.469  0.3302 -0.0465 -0.2283
  581TIP3    H123158   4.290   2.729   1.422  0.6458  0.1645 -0.5978
  581TIP3    H223159   4.303   2.788   1.561 -1.4321 -0.5563 -0.0670
  582TIP3   OH223160   5.610   1.197   5.500  0.4516 -0.1371  0.5664
  582TIP3    H123161   5.526   1.153   5.511 -0.3932  1.2610 -0.0079
  582TIP3    H223162   5.609   1.230   5.410  0.8055  1.4942  1.1222
  583TIP3   OH223163   0.697   2.299   0.026  0.1681  0.0885 -0.0834
  583TIP3    H123164   0.710   2.272   0.117 -0.8149 -2.2895 -0.5887
  583TIP3    H223165   0.604   2.286   0.010  0.2208  1.0067 -1.2935
  584TIP3   OH223166   1.882   5.526   5.992  0.4259  0.0746 -0.9121
  584TIP3    H123167   1.817   5.559   6.053  2.3389 -0.1912  1.3983
  584TIP3    H223168   1.885   5.592   5.922 -0.8805  1.0803 -0.0601
  585TIP3   OH223169   5.350   3.587  12.138  0.1669 -0.2742  0.6240
  585TIP3    H123170   5.332   3.664  12.191  1.6875 -0.4826  1.4788
  585TIP3    H223171   5.374   3.623  12.052 -2.6040  0.0520 -0.1257
  586TIP3   OH223172   5.095   6.142   6.638  0.0930 -0.9539 -0.2075
  586TIP3    H123173   5.029   6.098   6.583  1.4886 -3.3965 -0.0553
  586TIP3    H223174   5.153   6.071   6.667  2.1215  0.9429  0.6177
  587TIP3   OH223175   0.967   6.030   0.792 -0.5332 -0.1258  0.1215
  587TIP3    H123176   1.004   6.105   0.745  1.6876 -3.4768 -4.2143
  587TIP3    H223177   0.881   6.017   0.753  0.0775 -1.1443 -0.9492
  588TIP3   OH223178   0.468   2.170   0.833  0.0407  0.0991 -0.2193
  588TIP3    H123179   0.544   2.196   0.781 -0.1858 -1.8290 -1.6118
  588TIP3    H223180   0.394   2.216   0.792  0.4115  2.2534  1.3503
  589TIP3   OH223181   1.180   0.328  13.961  0.2256 -0.0714 -0.3136
  589TIP3    H123182   1.102   0.307  13.909  1.4100 -2.5798 -1.2768
  589TIP3    H223183   1.151   0.322  14.052 -0.6909 -1.1968 -0.6534
  590TIP3   OH223184   0.477   2.905   6.159 -0.3465  0.2413 -0.1468
  590TIP3    H123185   0.386   2.904   6.189 -0.1719 -2.1901  0.4896
  590TIP3    H223186   0.471   2.922   6.065 -1.5379 -0.6678 -0.2596
  591TIP3   OH223187   3.205   0.940   2.028 -0.5380  0.3993  0.4822
  591TIP3    H123188   3.295   0.955   2.058 -0.0508 -0.1473 -0.6255
  591TIP3    H223189   3.176   0.862   2.076  1.0531 -1.8685 -1.9672
  592TIP3   OH223190   6.655   3.355   3.397  0.0416  0.0363 -0.8653
  592TIP3    H123191   6.747   3.359   3.423  0.4831 -0.3624 -2.3126
  592TIP3    H223192   6.641   3.434   3.344 -0.4692  0.1075 -0.6353
  593TIP3   OH223193   2.318   0.985   1.804 -0.2239 -0.2331  0.3666
  593TIP3    H123194   2.334   1.060   1.747 -1.2308 -0.6988 -0.5634
  593TIP3    H223195   2.331   1.019   1.893 -0.2284  0.9216 -0.0620
  594TIP3   OH223196   2.700   1.539  16.397 -0.8854  0.4188  0.6759
  594TIP3    H123197   2.758   1.494  16.336 -1.4083 -0.6737  0.9638
  594TIP3    H223198   2.760   1.581  16.460 -0.2893  2.5617 -1.1961
  595TIP3   OH223199   4.944   3.413  15.009 -0.0338 -0.1587  0.3522
  595TIP3    H123200   4.905   3.414  15.097 -1.0687 -2.6008  0.0133
  595TIP3    H223201   4.917   3.495  14.969 -2.2076 -0.3651  1.2664
  596TIP3   OH223202   6.555   5.476  15.210  0.2172 -0.1727 -0.2525
  596TIP3    H123203   6.496   5.522  15.150  0.2970  0.9662  0.5220
  596TIP3    H223204   6.567   5.536  15.283  0.0130 -1.5931  0.9893
  597TIP3   OH223205   4.894   5.182   3.072 -0.0261  0.1509 -0.0101
  597TIP3    H123206   4.855   5.240   3.137 -0.2380  0.6098 -0.5391
  597TIP3    H223207   4.919   5.240   3.000 -2.9138 -0.7009 -1.8446
  598TIP3   OH223208   3.127   6.509   3.091  0.3009 -0.0762  0.3958
  598TIP3    H123209   3.046   6.463   3.112 -0.0298 -0.4267 -1.4476
  598TIP3    H223210   3.197   6.448   3.115 -0.0994 -1.0917 -0.9039
  599TIP3   OH223211   5.508   4.230   2.820  0.5468  0.1018 -0.5540
  599TIP3    H123212   5.544   4.316   2.797  0.0651  0.3487 -0.4095
  599TIP3    H223213   5.582   4.180   2.853  0.9139  0.3211 -1.0446
  600TIP3   OH223214   6.048   4.753   6.667  0.3819 -0.5325 -0.2250
  600TIP3    H123215   6.033   4.821   6.601  0.5325 -0.7674 -0.5008
  600TIP3    H223216   6.019   4.794   6.749 -0.1702 -0.3745 -0.4887
  601TIP3   OH223217   4.907   2.996  13.744 -0.2698 -0.1269 -0.1573
  601TIP3    H123218   4.832   2.943  13.768 -0.3031 -0.4131 -0.8721
  601TIP3    H223219   4.940   2.957  13.663  1.0188 -0.3832  0.4548
  602TIP3   OH223220   2.211   1.501  12.685  0.0239  0.2764 -0.1286
  602TIP3    H123221   2.287   1.482  12.740 -1.3302 -1.8772  1.1523
  602TIP3    H223222   2.207   1.429  12.622 -0.1023  1.1880 -1.2020
  603TIP3   OH223223   0.990   1.093   3.594  0.0732 -0.1116 -0.0361
  603TIP3    H123224   1.061   1.100   3.658  1.5181 -2.3581 -1.2517
  603TIP3    H223225   0.922   1.043   3.641  0.5030 -0.4489  0.2448
  604TIP3   OH223226   4.109   6.222   2.181 -0.5973  0.1974  0.0792
  604TIP3    H123227   4.058   6.169   2.120 -0.8128  0.5048 -0.0150
  604TIP3    H223228   4.134   6.299   2.130  0.7024 -0.3437 -0.1264
  605TIP3   OH223229   5.914   4.401   2.271  0.5915  0.2931 -0.2497
  605TIP3    H123230   5.948   4.312   2.267 -0.7441 -0.2851  0.4810
  605TIP3    H223231   5.991   4.456   2.282  1.4328 -0.7660 -0.6754
  606TIP3   OH223232   1.722   4.625  13.016  0.1228 -0.3303 -0.2384
  606TIP3    H123233   1.789   4.568  12.978 -0.4512 -1.0809 -0.1353
  606TIP3    H223234   1.658   4.565  13.053  0.8401  0.3268  2.2933
  607TIP3   OH223235   3.398   4.740   2.851  0.0534  0.1289 -0.5781
  607TIP3    H123236   3.414   4.659   2.899  0.1351 -0.3708 -1.4168
  607TIP3    H223237   3.334   4.787   2.903 -2.7251 -2.0674 -1.7418
  608TIP3   OH223238   3.079   4.405   1.846 -0.2994 -0.3824  0.2101
  608TIP3    H123239   3.103   4.312   1.852 -0.6528 -0.4077  1.6422
  608TIP3    H223240   3.123   4.437   1.768  0.9605 -1.4252  0.4739
  609TIP3   OH223241   3.546   2.372   3.131  0.4028 -0.9638 -0.1093
  609TIP3    H123242   3.619   2.310   3.126 -0.1103 -1.7921  1.8246
  609TIP3    H223243   3.538   2.393   3.224 -0.2543  1.0717 -0.5771
  610TIP3   OH223244   1.120   1.465   1.692 -0.1126  0.5454  0.3555
  610TIP3    H123245   1.126   1.559   1.711 -0.2919  0.1060  2.8933
  610TIP3    H223246   1.100   1.425   1.776  0.5989 -1.8610 -0.5469
  611TIP3   OH223247   0.626   3.767   2.386  0.5684 -0.2102  0.2276
  611TIP3    H123248   0.574   3.688   2.402 -0.4456  0.0186 -1.7129
  611TIP3    H223249   0.562   3.837   2.376  1.4282  0.7571  1.2019
  612TIP3   OH223250   6.029   1.195   0.159  0.1409  0.4677 -0.5970
  612TIP3    H123251   6.103   1.242   0.196 -0.3469  1.1130 -0.4266
  612TIP3    H223252   6.068   1.136   0.094  0.9199 -0.1023  0.3559
  613TIP3   OH223253   0.479   6.430   4.973 -0.5882 -0.6033 -0.4332
  613TIP3    H123254   0.436   6.496   5.027 -1.7696 -1.5864 -0.1082
  613TIP3    H223255   0.557   6.405   5.022 -0.0482  0.6374 -0.6331
  614TIP3   OH223256   0.418   3.471  15.582  0.6975  0.1727 -0.0357
  614TIP3    H123257   0.414   3.498  15.673 -0.5333 -0.3995  0.0975
  614TIP3    H223258   0.511   3.460  15.564  0.9855  0.8341  0.9803
  615TIP3   OH223259   6.515   5.601   5.169  0.6478  0.3201  0.6054
  615TIP3    H123260   6.424   5.593   5.198  0.3716  1.6722  0.1671
  615TIP3    H223261   6.509   5.638   5.081  1.4860 -3.0887 -1.0573
  616TIP3   OH223262   5.693   2.803  11.239 -0.1192  0.3253 -0.1648
  616TIP3    H123263   5.735   2.889  11.240  1.9459 -0.6183  1.0541
  616TIP3    H223264   5.729   2.760  11.162 -1.8446  0.8085 -1.3012
  617TIP3   OH223265   5.043   4.702  14.432 -0.2251  0.7038 -0.1603
  617TIP3    H123266   5.121   4.654  14.461 -0.5540 -0.9192 -1.7580
  617TIP3    H223267   5.005   4.738  14.512  0.1269 -1.6412  1.1442
  618TIP3   OH223268   5.609   2.338  14.390 -0.2961 -0.4351  0.1216
  618TIP3    H123269   5.654   2.388  14.458  0.2510 -1.5298  0.6003
  618TIP3    H223270   5.670   2.337  14.316 -0.0652 -0.8384  0.3111
  619TIP3   OH223271   1.770   5.520   1.572  0.0944 -0.5516 -0.1554
  619TIP3    H123272   1.731   5.456   1.512 -2.0645 -0.9042  1.4972
  619TIP3    H223273   1.697   5.549   1.627  1.6930  0.7963  1.3781
  620TIP3   OH223274   3.109   4.083  13.806  0.0542 -0.2569 -0.5350
  620TIP3    H123275   3.110   4.017  13.737 -1.6431  1.0917 -1.9376
  620TIP3    H223276   3.032   4.062  13.858 -0.5023  0.6205 -0.9997
  621TIP3   OH223277   4.507   3.780  15.225 -0.4920 -0.5854 -0.6536
  621TIP3    H123278   4.600   3.799  15.216 -0.5153  0.1449  0.4464
  621TIP3    H223279   4.504   3.699  15.277 -0.4666 -0.1070  0.1123
  622TIP3   OH223280   3.528   4.482   4.526 -0.4836  0.5452  0.3259
  622TIP3    H123281   3.567   4.403   4.564  1.5737  0.7549 -1.1926
  622TIP3    H223282   3.436   4.458   4.512 -0.3966 -0.8440  1.7586
  623TIP3   OH223283   0.140   6.195   0.833 -0.0069  0.0869  0.1779
  623TIP3    H123284   0.234   6.197   0.849 -0.1654 -1.6322  1.6426
  623TIP3    H223285   0.100   6.203   0.920 -1.1297 -2.1111 -0.0696
  624TIP3   OH223286   2.076   5.185  11.644 -0.0926 -0.2834 -0.1096
  624TIP3    H123287   2.002   5.135  11.680 -0.7236  0.0071 -0.9763
  624TIP3    H223288   2.152   5.152  11.692 -0.6158 -1.4229 -0.0168
  625TIP3   OH223289   2.181   5.948  10.949 -0.1647  0.1833  0.5585
  625TIP3    H123290   2.194   5.853  10.961 -0.7875  0.1075  0.6702
  625TIP3    H223291   2.191   5.962  10.855 -3.0498 -0.5022  0.0420
  626TIP3   OH223292   1.235   5.308  10.574 -0.4525  0.1650  0.1036
  626TIP3    H123293   1.251   5.383  10.518  0.8825 -0.0209  0.2070
  626TIP3    H223294   1.236   5.233  10.515 -0.5369  0.1093  0.1721
  627TIP3   OH223295   0.438   1.639   3.281 -0.3603 -0.1289  0.0855
  627TIP3    H123296   0.477   1.556   3.308  0.7189 -0.1427 -1.4554
  627TIP3    H223297   0.499   1.706   3.311 -0.8488  0.0875  0.6362
  628TIP3   OH223298   4.314   0.009  11.458  0.1889  0.3196 -0.7930
  628TIP3    H123299   4.346   0.099  11.448  0.0256  0.4007 -0.6182
  628TIP3    H223300   4.237   0.018  11.515  0.0929  0.0841 -0.8833
  629TIP3   OH223301   0.920   3.284  13.984 -0.7467  0.2157  0.0712
  629TIP3    H123302   0.940   3.362  13.933  0.9536  0.2491  0.7171
  629TIP3    H223303   1.005   3.241  13.997 -1.5738 -1.5190  0.0942
  630TIP3   OH223304   2.707   2.994   0.839 -0.2165 -0.3991 -0.0021
  630TIP3    H123305   2.726   2.957   0.753  1.5792  0.1823  0.1207
  630TIP3    H223306   2.621   2.958   0.861  0.1901 -2.2015 -1.1396
  631TIP3   OH223307   3.486   1.237   0.922 -0.5792  0.0260  0.0461
  631TIP3    H123308   3.554   1.252   0.856  0.0413 -2.1469  0.1201
  631TIP3    H223309   3.525   1.267   1.004 -0.3083  0.2362 -0.1569
  632TIP3   OH223310   3.352   1.678   0.928  0.5915 -0.3924  0.1559
  632TIP3    H123311   3.303   1.754   0.897 -0.0031 -1.4564 -1.6720
  632TIP3    H223312   3.314   1.604   0.882  2.1635 -1.6122  0.7079
  633TIP3   OH223313   0.779   5.505   1.698 -0.0254  0.2158  0.2992
  633TIP3    H123314   0.732   5.586   1.680 -2.1726 -0.9862  0.1385
  633TIP3    H223315   0.802   5.510   1.791 -0.5605  0.8177  0.4042
  634TIP3   OH223316   2.980   3.542   5.831  0.0154  0.7042  0.3053
  634TIP3    H123317   2.902   3.505   5.790  0.6578 -0.4744  0.1050
  634TIP3    H223318   2.976   3.636   5.811 -0.6084  0.4300 -0.9421
  635TIP3   OH223319   3.784   4.441  12.217  0.3231  0.0387  0.2682
  635TIP3    H123320   3.852   4.377  12.199  0.6447  1.0513 -2.7147
  635TIP3    H223321   3.820   4.524  12.185 -1.3368  1.0971  0.9836
  636TIP3   OH223322   2.793   1.372  12.319 -0.4918 -0.2283 -0.0089
  636TIP3    H123323   2.826   1.304  12.379 -1.2107  0.0493  0.7308
  636TIP3    H223324   2.863   1.437  12.315 -0.7432  0.1432  1.1957
  637TIP3   OH223325   0.466   1.095   3.904 -0.6962  0.7538 -0.0169
  637TIP3    H123326   0.380   1.122   3.934 -0.8258 -0.1584  0.4710
  637TIP3    H223327   0.461   1.100   3.809 -0.5425  2.8759  0.0316
  638TIP3   OH223328   0.605   1.547  13.702 -0.1960 -0.2800 -0.6168
  638TIP3    H123329   0.595   1.641  13.688  2.8547 -0.0720 -2.2656
  638TIP3    H223330   0.653   1.540  13.785  1.4974 -0.1776 -1.5404
  639TIP3   OH223331   2.624   0.494  11.431  0.4935 -0.3990 -0.3035
  639TIP3    H123332   2.667   0.409  11.422  0.0968 -0.7753  0.9885
  639TIP3    H223333   2.671   0.537  11.503 -1.2451 -0.8326  1.1606
  640TIP3   OH223334   4.546   1.088   2.102 -0.3514  0.3077  0.7372
  640TIP3    H123335   4.539   1.151   2.030 -1.2004  0.0313  0.5745
  640TIP3    H223336   4.635   1.101   2.136 -0.3669  1.2993  0.4350
  641TIP3   OH223337   3.285   6.110  17.047 -0.5381 -0.0802  0.2016
  641TIP3    H123338   3.375   6.080  17.062  0.0994  2.0928  1.0613
  641TIP3    H223339   3.288   6.156  16.963 -1.0684 -0.7276 -0.1854
  642TIP3   OH223340   6.629   3.423   6.617 -0.1488  0.0490 -0.6368
  642TIP3    H123341   6.611   3.475   6.695  1.1177  0.1975 -0.4211
  642TIP3    H223342   6.674   3.483   6.558 -0.1340 -0.3583 -1.0466
  643TIP3   OH223343   3.806   4.758   4.885 -0.4058  0.2842 -0.1258
  643TIP3    H123344   3.753   4.687   4.848 -0.3498  0.5596 -0.7423
  643TIP3    H223345   3.815   4.821   4.814  1.9634 -0.4111 -0.5406
  644TIP3   OH223346   1.145   3.015   1.507 -0.3154  0.2310  0.4733
  644TIP3    H123347   1.149   2.924   1.535 -0.9902 -0.0901 -0.4277
  644TIP3    H223348   1.196   3.017   1.425  0.2069  0.7920  0.8053
  645TIP3   OH223349   4.057   2.340  12.212  0.3577 -0.0209  0.5976
  645TIP3    H123350   4.086   2.432  12.217 -1.9278  0.7477  0.7284
  645TIP3    H223351   4.022   2.321  12.299  0.1499 -0.7990  0.3479
  646TIP3   OH223352   1.594   2.423  14.797  0.2972  0.3349 -0.5386
  646TIP3    H123353   1.679   2.383  14.817  0.7844  1.0608 -1.0966
  646TIP3    H223354   1.541   2.351  14.765  1.1879  0.1258 -1.6140
  647TIP3   OH223355   0.548   5.866  11.491 -0.0080 -0.1831  0.3718
  647TIP3    H123356   0.510   5.801  11.431 -0.2726  1.1546 -0.9584
  647TIP3    H223357   0.475   5.922  11.516  0.1492 -0.5848  1.8113
  648TIP3   OH223358   6.552   4.806  15.777 -0.1671  0.1178 -0.1086
  648TIP3    H123359   6.586   4.717  15.779  1.1837  0.5973 -1.0018
  648TIP3    H223360   6.554   4.831  15.685 -2.0887  0.5163 -0.0941
  649TIP3   OH223361   1.346   3.494   5.865  0.2006  0.0037 -0.3837
  649TIP3    H123362   1.370   3.475   5.774  0.1191  1.9953 -0.8527
  649TIP3    H223363   1.282   3.425   5.887  0.7627 -0.9370 -1.5702
  650TIP3   OH223364   3.670   6.493   3.782 -0.3999 -0.1059 -0.0740
  650TIP3    H123365   3.603   6.426   3.796 -0.9764  0.2943 -0.8732
  650TIP3    H223366   3.655   6.524   3.693 -1.1059  2.1542  0.7654
  651TIP3   OH223367   4.197   3.108  10.937 -0.1545  0.4768 -0.0944
  651TIP3    H123368   4.215   3.048  10.865  0.3806 -0.2384  0.6175
  651TIP3    H223369   4.106   3.135  10.924 -0.2756 -0.1773 -0.6379
  652TIP3   OH223370   1.147   3.753  11.793  0.2076 -0.2171  0.4464
  652TIP3    H123371   1.181   3.808  11.864  1.4216  0.8051 -0.8696
  652TIP3    H223372   1.066   3.716  11.828  0.9977 -0.1185  2.5234
  653TIP3   OH223373   5.518   2.266  13.242  0.4086  0.3920 -0.7274
  653TIP3    H123374   5.602   2.301  13.275 -0.8385  2.0441  0.9141
  653TIP3    H223375   5.505   2.184  13.290  0.4823  0.8042  0.0175
  654TIP3   OH223376   6.484   2.224  12.595 -0.3639 -0.0719 -0.1737
  654TIP3    H123377   6.402   2.250  12.552  0.6791  0.3341 -1.9928
  654TIP3    H223378   6.512   2.303  12.642 -1.9026 -0.7379  2.0430
  655TIP3   OH223379   1.748   2.963  15.300 -0.4022 -0.4781 -0.1900
  655TIP3    H123380   1.714   3.008  15.378  1.5767  2.6910 -0.9833
  655TIP3    H223381   1.822   2.911  15.333 -0.6014 -0.4918  0.2491
  656TIP3   OH223382   4.408   0.716  12.586  0.7912 -0.0231 -0.4350
  656TIP3    H123383   4.499   0.745  12.580  0.9422 -0.6769 -1.8117
  656TIP3    H223384   4.414   0.622  12.603  0.3244  0.2858  1.6892
  657TIP3   OH223385   5.019   2.907  15.219 -0.0746  0.1532 -0.7216
  657TIP3    H123386   4.958   2.859  15.164 -1.5169 -0.7253  1.4909
  657TIP3    H223387   5.041   2.845  15.289 -1.5563  2.4499  1.9425
  658TIP3   OH223388   1.297   6.563  12.530  0.2683 -0.0336 -0.0804
  658TIP3    H123389   1.235   6.518  12.587 -0.0317  0.5161  0.0323
  658TIP3    H223390   1.300   6.509  12.451  0.6137 -0.7501  0.4080
  659TIP3   OH223391   6.468   0.594  12.385  0.0402 -0.5141  0.2132
  659TIP3    H123392   6.384   0.553  12.404 -0.2532 -0.5555 -1.0291
  659TIP3    H223393   6.454   0.637  12.300  1.0337  0.1726  0.3768
  660TIP3   OH223394   0.721   5.639  13.456 -0.1746 -0.1417 -0.1025
  660TIP3    H123395   0.812   5.666  13.473 -0.4751  2.2898 -1.8158
  660TIP3    H223396   0.668   5.710  13.492 -1.3130 -0.7377 -0.5561
  661TIP3   OH223397   2.920   2.256   3.893 -0.2186 -0.3419 -0.7074
  661TIP3    H123398   2.902   2.187   3.828  1.1282 -1.3564 -0.0494
  661TIP3    H223399   2.834   2.283   3.924 -0.7936 -1.4685 -1.2637
  662TIP3   OH223400   6.489   3.630  15.164 -0.0375  0.1987  0.3741
  662TIP3    H123401   6.551   3.558  15.157 -0.4741 -0.2323  0.7892
  662TIP3    H223402   6.407   3.588  15.191  0.1349  1.0303  2.3856
  663TIP3   OH223403   1.284   1.447  17.183 -0.5394 -0.3114 -0.2671
  663TIP3    H123404   1.191   1.433  17.202 -0.4051 -2.6086 -0.9435
  663TIP3    H223405   1.328   1.420  17.264 -0.4083 -1.0506 -0.5727
  664TIP3   OH223406   2.275   0.143   2.987  0.3882 -0.3026  0.3783
  664TIP3    H123407   2.256   0.237   2.980  0.2122 -0.2593  1.2862
  664TIP3    H223408   2.248   0.120   3.076  0.9059 -1.1044  0.3374
  665TIP3   OH223409   1.597   1.057   5.155 -0.0200  0.6176  0.5299
  665TIP3    H123410   1.600   0.961   5.161  1.7282  0.4600 -1.5305
  665TIP3    H223411   1.641   1.088   5.234  1.7226 -0.3932  0.0007
  666TIP3   OH223412   5.597   5.102   3.733  0.1537 -0.2596  0.3828
  666TIP3    H123413   5.644   5.165   3.679 -1.0290  1.7851  1.6092
  666TIP3    H223414   5.640   5.018   3.716  0.0140  0.2761 -3.4898
  667TIP3   OH223415   2.387   3.058   4.328  0.2337 -0.3596 -0.4009
  667TIP3    H123416   2.403   3.011   4.409  0.7053 -0.8288 -0.7571
  667TIP3    H223417   2.326   3.128   4.352 -0.9402 -1.4924  0.0170
  668TIP3   OH223418   4.933   2.296  13.852 -0.0783 -0.3554 -0.3440
  668TIP3    H123419   4.909   2.368  13.911 -1.1537 -0.7459 -0.2810
  668TIP3    H223420   4.970   2.229  13.910 -1.7194 -1.0016  0.0306
  669TIP3   OH223421   3.842   5.874   4.991 -0.2121  0.1510 -0.3275
  669TIP3    H123422   3.830   5.855   4.898 -0.6914 -1.3114 -0.0021
  669TIP3    H223423   3.758   5.852   5.030 -0.7776  2.9114  0.1828
  670TIP3   OH223424   5.347   1.569   0.807  0.0117  0.4254  0.4447
  670TIP3    H123425   5.309   1.485   0.782 -0.1033  0.5515  0.1952
  670TIP3    H223426   5.384   1.553   0.894 -0.1884  0.1714  0.4856
  671TIP3   OH223427   2.273   1.473  11.740  0.3745 -0.8139  0.0146
  671TIP3    H123428   2.198   1.430  11.781  0.2074 -0.9323 -0.4094
  671TIP3    H223429   2.266   1.564  11.767 -0.4219 -0.6417 -0.7241
  672TIP3   OH223430   0.630   4.774   2.352  0.0784  0.2838 -0.2321
  672TIP3    H123431   0.643   4.683   2.326  1.4683  1.1742 -3.1117
  672TIP3    H223432   0.549   4.773   2.403 -1.4081 -2.2518 -2.3379
  673TIP3   OH223433   1.801   2.034  14.721  0.7349 -0.2674  0.2099
  673TIP3    H123434   1.768   1.944  14.721  0.3429 -0.1574  2.1678
  673TIP3    H223435   1.894   2.026  14.738  0.2902 -0.2746  3.2422
  674TIP3   OH223436   3.618   4.540  14.779  0.2189 -0.2764 -0.0697
  674TIP3    H123437   3.574   4.527  14.863 -0.1065 -0.4483 -0.2645
  674TIP3    H223438   3.701   4.492  14.788  0.5296  0.3395  0.4197
  675TIP3   OH223439   6.684   2.716  10.843  0.0927 -0.0845  0.3515
  675TIP3    H123440   6.763   2.729  10.897  0.5503 -0.1161 -0.3018
  675TIP3    H223441   6.690   2.784  10.776  0.6005 -1.3257 -0.8984
  676TIP3   OH223442   5.427   1.015   5.515 -0.0972  0.5679  0.1804
  676TIP3    H123443   5.354   0.994   5.574 -1.3146  2.0612 -0.7235
  676TIP3    H223444   5.450   0.931   5.476  0.1558 -0.3081  2.0907
  677TIP3   OH223445   2.567   0.719  15.837 -0.1331  0.0576 -0.6011
  677TIP3    H123446   2.620   0.745  15.762  2.1954  1.1504  1.2951
  677TIP3    H223447   2.607   0.639  15.869  0.8260  1.1609  1.1586
  678TIP3   OH223448   1.948   5.245   3.551 -0.3786 -0.6149  0.5808
  678TIP3    H123449   2.007   5.315   3.520 -1.3302 -1.1175 -2.6789
  678TIP3    H223450   1.929   5.270   3.641  1.0287  2.1698  0.2518
  679TIP3   OH223451   2.194   0.054   5.994 -0.1785  0.0093  0.0986
  679TIP3    H123452   2.258   0.071   6.063  0.1963  0.1909 -0.2856
  679TIP3    H223453   2.154  -0.029   6.019  0.2050 -0.1030  0.3505
  680TIP3   OH223454   1.836   6.547  16.039  0.1676  0.7981  0.2212
  680TIP3    H123455   1.768   6.487  16.069  1.1159  0.0792  1.0090
  680TIP3    H223456   1.795   6.633  16.040 -1.1257  0.2105 -0.6192
  681TIP3   OH223457   3.512   1.729   0.625  0.2722 -0.2444  0.5116
  681TIP3    H123458   3.586   1.737   0.685 -0.4505 -1.0058  1.5547
  681TIP3    H223459   3.551   1.707   0.541  1.3851  1.7691  0.4352
  682TIP3   OH223460   2.124   4.141   4.313 -0.2200  0.2677  0.1638
  682TIP3    H123461   2.205   4.159   4.265  0.7941  0.1176  1.7712
  682TIP3    H223462   2.071   4.219   4.300  0.6538  0.8506  0.0408
  683TIP3   OH223463   5.943   6.602   0.630  0.4235 -0.3144  0.6455
  683TIP3    H123464   5.937   6.516   0.590  0.8063 -0.7808  1.5731
  683TIP3    H223465   6.029   6.605   0.671  1.7989  1.7368 -2.0984
  684TIP3   OH223466   6.450   4.758  14.169  0.2368  0.0100  0.4630
  684TIP3    H123467   6.483   4.687  14.114 -1.7527 -2.3101  2.0795
  684TIP3    H223468   6.388   4.804  14.113  0.5581 -0.3392 -0.1921
  685TIP3   OH223469   4.718   3.226   1.088 -0.0081  0.1319 -0.2549
  685TIP3    H123470   4.713   3.140   1.130  0.8053  0.2003  0.0058
  685TIP3    H223471   4.627   3.252   1.075 -0.2803 -0.1535  0.9473
  686TIP3   OH223472   6.500   5.123  15.360  0.1998 -0.2351 -0.0748
  686TIP3    H123473   6.440   5.194  15.337  0.3873  0.1373  0.5827
  686TIP3    H223474   6.587   5.158  15.342  0.2375 -0.7584 -0.9837
  687TIP3   OH223475   1.484   3.129   2.112  0.4183  0.4695 -0.7082
  687TIP3    H123476   1.396   3.097   2.133  1.3021 -1.3456  0.5411
  687TIP3    H223477   1.491   3.212   2.160 -0.6506  0.7353 -0.9742
  688TIP3   OH223478   3.187   3.879   4.740  0.4964  0.2582  0.6145
  688TIP3    H123479   3.111   3.843   4.693  0.8819 -0.0686  0.2314
  688TIP3    H223480   3.206   3.813   4.807 -0.3616  0.9565  1.5795
  689TIP3   OH223481   2.077   2.575  13.911  0.2809 -0.0933 -0.1675
  689TIP3    H123482   2.029   2.635  13.854  0.8795  1.0616  0.5097
  689TIP3    H223483   2.041   2.590  13.998  1.3296  0.2490  0.2220
  690TIP3   OH223484   0.392   0.174  11.904 -0.2131  0.0253 -0.5931
  690TIP3    H123485   0.488   0.168  11.898 -0.0519  1.4365  0.1578
  690TIP3    H223486   0.368   0.241  11.840 -0.8179 -1.0161 -1.4809
  691TIP3   OH223487   4.740   6.487  15.346 -0.6534 -0.7341 -0.2375
  691TIP3    H123488   4.675   6.420  15.368  0.2880 -1.8297 -0.6333
  691TIP3    H223489   4.720   6.511  15.256 -2.4080  1.2502  0.6141
  692TIP3   OH223490   2.569   6.152  11.875 -0.3524 -0.0858  0.1423
  692TIP3    H123491   2.608   6.080  11.924 -0.1310 -0.1765 -0.1625
  692TIP3    H223492   2.531   6.110  11.798  0.5132  0.2255 -0.4646
  693TIP3   OH223493   3.130   3.268   3.062  0.3203  0.1838  0.0994
  693TIP3    H123494   3.221   3.284   3.038  0.6252 -0.1683  0.9733
  693TIP3    H223495   3.098   3.353   3.093  1.0743 -0.1771  2.0074
  694TIP3   OH223496   1.528   4.213   3.065 -1.0723 -0.2249 -0.2588
  694TIP3    H123497   1.444   4.198   3.022 -1.9492  0.0998  1.2702
  694TIP3    H223498   1.522   4.164   3.148 -0.3405  0.9813  0.5425
  695TIP3   OH223499   2.934   5.092   3.738 -0.0335 -0.1301 -0.2053
  695TIP3    H123500   2.846   5.055   3.748  0.3785 -0.8325  1.0378
  695TIP3    H223501   2.986   5.021   3.702  0.0105  0.3262 -1.0670
  696TIP3   OH223502   0.593   1.144   1.388  0.2608 -0.1337 -0.2318
  696TIP3    H123503   0.605   1.085   1.463 -0.0182  0.3423  0.1956
  696TIP3    H223504   0.634   1.226   1.415  0.7492 -0.1580 -0.8703
  697TIP3   OH223505   4.274   6.352   1.706  0.0617  0.3960  0.4923
  697TIP3    H123506   4.230   6.420   1.758  0.5157  1.0909 -0.0299
  697TIP3    H223507   4.315   6.399   1.634 -2.0690 -0.7118 -1.6105
  698TIP3   OH223508   6.183   1.883   4.833 -0.2103  0.3082 -0.0625
  698TIP3    H123509   6.225   1.798   4.820 -0.5777 -0.0435  0.9813
  698TIP3    H223510   6.094   1.861   4.862 -0.1187  1.0509  0.8031
  699TIP3   OH223511   1.582   1.585   1.043 -0.4939  0.0014  0.5212
  699TIP3    H123512   1.576   1.599   1.137  0.0772 -1.2131  0.7612
  699TIP3    H223513   1.497   1.549   1.018 -0.6313  0.2861  0.5723
  700TIP3   OH223514   0.378   0.332  13.351 -0.5149 -0.0544 -0.1925
  700TIP3    H123515   0.466   0.297  13.363  0.4458  2.1573 -0.3966
  700TIP3    H223516   0.340   0.278  13.281  0.8212 -0.7537 -0.4078
  701TIP3   OH223517   4.302   0.787   3.202  0.3418 -0.5275  0.1791
  701TIP3    H123518   4.309   0.699   3.164 -0.1522 -0.8484  0.8156
  701TIP3    H223519   4.215   0.790   3.241 -0.4579  0.9844 -1.6060
  702TIP3   OH223520   6.230   1.506  11.374  0.1818  0.9343  0.5668
  702TIP3    H123521   6.256   1.426  11.419 -1.3277  0.6343  0.9573
  702TIP3    H223522   6.219   1.570  11.444  0.3832  1.2000  0.3571
  703TIP3   OH223523   3.135   3.746  13.696  0.0654  0.1222  0.2461
  703TIP3    H123524   3.228   3.748  13.718  0.0388 -2.1664  0.7867
  703TIP3    H223525   3.133   3.727  13.603  0.1543 -0.9226  0.4490
  704TIP3   OH223526   3.756   3.488   5.414  0.1967  0.1466  0.1149
  704TIP3    H123527   3.841   3.513   5.451 -0.5440 -0.5018  2.3958
  704TIP3    H223528   3.775   3.407   5.366  0.9310  0.1451  0.3891
  705TIP3   OH223529   3.428   2.332  11.411  0.2298  0.3243 -0.5493
  705TIP3    H123530   3.367   2.370  11.348 -0.8511 -0.7594 -0.2053
  705TIP3    H223531   3.510   2.322  11.362 -0.5505 -0.4019 -1.7737
  706TIP3   OH223532   2.830   1.448   0.990  0.3581  0.1393 -0.3505
  706TIP3    H123533   2.802   1.388   0.921 -1.3482 -0.2736  0.6439
  706TIP3    H223534   2.818   1.535   0.952 -1.4547 -0.0496 -0.3269
  707TIP3   OH223535   6.149   6.473  13.243 -0.2158  0.2371 -0.1573
  707TIP3    H123536   6.212   6.467  13.171 -0.6705  3.6099 -1.0002
  707TIP3    H223537   6.067   6.441  13.206 -0.3114  1.3957 -0.9907
  708TIP3   OH223538   0.971   3.070  10.366  0.2313 -0.5048  0.0697
  708TIP3    H123539   0.981   2.975  10.369  0.0610 -0.5062  0.9188
  708TIP3    H223540   1.059   3.105  10.376  0.0962 -0.5699  1.8357
  709TIP3   OH223541   3.133   3.923   6.463  0.3099  0.0855 -0.1926
  709TIP3    H123542   3.210   3.955   6.416 -0.0252  1.4683  0.1554
  709TIP3    H223543   3.167   3.888   6.545  0.6239  0.1638 -0.2892
  710TIP3   OH223544   4.830   3.434  13.593  0.6014 -0.3214 -0.7970
  710TIP3    H123545   4.783   3.516  13.577 -1.7225 -1.4896 -0.3670
  710TIP3    H223546   4.901   3.458  13.652 -0.6730  1.2213  0.1817
  711TIP3   OH223547   1.058   3.984   2.309 -0.2767  0.2658  0.4937
  711TIP3    H123548   1.096   3.990   2.222 -1.7219  0.8045 -0.1261
  711TIP3    H223549   1.106   4.049   2.361  0.4089  0.1256  0.0520
  712TIP3   OH223550   4.122   1.424  13.271 -0.1186 -0.4302  0.0319
  712TIP3    H123551   4.107   1.519  13.270 -1.1213 -0.5585 -1.9555
  712TIP3    H223552   4.052   1.389  13.325  0.4210 -0.0459  1.0105
  713TIP3   OH223553   3.470   3.783   4.294 -0.5817 -0.0642 -0.3319
  713TIP3    H123554   3.528   3.800   4.220  0.2538  0.4406  0.4316
  713TIP3    H223555   3.519   3.812   4.371 -1.9458  0.6017  0.3077
  714TIP3   OH223556   2.784   5.796  14.910 -0.1118 -0.2231 -0.0397
  714TIP3    H123557   2.756   5.883  14.883 -0.1139  0.3067  1.5515
  714TIP3    H223558   2.772   5.795  15.005  0.1476 -1.8684  0.0141
  715TIP3   OH223559   3.759   6.186   2.838  0.9580 -0.2476 -0.1185
  715TIP3    H123560   3.780   6.277   2.858 -0.1565  0.0086 -0.0377
  715TIP3    H223561   3.731   6.187   2.747  1.7010 -0.6561 -0.3615
  716TIP3   OH223562   0.794   1.635  16.306  0.3166  1.2217 -0.5790
  716TIP3    H123563   0.820   1.659  16.395  0.0710 -3.9361  1.1846
  716TIP3    H223564   0.699   1.645  16.305 -0.1602 -1.8807  1.1415
  717TIP3   OH223565   1.241   3.172   1.286  0.2544 -0.2706 -0.4200
  717TIP3    H123566   1.206   3.226   1.357  0.9791 -0.6909  0.2759
  717TIP3    H223567   1.248   3.232   1.212 -2.7947 -0.3696 -0.9068
  718TIP3   OH223568   3.999   0.824  15.113  0.1515  0.1065  0.1632
  718TIP3    H123569   4.087   0.797  15.086 -0.1675 -2.1052  1.1094
  718TIP3    H223570   3.950   0.834  15.031  0.5746 -1.3947 -0.3036
  719TIP3   OH223571   0.060   6.176   5.192 -0.1755  0.4459  0.2305
  719TIP3    H123572   0.010   6.244   5.238  0.2180  1.0060 -0.1668
  719TIP3    H223573   0.145   6.215   5.175 -0.4511  0.4121 -1.3684
  720TIP3   OH223574   0.715   0.669   1.233 -0.0047  0.0297 -0.1746
  720TIP3    H123575   0.654   0.602   1.202 -0.6651  0.1406  0.8052
  720TIP3    H223576   0.733   0.723   1.156 -3.7147  1.9370  0.0670
  721TIP3   OH223577   0.865   1.868  15.239 -0.1977 -1.1401  0.0140
  721TIP3    H123578   0.836   1.959  15.238  3.5513  0.2648  0.4232
  721TIP3    H223579   0.849   1.839  15.329  0.7056 -0.0142  0.5668
  722TIP3   OH223580   3.094   0.660   1.399  0.1732  0.8441  0.2207
  722TIP3    H123581   3.126   0.570   1.407  0.2995  0.8508 -0.2157
  722TIP3    H223582   3.056   0.665   1.311  0.5600  1.3479  0.0800
  723TIP3   OH223583   4.543   5.511  17.273 -0.2282 -0.4166  0.0643
  723TIP3    H123584   4.529   5.500  17.179 -1.5564 -0.0802  0.2068
  723TIP3    H223585   4.514   5.601  17.291  1.0666 -0.0850  0.6191
  724TIP3   OH223586   2.051   1.739   3.876  0.2952  0.0631 -0.3755
  724TIP3    H123587   2.091   1.687   3.946 -2.0332 -0.8778  0.3506
  724TIP3    H223588   2.014   1.675   3.816 -1.2614  0.8348 -0.2947
  725TIP3   OH223589   2.187   4.498   4.734 -0.4752  0.1602 -0.5970
  725TIP3    H123590   2.094   4.521   4.734 -0.1460  1.6910  1.2150
  725TIP3    H223591   2.230   4.571   4.690 -0.1275 -0.7331 -1.8024
  726TIP3   OH223592   5.616   3.888  10.980  0.1778  0.1197 -0.3931
  726TIP3    H123593   5.529   3.869  11.015  0.4882 -0.3639  0.1454
  726TIP3    H223594   5.607   3.876  10.885 -0.4492  0.5222 -0.3879
  727TIP3   OH223595   0.972   6.013   4.695 -0.4276  0.5226 -0.1805
  727TIP3    H123596   0.955   6.105   4.675 -0.9929  0.6782  0.9786
  727TIP3    H223597   0.887   5.971   4.688 -1.0127  0.8765  3.3262
  728TIP3   OH223598   5.771   0.017   2.662 -0.9240  0.1897  0.2028
  728TIP3    H123599   5.802   0.051   2.746  1.9598  1.3374 -1.1773
  728TIP3    H223600   5.769   0.094   2.605 -0.6115 -0.9160 -1.3608
  729TIP3   OH223601   1.331   6.176   1.717 -0.0546 -0.2067  0.0296
  729TIP3    H123602   1.410   6.169   1.771 -1.2691  0.0862  1.9274
  729TIP3    H223603   1.266   6.124   1.764 -1.0644 -0.2859 -1.4042
  730TIP3   OH223604   4.408   0.487  11.192 -0.5992 -0.2465  0.5744
  730TIP3    H123605   4.382   0.522  11.107 -0.0023  0.0519  0.5140
  730TIP3    H223606   4.389   0.557  11.254 -1.2873 -0.5610  0.7341
  731TIP3   OH223607   5.681   3.806  11.917 -1.0622  0.2834 -0.4175
  731TIP3    H123608   5.746   3.811  11.848 -0.8145 -0.5390 -0.2488
  731TIP3    H223609   5.685   3.892  11.960  1.8424 -0.5869  1.3384
  732TIP3   OH223610   6.157   1.769   3.783  0.1578  0.0301  0.0243
  732TIP3    H123611   6.088   1.832   3.761  0.8570  1.4821  1.7405
  732TIP3    H223612   6.111   1.685   3.792 -0.8359  0.3048 -2.0422
  733TIP3   OH223613   0.955   0.308   5.116  0.2194 -0.2572 -0.4667
  733TIP3    H123614   1.027   0.308   5.053  1.3028 -0.3769  0.7285
  733TIP3    H223615   0.997   0.286   5.199 -0.7613  2.0505  0.7157
  734TIP3   OH223616   0.287   3.237   0.638  0.0228 -0.2103 -0.3277
  734TIP3    H123617   0.230   3.289   0.582 -0.8040 -1.0922 -0.3271
  734TIP3    H223618   0.304   3.157   0.588 -1.0728 -1.1980  0.8111
  735TIP3   OH223619   6.048   5.476   5.395  0.2518 -0.3344 -0.2082
  735TIP3    H123620   5.990   5.491   5.469  0.2160  0.4213 -0.3862
  735TIP3    H223621   5.990   5.471   5.319  0.3597 -0.2947 -0.2942
  736TIP3   OH223622   0.997   3.175   2.590 -0.2926  0.2606 -0.5928
  736TIP3    H123623   0.942   3.223   2.528  1.6415  1.0747 -1.7784
  736TIP3    H223624   1.073   3.148   2.538  0.4756 -0.7516  0.9861
  737TIP3   OH223625   0.900   0.972   2.999 -0.3697  0.4027 -0.1220
  737TIP3    H123626   0.832   0.966   3.066 -0.0917 -0.6739  0.0908
  737TIP3    H223627   0.950   1.049   3.022 -0.9136  0.6376  0.2987
  738TIP3   OH223628   3.036   3.170   6.684  0.6504  0.9400 -0.5089
  738TIP3    H123629   3.090   3.204   6.612 -0.2588  2.8178 -0.3662
  738TIP3    H223630   2.968   3.236   6.696  0.3996  0.3502  1.6759
  739TIP3   OH223631   5.855   0.639   0.069  0.2212 -0.2926  0.0636
  739TIP3    H123632   5.950   0.625   0.063 -0.0915 -1.9105 -1.7653
  739TIP3    H223633   5.841   0.724   0.026  0.7604 -0.4555 -0.4468
  740TIP3   OH223634   3.654   4.681  14.549  0.0400 -0.5023 -0.2853
  740TIP3    H123635   3.614   4.631  14.619 -1.0293 -1.7700 -1.7312
  740TIP3    H223636   3.741   4.642  14.538  0.6676  0.4591  1.0538
  741TIP3   OH223637   4.403   0.139  13.297 -0.0838 -0.1165 -0.1778
  741TIP3    H123638   4.461   0.111  13.226  0.4488 -0.4946  0.3961
  741TIP3    H223639   4.425   0.231  13.311  1.4403 -0.6117  1.0007
  742TIP3   OH223640   6.108   0.999  10.677  0.6276 -0.5812  0.5488
  742TIP3    H123641   6.128   0.945  10.753  1.6147 -0.0473  0.6909
  742TIP3    H223642   6.138   0.948  10.602  1.1992 -0.4025  0.6528
  743TIP3   OH223643   4.222   5.148  13.450  0.5644  0.0745  0.3810
  743TIP3    H123644   4.258   5.217  13.395  0.8493 -2.0391 -2.3094
  743TIP3    H223645   4.282   5.074  13.439 -0.9638 -1.3685  1.2144
  744TIP3   OH223646   1.306   4.099  15.562 -0.9325  0.4228  0.1228
  744TIP3    H123647   1.387   4.149  15.566 -1.5824  1.4436  2.5511
  744TIP3    H223648   1.332   4.008  15.578 -0.1755  0.6242  0.0368
  745TIP3   OH223649   5.395   4.461   5.664 -0.3746 -0.6369  0.1863
  745TIP3    H123650   5.423   4.427   5.579  0.9715 -1.0169  0.7567
  745TIP3    H223651   5.314   4.414   5.683 -0.8257 -0.3687 -0.9803
  746TIP3   OH223652   1.937   5.669   4.189  0.6174 -0.3591  0.0354
  746TIP3    H123653   1.994   5.654   4.113  0.7326  0.2848 -0.0106
  746TIP3    H223654   1.873   5.733   4.158  1.5229  1.0114  0.8894
  747TIP3   OH223655   1.955   5.175   1.850  0.1868 -0.7478  0.4429
  747TIP3    H123656   1.900   5.103   1.816  0.6338 -0.4033 -1.0889
  747TIP3    H223657   1.951   5.242   1.782  3.4160 -1.1651 -0.3471
  748TIP3   OH223658   6.404   4.864  12.256 -0.2085  0.8941 -0.3165
  748TIP3    H123659   6.365   4.800  12.196  1.5232  0.4736 -1.0445
  748TIP3    H223660   6.355   4.945  12.240 -0.0653  0.6777 -2.0207
  749TIP3   OH223661   0.594   2.981  11.491 -0.5693  0.2182  0.3599
  749TIP3    H123662   0.543   3.002  11.569 -0.5185  0.2134  0.3943
  749TIP3    H223663   0.624   2.891  11.505 -0.6194  0.1918  0.3030
  750TIP3   OH223664   2.334   2.184   3.762 -0.4258  0.6286 -0.1479
  750TIP3    H123665   2.404   2.155   3.821  2.1359 -0.7139 -3.5624
  750TIP3    H223666   2.288   2.103   3.738 -0.7770  1.0148 -0.8100
  751TIP3   OH223667   1.894   6.489   1.289  0.1630 -0.0525  0.6478
  751TIP3    H123668   1.985   6.465   1.270 -0.2338 -2.0884  1.0590
  751TIP3    H223669   1.899   6.580   1.321  1.5646  1.2025 -2.7133
  752TIP3   OH223670   3.676   0.331  10.695 -0.7754  0.2180  1.2132
  752TIP3    H123671   3.756   0.368  10.733 -0.9994  1.1730  0.7837
  752TIP3    H223672   3.707   0.263  10.636 -0.1184  1.7501 -0.3169
  753TIP3   OH223673   2.477   5.034   0.731  0.2690  0.1958 -0.2723
  753TIP3    H123674   2.446   5.094   0.799  0.4407 -0.7484  0.6809
  753TIP3    H223675   2.490   4.951   0.778 -1.6530 -1.0895 -1.8563
  754TIP3   OH223676   4.352   1.289  11.648 -0.4942 -0.4398 -0.7287
  754TIP3    H123677   4.339   1.195  11.664 -2.2793  0.2465  3.0311
  754TIP3    H223678   4.264   1.326  11.653  0.3942  1.6852  0.3271
  755TIP3   OH223679   0.638   5.039   3.545  0.2219 -0.5030 -0.6265
  755TIP3    H123680   0.567   5.103   3.555  0.9012 -0.1264  3.3627
  755TIP3    H223681   0.616   4.991   3.465 -2.9993  1.4319 -1.0650
  756TIP3   OH223682   6.776   0.954  13.145  0.0874 -0.2977  0.2487
  756TIP3    H123683   6.774   0.996  13.059 -3.1499 -0.5776  0.0612
  756TIP3    H223684   6.787   1.027  13.207 -1.1213  0.3559 -0.2733
  757TIP3   OH223685   1.809   4.291   5.670 -0.4342 -0.1474 -0.0667
  757TIP3    H123686   1.902   4.287   5.647  0.3178 -0.0910  2.5382
  757TIP3    H223687   1.798   4.378   5.708 -1.1783 -0.6578  0.9261
  758TIP3   OH223688   1.093   4.631   0.019  0.5798  0.0793  0.6015
  758TIP3    H123689   1.062   4.593  -0.063 -0.0287  0.4120  0.6687
  758TIP3    H223690   1.073   4.565   0.085 -0.4178  0.4640  0.7079
  759TIP3   OH223691   4.698   3.040   0.472  0.2277 -0.3586  0.5096
  759TIP3    H123692   4.662   3.128   0.465  0.6670 -0.2348 -0.2783
  759TIP3    H223693   4.651   3.001   0.546 -1.1447 -0.0251 -0.1404
  760TIP3   OH223694   1.564   5.503  15.328 -0.6951 -0.4122 -0.1280
  760TIP3    H123695   1.581   5.582  15.379  0.9474 -0.4969 -0.5010
  760TIP3    H223696   1.627   5.506  15.256 -1.4552 -1.4344 -0.8757
  761TIP3   OH223697   2.817   1.920  17.110  0.7939 -0.3420 -0.1750
  761TIP3    H123698   2.790   1.839  17.068 -1.5738  1.2647 -2.0840
  761TIP3    H223699   2.750   1.935  17.177  0.7674  0.3886 -0.3554
  762TIP3   OH223700   2.897   4.066  14.001  0.2024  0.3660 -0.1483
  762TIP3    H123701   2.887   3.991  13.943  2.0747  0.5415 -0.7715
  762TIP3    H223702   2.850   4.042  14.080 -0.3777 -0.8869 -0.8540
  763TIP3   OH223703   5.451   1.093  14.541 -0.0222 -0.2289  0.4986
  763TIP3    H123704   5.542   1.113  14.522  0.5078 -1.6157  1.3577
  763TIP3    H223705   5.404   1.175  14.528  1.6164  0.9623  1.6926
  764TIP3   OH223706   1.109   1.964   3.863 -0.2042  0.1275 -0.8520
  764TIP3    H123707   1.204   1.962   3.859 -0.0990  1.3270  0.3164
  764TIP3    H223708   1.085   1.881   3.904  0.4083  0.2729 -0.1818
  765TIP3   OH223709   1.200   5.980   1.494 -0.3805  0.3267  0.7654
  765TIP3    H123710   1.168   6.069   1.480  0.4569  0.6675  1.0050
  765TIP3    H223711   1.148   5.947   1.568 -0.3919  0.7606  0.9532
  766TIP3   OH223712   6.761   2.416   1.168  0.0448 -0.0042  0.2828
  766TIP3    H123713   6.727   2.333   1.201 -1.1957  0.6299  0.6560
  766TIP3    H223714   6.686   2.459   1.128  0.9574  0.3825 -1.1063
  767TIP3   OH223715   4.350   1.142   4.232  0.5585 -0.1475  0.3558
  767TIP3    H123716   4.437   1.116   4.262  1.3743  1.0907 -0.8113
  767TIP3    H223717   4.366   1.212   4.169 -1.2741 -0.1052 -0.1333
  768TIP3   OH223718   6.745   3.332  10.399 -0.5374 -0.3562  0.0381
  768TIP3    H123719   6.744   3.244  10.362  1.2627 -0.5894  0.4423
  768TIP3    H223720   6.654   3.360  10.397 -0.8830 -1.4657 -1.8778
  769TIP3   OH223721   2.758   3.975   6.600 -0.0079  0.1914 -0.0258
  769TIP3    H123722   2.688   4.031   6.566 -0.2629  0.0148  0.2090
  769TIP3    H223723   2.713   3.899   6.636  0.0995  1.1797  2.3644
  770TIP3   OH223724   0.553   3.738   4.694 -0.1934  0.3493 -0.4867
  770TIP3    H123725   0.605   3.818   4.696 -1.4697  1.2035  0.9711
  770TIP3    H223726   0.497   3.748   4.616  0.4328  0.3401 -0.9431
  771TIP3   OH223727   2.495   6.629  16.262  0.1311 -0.1995 -1.1783
  771TIP3    H123728   2.525   6.545  16.226  0.1605 -0.3595 -0.7847
  771TIP3    H223729   2.478   6.683  16.185 -0.7110 -0.8498 -1.4598
  772TIP3   OH223730   2.946   2.087  12.342  0.0815  0.6514 -0.5665
  772TIP3    H123731   2.902   2.016  12.389 -0.0941  0.0062 -1.6811
  772TIP3    H223732   2.881   2.157  12.338 -0.2936  0.2894 -0.8280
  773TIP3   OH223733   6.543   4.489   3.293  0.0763 -0.0597  0.3394
  773TIP3    H123734   6.499   4.573   3.285 -0.0000 -0.2130 -1.0750
  773TIP3    H223735   6.610   4.503   3.360  1.8401  1.9540 -1.6570
  774TIP3   OH223736   1.642   6.577   3.050 -0.2931  0.2177 -0.3127
  774TIP3    H123737   1.606   6.663   3.030 -0.8860  0.4927  1.6503
  774TIP3    H223738   1.575   6.535   3.104  0.6455 -0.8362  0.0846
  775TIP3   OH223739   5.601   3.717  13.060 -0.4567  0.0652  0.0209
  775TIP3    H123740   5.652   3.797  13.049 -2.6191  1.4166 -0.9338
  775TIP3    H223741   5.647   3.667  13.127  2.0003  1.2102 -0.7094
  776TIP3   OH223742   3.396   4.528  14.496  0.0028 -0.5399  0.1360
  776TIP3    H123743   3.412   4.517  14.402 -0.6479 -0.2771 -0.0133
  776TIP3    H223744   3.473   4.491  14.538  0.5694 -0.1357 -0.5239
  777TIP3   OH223745   2.773   6.729   4.805 -0.1038  0.8935  0.3183
  777TIP3    H123746   2.803   6.639   4.819  0.3410  1.2072  1.5367
  777TIP3    H223747   2.678   6.721   4.795 -0.0209  0.2495 -0.0171
  778TIP3   OH223748   5.259   6.467   2.704 -0.0253  0.0972 -0.2350
  778TIP3    H123749   5.225   6.542   2.753 -0.6380 -1.2944  1.5966
  778TIP3    H223750   5.183   6.434   2.656  0.1515  0.4062 -0.7340
  779TIP3   OH223751   2.349   4.952   5.084  0.4633 -0.5717 -0.1121
  779TIP3    H123752   2.374   5.020   5.146  0.9539 -0.4557 -0.4317
  779TIP3    H223753   2.273   4.909   5.124  0.3113 -0.0066  0.2086
  780TIP3   OH223754   0.849   4.053  14.692 -0.0418  0.2891  0.9590
  780TIP3    H123755   0.821   4.034  14.781 -1.1196 -0.1179  0.5513
  780TIP3    H223756   0.944   4.061  14.698 -0.0100 -0.6425  1.9743
  781TIP3   OH223757   4.774   1.605   5.656  0.3451 -0.2492  0.0570
  781TIP3    H123758   4.859   1.616   5.699  0.0228 -0.6849  0.8260
  781TIP3    H223759   4.794   1.558   5.575  0.6992 -1.4581  0.8222
  782TIP3   OH223760   4.378   0.636  17.271  0.0227 -0.3498 -1.0256
  782TIP3    H123761   4.304   0.582  17.295 -0.7979  1.4589  0.8977
  782TIP3    H223762   4.345   0.695  17.204 -0.5195  0.8397  0.2378
  783TIP3   OH223763   3.188   1.747  12.448 -0.0140  0.1073 -0.9888
  783TIP3    H123764   3.192   1.834  12.409 -3.1407  0.1832 -1.4200
  783TIP3    H223765   3.133   1.757  12.525 -1.2172 -1.6013 -1.5604
  784TIP3   OH223766   3.688   6.082  11.241 -0.8251 -0.1308  0.2888
  784TIP3    H123767   3.735   6.110  11.319  2.1101  0.3572 -1.4833
  784TIP3    H223768   3.684   6.160  11.186 -2.2843 -0.6166 -0.3565
  785TIP3   OH223769   4.647   1.492   1.944 -0.0864  0.6631 -0.1034
  785TIP3    H123770   4.625   1.580   1.912 -0.0007  0.5497 -0.4776
  785TIP3    H223771   4.740   1.482   1.924 -0.6312 -0.4907 -2.4435
  786TIP3   OH223772   0.999   3.600   4.696 -0.0802  0.0154  0.3065
  786TIP3    H123773   0.904   3.602   4.708 -0.3572 -0.4690 -1.5099
  786TIP3    H223774   1.013   3.532   4.630  1.6414 -0.7218  1.3770
  787TIP3   OH223775   3.897   2.930   4.300 -0.9162  0.0640 -0.1024
  787TIP3    H123776   3.920   2.929   4.393 -1.9098 -1.4950  0.1782
  787TIP3    H223777   3.955   2.995   4.261  0.4402 -0.1865  1.3836
  788TIP3   OH223778   2.160   3.143   5.783 -0.3060  0.4682  0.0666
  788TIP3    H123779   2.170   3.128   5.689  0.6731 -2.2795  0.5218
  788TIP3    H223780   2.067   3.124   5.800 -0.3448  0.3624 -0.2478
  789TIP3   OH223781   3.728   4.135  11.478  0.2004 -0.3050  0.0789
  789TIP3    H123782   3.636   4.151  11.458  0.9002  1.1817 -2.4471
  789TIP3    H223783   3.748   4.053  11.432  0.4250  0.0711 -0.5099
  790TIP3   OH223784   5.591   2.670   3.687  0.1407  0.1198 -0.0606
  790TIP3    H123785   5.643   2.684   3.766 -2.4475  1.9867  1.5093
  790TIP3    H223786   5.546   2.587   3.702  1.4200 -0.7050 -0.6958
  791TIP3   OH223787   3.343   3.555   5.578 -0.1122 -0.3759  0.1433
  791TIP3    H123788   3.386   3.545   5.493  0.5304 -0.2513  0.4483
  791TIP3    H223789   3.281   3.482   5.583  0.1219 -0.6038 -0.2680
  792TIP3   OH223790   2.876   5.265   3.503 -0.0247  0.0350 -0.1882
  792TIP3    H123791   2.889   5.211   3.581  0.7920  2.0390  1.1643
  792TIP3    H223792   2.957   5.256   3.454  1.2729  2.0184  1.4105
  793TIP3   OH223793   5.555   1.911  12.171  0.2365 -0.3138  0.0563
  793TIP3    H123794   5.612   1.954  12.234  0.3768 -0.8006  0.2662
  793TIP3    H223795   5.477   1.968  12.165  0.7054  0.3150 -0.1821
  794TIP3   OH223796   4.081   0.835  16.409 -0.2466  0.5776 -0.5328
  794TIP3    H123797   4.076   0.763  16.346 -0.3610  0.8941 -0.8880
  794TIP3    H223798   4.159   0.816  16.461 -0.0896  0.3702 -0.8417
  795TIP3   OH223799   4.792   3.732   1.902  0.4449 -0.2470 -0.0535
  795TIP3    H123800   4.735   3.705   1.975  0.5824 -0.5850 -0.0676
  795TIP3    H223801   4.773   3.825   1.890 -0.0439 -0.3350 -0.0012
  796TIP3   OH223802   5.712   6.007   3.725  0.1882  0.4735 -0.4778
  796TIP3    H123803   5.767   6.084   3.738 -0.2124  0.8395 -0.8872
  796TIP3    H223804   5.746   5.942   3.786  0.4961  0.9964 -0.0864
  797TIP3   OH223805   4.326   4.890   2.393  0.3379  0.0912  0.1539
  797TIP3    H123806   4.407   4.905   2.441  0.7551  1.6188 -0.9482
  797TIP3    H223807   4.339   4.934   2.309 -1.5686  0.2429 -0.1108
  798TIP3   OH223808   0.816   4.734  16.744 -0.1486 -0.4839 -0.5555
  798TIP3    H123809   0.903   4.754  16.709 -0.8789 -0.6890 -2.6348
  798TIP3    H223810   0.775   4.819  16.757  0.3178 -0.3897  0.3273
  799TIP3   OH223811   4.304   2.626  16.767  0.3179 -0.3246  0.0639
  799TIP3    H123812   4.237   2.604  16.703  0.9418 -1.0038 -0.3684
  799TIP3    H223813   4.373   2.561  16.754 -0.5871 -2.0708  3.0692
  800TIP3   OH223814   2.288   6.709   5.541 -0.4144 -0.1502 -0.6880
  800TIP3    H123815   2.211   6.671   5.498 -2.0455  0.1877  1.7836
  800TIP3    H223816   2.254   6.780   5.595  1.7531  0.5633 -0.1475
  801TIP3   OH223817   0.555   0.148  12.661 -0.1243  0.0148  0.4612
  801TIP3    H123818   0.473   0.158  12.709  0.5373 -1.0252  1.8923
  801TIP3    H223819   0.605   0.228  12.679 -1.5134  1.5811 -2.0122
  802TIP3   OH223820   5.124   0.316   0.819 -0.0780 -0.3812 -0.2855
  802TIP3    H123821   5.120   0.345   0.910  0.8669 -0.7239 -0.1196
  802TIP3    H223822   5.217   0.305   0.801 -0.2395 -0.1430 -1.3564
  803TIP3   OH223823   6.390   6.054   3.201 -1.1525  0.2458  0.1394
  803TIP3    H123824   6.305   6.031   3.239 -0.7998 -0.0268  0.7736
  803TIP3    H223825   6.445   5.977   3.215 -0.3035  1.0123  1.2436
  804TIP3   OH223826   2.173   2.247  12.542 -0.2735  0.9621  0.5986
  804TIP3    H123827   2.100   2.284  12.592 -1.9392  0.7997 -1.5630
  804TIP3    H223828   2.133   2.212  12.463  1.7180 -2.1840  0.8057
  805TIP3   OH223829   2.365   5.245  14.384  0.3101  0.1844  0.1610
  805TIP3    H123830   2.320   5.176  14.336  0.1420 -0.1112  0.7340
  805TIP3    H223831   2.326   5.327  14.352  0.7789  0.0443 -0.8002
  806TIP3   OH223832   6.170   4.304  13.354  0.1625  0.5194  0.0100
  806TIP3    H123833   6.157   4.399  13.351  1.5015  0.7248  0.1059
  806TIP3    H223834   6.173   4.278  13.262 -1.5881  0.3403 -0.0250
  807TIP3   OH223835   5.426   6.548  15.068  0.4589  0.3255  0.2930
  807TIP3    H123836   5.432   6.642  15.055  1.2533  0.2490  0.0439
  807TIP3    H223837   5.433   6.537  15.163 -0.6733  0.5714  0.4233
  808TIP3   OH223838   3.753   1.379  16.977 -0.1623  0.2864  0.0396
  808TIP3    H123839   3.748   1.325  16.898  1.5491 -1.5208  1.0528
  808TIP3    H223840   3.663   1.406  16.994 -0.8672 -0.9691 -1.4149
  809TIP3   OH223841   5.714   2.085  14.291 -0.4856  0.0340 -0.0788
  809TIP3    H123842   5.635   2.120  14.251 -1.4322 -2.4347 -0.5317
  809TIP3    H223843   5.777   2.156  14.285 -2.5821  2.0158  0.1170
  810TIP3   OH223844   2.252   2.949   0.238 -0.5465 -0.2876 -0.1311
  810TIP3    H123845   2.345   2.925   0.231 -0.3588  0.2590  0.4414
  810TIP3    H223846   2.252   3.026   0.294 -1.3319 -0.1523 -0.3207
  811TIP3   OH223847   3.083   2.904  12.248 -0.1507 -0.0023 -0.4312
  811TIP3    H123848   3.135   2.834  12.209 -0.1080  0.7410 -1.7508
  811TIP3    H223849   3.095   2.892  12.343  1.6893 -0.3808 -0.6769
  812TIP3   OH223850   0.171   2.247   2.240  0.1510  0.2181  0.1066
  812TIP3    H123851   0.189   2.154   2.226 -1.4424 -0.2350  0.8413
  812TIP3    H223852   0.098   2.267   2.182 -0.6981  0.5381  1.2427
  813TIP3   OH223853   3.262   2.276   4.609  0.0412  0.5726 -0.4794
  813TIP3    H123854   3.248   2.308   4.698 -0.2486 -0.9031  0.0288
  813TIP3    H223855   3.216   2.339   4.553  0.1399  1.4565  0.4089
  814TIP3   OH223856   4.302   2.703   2.682 -0.4336 -0.5856  0.1025
  814TIP3    H123857   4.293   2.608   2.689 -0.6632 -0.5186  0.7479
  814TIP3    H223858   4.369   2.726   2.747  0.2866 -0.4021 -0.6780
  815TIP3   OH223859   2.347   0.394  16.831 -0.5530 -0.5724  0.0936
  815TIP3    H123860   2.406   0.326  16.799  0.8700  1.1513 -1.2266
  815TIP3    H223861   2.335   0.452  16.755  0.7385  2.2464  1.8892
  816TIP3   OH223862   4.882   5.678   4.961  0.5806  0.1585  0.2599
  816TIP3    H123863   4.964   5.721   4.936 -0.1037  0.9214 -0.7257
  816TIP3    H223864   4.890   5.589   4.927  0.0427  0.9096 -2.0095
  817TIP3   OH223865   4.529   3.586   3.969  0.8254  0.1653 -0.1029
  817TIP3    H123866   4.618   3.556   3.951  1.2372  1.0187  0.4895
  817TIP3    H223867   4.479   3.561   3.891  1.7212  0.2702 -0.7170
  818TIP3   OH223868   1.846   4.007   4.286 -0.3141  0.3393  0.1729
  818TIP3    H123869   1.871   3.918   4.260  1.0525  1.4038 -2.4955
  818TIP3    H223870   1.927   4.057   4.283 -0.9606  1.6317  2.1520
  819TIP3   OH223871   5.347   4.226  15.265 -0.2025  0.1787 -0.1964
  819TIP3    H123872   5.390   4.304  15.299  1.0785  0.5023 -2.4420
  819TIP3    H223873   5.323   4.247  15.175  1.7593 -2.5183 -1.5049
  820TIP3   OH223874   0.334   1.536   0.739 -0.7235 -0.3117  0.5227
  820TIP3    H123875   0.413   1.584   0.765  0.8112 -2.9195  1.0410
  820TIP3    H223876   0.299   1.502   0.821 -0.6291 -1.7093 -0.0057
  821TIP3   OH223877   2.162   5.524   5.282  0.1022 -0.1368  0.4698
  821TIP3    H123878   2.171   5.517   5.377  2.3318 -1.7031  0.2193
  821TIP3    H223879   2.241   5.569   5.253  0.6287 -1.7743 -0.7909
  822TIP3   OH223880   5.207   2.468  16.381  0.2799  0.4810 -0.4967
  822TIP3    H123881   5.163   2.387  16.357  1.0606  0.0915 -0.6384
  822TIP3    H223882   5.199   2.473  16.476  1.0390 -0.2502 -0.3803
  823TIP3   OH223883   6.155   2.089  16.563  0.3452  0.2234 -0.5158
  823TIP3    H123884   6.177   1.997  16.572  1.0851  0.4165 -0.1981
  823TIP3    H223885   6.062   2.091  16.543  0.4091 -0.6059 -0.9111
  824TIP3   OH223886   4.345   2.638   4.603 -0.3873 -0.5377  0.0779
  824TIP3    H123887   4.331   2.543   4.608 -0.5911 -0.6833 -2.0614
  824TIP3    H223888   4.262   2.676   4.631 -1.3121 -1.1161 -1.6795
  825TIP3   OH223889   6.633   5.487   4.782  0.1742 -0.2108 -0.2479
  825TIP3    H123890   6.556   5.461   4.730 -0.6343 -1.1357  1.3315
  825TIP3    H223891   6.627   5.434   4.861  0.6655  2.0061  1.3734
  826TIP3   OH223892   1.382   6.177   0.086  0.0729  0.1808  0.5045
  826TIP3    H123893   1.392   6.082   0.098 -2.8071 -0.4153 -0.9724
  826TIP3    H223894   1.382   6.189  -0.008  1.1401  1.8262  0.6716
  827TIP3   OH223895   0.595   3.139  15.463  0.4897 -0.1591 -0.5813
  827TIP3    H123896   0.666   3.116  15.523 -0.1030  0.6211  0.4450
  827TIP3    H223897   0.614   3.230  15.438  0.5799 -0.3874 -1.3815
  828TIP3   OH223898   5.318   0.333   3.018  0.3582 -0.7116  0.0053
  828TIP3    H123899   5.369   0.254   2.999  2.9608  1.1192 -1.2339
  828TIP3    H223900   5.334   0.350   3.110  0.6070 -1.0887  0.0353
  829TIP3   OH223901   5.821   4.788   0.309 -0.4393 -0.0080 -0.4734
  829TIP3    H123902   5.912   4.789   0.280 -0.5130 -0.5649 -0.7468
  829TIP3    H223903   5.806   4.697   0.335  0.1129  0.7395  2.9035
  830TIP3   OH223904   4.195   3.748   0.713  0.4657  0.2627 -0.5576
  830TIP3    H123905   4.130   3.701   0.661 -1.5125  0.2062  1.7705
  830TIP3    H223906   4.145   3.818   0.755  2.5966  2.2166 -1.0498
  831TIP3   OH223907   5.479   3.901   3.913 -0.1468 -0.1061  0.1891
  831TIP3    H123908   5.570   3.927   3.897 -0.2927 -0.3984 -1.3178
  831TIP3    H223909   5.486   3.825   3.970  0.6660 -1.1218 -1.2050
  832TIP3   OH223910   6.483   3.530   4.325  0.2513  0.3197  0.6087
  832TIP3    H123911   6.515   3.513   4.236 -0.1250  0.5536  0.4281
  832TIP3    H223912   6.490   3.625   4.335 -2.5716  0.6999 -0.2888
  833TIP3   OH223913   4.517   2.545  14.736  0.7839 -0.1170 -0.2499
  833TIP3    H123914   4.432   2.545  14.692 -0.0336 -1.3617  1.2337
  833TIP3    H223915   4.500   2.588  14.820  1.3735 -1.1842  0.4367
  834TIP3   OH223916   4.139   4.123   3.869 -0.3682 -0.1553 -0.4124
  834TIP3    H123917   4.142   4.213   3.837  0.4583 -0.3089 -0.8096
  834TIP3    H223918   4.073   4.124   3.938 -1.5455  0.3889 -1.5002
  835TIP3   OH223919   5.468   6.513   1.539 -0.7420  0.0500 -0.3207
  835TIP3    H123920   5.390   6.510   1.484 -0.5837 -3.0520 -0.5975
  835TIP3    H223921   5.531   6.565   1.490 -1.0259 -1.5723 -2.5606
  836TIP3   OH223922   5.157   1.660  11.825  0.3921 -0.2354 -0.2304
  836TIP3    H123923   5.249   1.685  11.823  0.5940 -0.8612 -3.2008
  836TIP3    H223924   5.154   1.582  11.881  1.9343 -1.0163 -1.1743
  837TIP3   OH223925   2.487   3.116   0.604  0.3268  0.0776  0.0821
  837TIP3    H123926   2.456   3.072   0.684 -1.0340  0.1559 -0.3763
  837TIP3    H223927   2.466   3.055   0.533  0.7606  0.3708 -0.3007
  838TIP3   OH223928   6.009   5.365   1.974 -0.0209  0.4757 -0.0657
  838TIP3    H123929   6.055   5.417   2.040 -0.3364  0.5894  0.0661
  838TIP3    H223930   5.928   5.413   1.957  0.0959  0.4927 -0.6010
  839TIP3   OH223931   5.914   0.009  11.743  0.0711 -0.3857  0.3568
  839TIP3    H123932   5.848   0.043  11.683 -0.1462 -0.2875  0.6487
  839TIP3    H223933   5.920   0.076  11.811  0.7496 -0.2108  0.1313
  840TIP3   OH223934   0.985   4.909   5.869 -0.2262 -0.2430 -0.4399
  840TIP3    H123935   1.064   4.937   5.915 -0.1965 -0.1021 -0.5755
  840TIP3    H223936   0.914   4.922   5.932  0.1449 -2.7837  0.6437
  841TIP3   OH223937   4.586   4.563  13.381 -0.1116 -1.1841  0.9825
  841TIP3    H123938   4.548   4.477  13.400 -1.4559 -0.8281  0.0256
  841TIP3    H223939   4.588   4.568  13.286 -1.3063  0.3667  1.0137
  842TIP3   OH223940   1.585   1.117   1.960 -0.3657  0.5218  0.9013
  842TIP3    H123941   1.592   1.059   1.885  0.2739  0.6969  0.8154
  842TIP3    H223942   1.500   1.097   1.999  0.2389 -1.1574  1.4362
  843TIP3   OH223943   5.080   0.449   2.772  0.0444 -0.0307  0.0574
  843TIP3    H123944   5.157   0.484   2.728 -1.0894  2.3729 -0.2074
  843TIP3    H223945   5.089   0.478   2.863 -1.3590  1.9134 -0.3617
  844TIP3   OH223946   2.472   1.318   3.882  1.4714  0.1725 -0.2158
  844TIP3    H123947   2.409   1.299   3.950  4.0766 -0.8073  2.1218
  844TIP3    H223948   2.492   1.411   3.893  0.1877  0.6171 -1.2977
  845TIP3   OH223949   5.015   3.373   5.007 -0.4452  0.0476 -0.3479
  845TIP3    H123950   5.017   3.435   4.934  0.9540 -0.1769 -0.5210
  845TIP3    H223951   4.983   3.292   4.967 -2.3216  0.6154 -0.1122
  846TIP3   OH223952   4.173   2.693  14.912 -0.5271 -0.2967 -0.0608
  846TIP3    H123953   4.131   2.755  14.972 -0.6846  0.4566 -0.9295
  846TIP3    H223954   4.117   2.616  14.914 -1.7672  0.5486 -0.9030
  847TIP3   OH223955   0.667   2.855   0.554 -0.4059  0.0285  0.2371
  847TIP3    H123956   0.620   2.778   0.522  1.6861 -0.7808 -1.0319
  847TIP3    H223957   0.701   2.897   0.476  1.6910  0.1057  1.1321
  848TIP3   OH223958   5.803   6.172  12.492  0.3518 -0.5068 -0.5586
  848TIP3    H123959   5.814   6.091  12.542 -0.9594 -0.1236  0.4077
  848TIP3    H223960   5.812   6.146  12.401  0.4800 -1.6460 -0.2308
  849TIP3   OH223961   2.978   1.998  15.539 -0.1325 -0.0953 -0.0809
  849TIP3    H123962   2.974   2.089  15.511 -1.0218  0.4920  1.7870
  849TIP3    H223963   2.917   1.993  15.613  1.2116 -1.7787  0.9915
  850TIP3   OH223964   0.168   1.833  13.629  0.3337  0.3436 -0.4336
  850TIP3    H123965   0.236   1.835  13.562  0.2787  0.9822 -0.4793
  850TIP3    H223966   0.087   1.847  13.581  0.2405  0.2950 -0.2916
  851TIP3   OH223967   5.531   5.532  10.643 -0.2051  0.1323  0.1002
  851TIP3    H123968   5.465   5.463  10.651 -0.2807  0.3708  2.1984
  851TIP3    H223969   5.486   5.611  10.674 -0.6728  1.6137 -3.8203
  852TIP3   OH223970   2.991   5.530   3.848  0.2893 -0.1617 -0.5431
  852TIP3    H123971   3.067   5.474   3.865 -0.3898 -0.8452  0.3718
  852TIP3    H223972   2.927   5.472   3.807 -0.3416 -0.0300  0.2207
  853TIP3   OH223973   5.262   0.058   5.484 -0.5162 -0.2166 -0.4651
  853TIP3    H123974   5.276   0.151   5.464  0.1855  0.1910  1.6168
  853TIP3    H223975   5.332   0.013   5.438  0.6067  0.5822  0.3859
  854TIP3   OH223976   6.096   3.271   1.551  0.2669 -0.0582  0.5926
  854TIP3    H123977   6.129   3.214   1.620  1.0440 -1.1428 -0.6233
  854TIP3    H223978   6.173   3.320   1.522 -0.1244  0.6449  0.7227
  855TIP3   OH223979   6.292   2.815   5.521  0.4454 -0.1447  0.6502
  855TIP3    H123980   6.225   2.800   5.588 -0.1227 -0.3568  0.0465
  855TIP3    H223981   6.326   2.903   5.540 -0.9064  0.5083  0.2170
  856TIP3   OH223982   5.026   4.167   1.486  0.1552 -0.3685 -0.3638
  856TIP3    H123983   4.983   4.176   1.401  1.0080 -0.6289 -0.8409
  856TIP3    H223984   5.112   4.208   1.474  0.1719 -0.1308  0.4716
  857TIP3   OH223985   3.682   6.516   5.466  0.0618  0.4558  0.0131
  857TIP3    H123986   3.614   6.451   5.445 -0.7905  1.4340 -0.3778
  857TIP3    H223987   3.718   6.488   5.550  0.6490 -1.2575 -0.7653
  858TIP3   OH223988   3.473   0.661  17.093  0.1591  0.1318  0.2989
  858TIP3    H123989   3.449   0.678  17.184  0.5196 -0.4494  0.5112
  858TIP3    H223990   3.438   0.735  17.044  1.1429  1.1600  1.0842
  859TIP3   OH223991   0.313   5.600  12.667 -0.0872 -0.0631 -0.0144
  859TIP3    H123992   0.335   5.516  12.627 -1.4742 -1.3445  1.7292
  859TIP3    H223993   0.232   5.626  12.624  0.1345  0.1782 -0.2829
  860TIP3   OH223994   1.699   2.659  15.564  0.3955  0.3588  0.4314
  860TIP3    H123995   1.793   2.651  15.580  0.6155 -2.3712 -1.5416
  860TIP3    H223996   1.693   2.696  15.476 -0.4784  1.8487  1.0707
  861TIP3   OH223997   1.597   4.300  15.516  0.4815 -0.4120  0.1418
  861TIP3    H123998   1.679   4.274  15.559  0.5574 -0.7586 -0.2053
  861TIP3    H223999   1.609   4.276  15.424  0.6656  1.1636 -0.2678
  862TIP3   OH224000   0.274   0.631   3.116 -0.3993  0.0946  0.1485
  862TIP3    H124001   0.324   0.699   3.162  1.9772 -0.2002 -1.7821
  862TIP3    H224002   0.249   0.672   3.034 -1.0944 -0.6049  0.0084
  863TIP3   OH224003   1.707   5.041   1.026  0.3291  0.9821  0.4377
  863TIP3    H124004   1.753   5.025   0.943 -0.0548 -0.5859  0.4990
  863TIP3    H224005   1.689   5.135   1.025 -0.0538  0.9355 -1.4679
  864TIP3   OH224006   6.131   1.485  12.409 -0.6642  0.7089  0.5839
  864TIP3    H124007   6.213   1.435  12.411 -0.4613  0.9303 -1.0188
  864TIP3    H224008   6.138   1.540  12.331 -2.1221  1.1178  0.7066
  865TIP3   OH224009   4.919   1.262  14.233 -0.5035  0.7616  0.4694
  865TIP3    H124010   4.862   1.300  14.301 -1.3740  0.1974  0.0694
  865TIP3    H224011   4.910   1.168  14.244 -0.4415  0.6659 -0.2602
  866TIP3   OH224012   5.177   6.274   1.999 -0.1977 -0.1740 -0.0036
  866TIP3    H124013   5.148   6.219   1.926 -0.5688 -1.2927  0.9523
  866TIP3    H224014   5.262   6.308   1.971 -0.5215 -0.2287 -1.1215
  867TIP3   OH224015   3.778   0.906   3.917 -0.2504  0.4742  0.4305
  867TIP3    H124016   3.746   0.874   3.832 -1.0384 -0.7467  1.1626
  867TIP3    H224017   3.705   0.891   3.977  0.4502  0.9533  1.4190
  868TIP3   OH224018   0.732   5.545   3.135 -0.5457  0.5305  0.5779
  868TIP3    H124019   0.769   5.477   3.079 -0.8343  1.4836 -0.8145
  868TIP3    H224020   0.736   5.508   3.224  0.3478 -0.8262 -0.0002
  869TIP3   OH224021   6.201   5.611  10.962  0.6897 -0.9315  0.5602
  869TIP3    H124022   6.172   5.668  11.034 -0.5879 -1.5143  0.5204
  869TIP3    H224023   6.252   5.669  10.905  1.0172 -0.2710  1.4948
  870TIP3   OH224024   5.111   3.332  15.344 -0.9650  0.1973  0.8295
  870TIP3    H124025   5.143   3.298  15.261 -0.2205 -1.3285  1.6910
  870TIP3    H224026   5.041   3.271  15.369  0.8287 -1.1989  2.7277
  871TIP3   OH224027   4.984   2.219  12.871 -0.0306  0.5528  0.5789
  871TIP3    H124028   4.911   2.269  12.908 -1.7851 -0.5009 -1.2450
  871TIP3    H224029   4.968   2.221  12.777  0.5876 -2.2503  0.3382
  872TIP3   OH224030   0.993   5.544  10.421  0.9219 -0.0818  0.2305
  872TIP3    H124031   0.971   5.452  10.406  1.0788 -0.3827  1.6413
  872TIP3    H224032   1.089   5.544  10.428  0.8779  0.0469  0.9486
  873TIP3   OH224033   6.773   2.629  14.612  0.1352 -0.3835  0.1319
  873TIP3    H124034   6.716   2.684  14.666  0.9465  0.9074 -0.2831
  873TIP3    H224035   6.787   2.680  14.532  1.4358 -0.8930  0.0100
  874TIP3   OH224036   4.849   1.192  12.261  0.0499 -0.2531  0.1427
  874TIP3    H124037   4.869   1.252  12.189 -0.2594 -0.4657 -0.1232
  874TIP3    H224038   4.839   1.249  12.338 -1.2538  0.1538 -0.2994
  875TIP3   OH224039   1.337   4.903  13.465  1.0577  0.0192 -0.4587
  875TIP3    H124040   1.285   4.889  13.385  0.6049 -0.0617 -0.1551
  875TIP3    H224041   1.316   4.992  13.492  0.8205 -0.1239 -0.1574
  876TIP3   OH224042   5.660   0.407   5.781 -0.1857 -0.1285 -0.4175
  876TIP3    H124043   5.686   0.346   5.850 -0.8611 -0.7855 -0.7339
  876TIP3    H224044   5.669   0.493   5.822 -0.7642 -0.5134  0.5696
  877TIP3   OH224045   1.998   0.643  15.895 -0.0695 -0.4999 -0.1706
  877TIP3    H124046   1.973   0.712  15.834  4.6535  0.1874 -1.7284
  877TIP3    H224047   2.028   0.691  15.973 -2.8097 -1.2674  1.5298
  878TIP3   OH224048   1.410   6.615  14.487  0.0520 -0.5452  0.6216
  878TIP3    H124049   1.392   6.630  14.394 -0.2988  0.7610  0.8818
  878TIP3    H224050   1.324   6.609  14.528  0.1907  0.4238  1.0808
  879TIP3   OH224051   3.277   0.128  17.183 -0.6752 -0.0836 -0.4522
  879TIP3    H124052   3.332   0.188  17.235 -2.1402  0.2945  0.7139
  879TIP3    H224053   3.190   0.136  17.221 -1.0726 -2.4844 -0.6808
  880TIP3   OH224054   0.358   0.182   1.799  0.0961 -0.6343  0.0646
  880TIP3    H124055   0.446   0.216   1.782  0.7588 -2.6366 -0.7418
  880TIP3    H224056   0.373   0.100   1.845 -1.1085 -2.8189 -3.0936
  881TIP3   OH224057   0.569   5.480  13.774 -0.7155  0.6133 -0.2833
  881TIP3    H124058   0.538   5.470  13.684 -2.7435 -0.0332  0.4186
  881TIP3    H224059   0.625   5.404  13.788  0.9194  1.5442 -1.4446
  882TIP3   OH224060   4.088   5.666   1.461 -0.2728  0.2178 -0.2128
  882TIP3    H124061   3.999   5.632   1.458 -0.7457  1.4040 -0.2188
  882TIP3    H224062   4.097   5.702   1.550  0.3090 -0.1426 -0.1164
  883TIP3   OH224063   3.805   3.040   5.717  0.2102 -0.1620  0.4677
  883TIP3    H124064   3.789   2.946   5.716  1.1207 -0.3398  1.2564
  883TIP3    H224065   3.757   3.072   5.793  0.5279 -0.1198  0.6545
  884TIP3   OH224066   3.232   5.921  13.555 -0.0820 -0.6262  0.0461
  884TIP3    H124067   3.253   5.834  13.524 -1.0229 -1.6185  2.0034
  884TIP3    H224068   3.227   5.913  13.651 -1.5747  1.2232  0.1981
  885TIP3   OH224069   3.927   2.142  13.616  0.0318 -0.1758  0.0406
  885TIP3    H124070   3.935   2.210  13.549 -0.7504  1.3192  1.4206
  885TIP3    H224071   4.000   2.083  13.598  0.5917  0.8765 -1.3489
  886TIP3   OH224072   0.914   1.362  16.275  0.0858  0.4695  0.0113
  886TIP3    H124073   0.866   1.443  16.257 -1.0932  0.0568  1.1110
  886TIP3    H224074   0.955   1.377  16.360  1.9990  0.8260 -0.9321
  887TIP3   OH224075   1.535   5.443  16.805 -0.2215 -0.1117 -0.0064
  887TIP3    H124076   1.621   5.426  16.768 -0.6494 -0.4878 -0.8490
  887TIP3    H224077   1.551   5.453  16.899  0.8171  0.4661 -0.2318
  888TIP3   OH224078   1.414   5.744  16.499 -0.2413  0.1819 -0.1197
  888TIP3    H124079   1.489   5.685  16.510 -0.7068 -0.4930 -0.4665
  888TIP3    H224080   1.428   5.785  16.413 -1.0909 -1.2045 -0.9708
  889TIP3   OH224081   0.755   5.046  14.158 -0.0088  0.3099 -0.1308
  889TIP3    H124082   0.840   5.014  14.129  0.6464  0.2438  1.7680
  889TIP3    H224083   0.693   5.009  14.095  1.3019 -0.0875 -1.2249
  890TIP3   OH224084   0.315   5.176  15.712  0.0056 -0.1716 -0.3275
  890TIP3    H124085   0.321   5.271  15.719 -0.5175 -0.1448 -0.2122
  890TIP3    H224086   0.329   5.158  15.619  3.6817 -0.2791  0.0749
  891TIP3   OH224087   3.588   3.338  13.322  0.5361  0.5590  0.2739
  891TIP3    H124088   3.527   3.268  13.344  2.8559 -1.2674  1.2451
  891TIP3    H224089   3.546   3.418  13.355 -1.8527 -0.4044 -0.2225
  892TIP3   OH224090   6.327   5.067  10.766 -0.3650 -0.2512 -1.1983
  892TIP3    H124091   6.261   5.114  10.816  0.1919 -0.1830 -0.5020
  892TIP3    H224092   6.334   5.115  10.683  0.7840  1.4264 -0.1866
  893TIP3   OH224093   0.589   2.484   5.847 -0.4584  0.4658  0.1783
  893TIP3    H124094   0.667   2.493   5.902  0.2384 -2.9067 -0.0217
  893TIP3    H224095   0.525   2.440   5.904  0.0652 -2.5073 -1.3120
  894TIP3   OH224096   3.690   3.293  15.171 -0.0290  0.2652 -0.5707
  894TIP3    H124097   3.770   3.337  15.140  0.4912  0.5198  1.0620
  894TIP3    H224098   3.657   3.349  15.240  0.4914 -1.7010  1.3861
  895TIP3   OH224099   0.111   4.147   1.840  0.3045  0.2069 -0.1761
  895TIP3    H124100   0.178   4.202   1.881 -0.1528  1.1239 -0.6197
  895TIP3    H224101   0.054   4.209   1.794 -0.7483 -0.5699  0.0469
  896TIP3   OH224102   6.114   1.520  17.100  0.5974  0.1589  0.9380
  896TIP3    H124103   6.133   1.531  17.007  0.6807  0.0999  0.9492
  896TIP3    H224104   6.057   1.594  17.122  0.7865  0.3143  0.9028
  897TIP3   OH224105   6.564   1.750  16.501 -0.1650 -0.6850 -0.0302
  897TIP3    H124106   6.643   1.708  16.467  1.4213  0.5927  1.8137
  897TIP3    H224107   6.550   1.825  16.442  1.6017  0.5738  1.0308
  898TIP3   OH224108   2.479   1.532   3.171 -0.2525 -0.0055  0.0388
  898TIP3    H124109   2.553   1.475   3.151 -0.9218 -0.4637 -1.2539
  898TIP3    H224110   2.402   1.476   3.158 -1.0334  1.6035 -3.0111
  899TIP3   OH224111   0.353   2.037   3.454 -0.2312 -0.0419 -0.0442
  899TIP3    H124112   0.303   2.053   3.534 -0.3929 -2.1013  0.3435
  899TIP3    H224113   0.440   2.013   3.485  0.4380  1.5556 -0.6234
  900TIP3   OH224114   2.498   6.756  14.013  0.0033  0.2200  0.6547
  900TIP3    H124115   2.483   6.755  14.107 -0.9421  4.4002  0.7567
  900TIP3    H224116   2.432   6.817  13.979  1.1928 -0.0695 -2.5098
  901TIP3   OH224117   3.432   5.739   0.937 -0.0134 -0.2455 -0.2347
  901TIP3    H124118   3.393   5.656   0.908  1.5432 -0.9659 -0.3726
  901TIP3    H224119   3.508   5.713   0.988  0.3187  1.1078 -0.0047
  902TIP3   OH224120   3.525   6.570   3.101  0.2164 -0.5521  0.2675
  902TIP3    H124121   3.545   6.614   3.184 -0.4659 -0.8529  0.5998
  902TIP3    H224122   3.497   6.482   3.127  1.5020 -1.1734 -0.3856
  903TIP3   OH224123   1.843   0.718   0.229  0.2628 -0.1761  0.8200
  903TIP3    H124124   1.764   0.690   0.181  0.4692 -2.9936  1.9749
  903TIP3    H224125   1.914   0.704   0.167  0.0734  0.6146  0.4082
  904TIP3   OH224126   1.219   1.375   1.181 -0.2825 -0.4866  0.4065
  904TIP3    H124127   1.173   1.294   1.160  0.1575 -0.5019 -0.5617
  904TIP3    H224128   1.161   1.421   1.241 -1.5386 -0.5407 -0.7131
  905TIP3   OH224129   2.893   0.710  15.213 -0.1218 -0.1202 -0.4290
  905TIP3    H124130   2.981   0.700  15.249 -0.2545 -0.4589 -0.2010
  905TIP3    H224131   2.886   0.641  15.147 -0.5844 -0.7599  0.2734
  906TIP3   OH224132   4.657   5.887   2.614  0.7957 -0.3191  0.1252
  906TIP3    H124133   4.620   5.918   2.531  0.6762 -1.5003 -0.2761
  906TIP3    H224134   4.743   5.930   2.619  0.6056  0.1335 -0.3733
  907TIP3   OH224135   3.058   4.079  11.637  0.0871  0.1487 -0.2753
  907TIP3    H124136   2.994   4.008  11.646  0.5361 -0.0323  2.4770
  907TIP3    H224137   3.017   4.153  11.682  1.3534  0.3146  0.6700
  908TIP3   OH224138   5.727   1.184   0.464 -0.1044  0.1528 -0.0336
  908TIP3    H124139   5.759   1.237   0.392  0.8984 -1.3100 -0.7097
  908TIP3    H224140   5.786   1.205   0.537 -0.8802  1.3391  0.2843
  909TIP3   OH224141   6.773   4.568  14.869 -0.7101 -0.1484 -0.2452
  909TIP3    H124142   6.702   4.630  14.857 -0.1119  0.4231 -0.9512
  909TIP3    H224143   6.808   4.554  14.780  0.5792  0.2254  0.1766
  910TIP3   OH224144   5.231   6.431   0.873  0.1707  0.6043 -0.5458
  910TIP3    H124145   5.286   6.353   0.861 -0.8036 -0.3280  0.7547
  910TIP3    H224146   5.263   6.470   0.954  0.8010  1.7263 -1.3030
  911TIP3   OH224147   1.499   6.219  12.971  0.1023  0.0247  0.1747
  911TIP3    H124148   1.519   6.136  13.014  1.6275 -0.1522 -0.8053
  911TIP3    H224149   1.403   6.225  12.973 -0.0636 -1.9813 -0.1218
  912TIP3   OH224150   6.588   4.073   3.292 -0.7135  0.1797 -0.0595
  912TIP3    H124151   6.572   4.049   3.201  0.3079  2.6826 -0.9989
  912TIP3    H224152   6.614   3.992   3.335 -0.5273 -0.9328 -2.1660
  913TIP3   OH224153   3.169   5.336  14.406 -0.0960 -0.5743 -0.3714
  913TIP3    H124154   3.079   5.349  14.435 -0.0237  1.1860 -0.8424
  913TIP3    H224155   3.168   5.357  14.313  1.1466  1.3610  0.0036
  914TIP3   OH224156   1.951   0.429   1.414  0.8208  0.2959  0.2529
  914TIP3    H124157   1.952   0.442   1.508 -1.1089 -2.2868  0.7565
  914TIP3    H224158   1.945   0.517   1.377 -0.8073  1.2742  2.6391
  915TIP3   OH224159   6.446   1.688   3.502  0.2938 -0.1833  0.1811
  915TIP3    H124160   6.371   1.681   3.444  0.8425  0.5735 -0.6348
  915TIP3    H224161   6.410   1.720   3.585  0.0168  2.6580 -0.9425
  916TIP3   OH224162   1.745   2.351  10.497 -0.0382  0.2249 -0.0858
  916TIP3    H124163   1.662   2.326  10.538 -0.2871  1.0322 -0.0835
  916TIP3    H224164   1.719   2.390  10.414  0.3883 -0.1524 -0.3985
  917TIP3   OH224165   4.241   3.513   2.762  1.0700 -0.4411 -0.2531
  917TIP3    H124166   4.277   3.580   2.820 -1.1306 -0.0869  0.7830
  917TIP3    H224167   4.199   3.450   2.820  0.8900 -1.3766 -1.3528
  918TIP3   OH224168   5.278   0.412  13.477 -0.3024  0.3897 -0.2908
  918TIP3    H124169   5.197   0.373  13.508  0.4098 -1.2024 -0.3121
  918TIP3    H224170   5.273   0.504  13.503 -2.5997  0.6020 -1.3328
  919TIP3   OH224171   6.321   3.722  13.957  0.8647  0.5217 -0.0571
  919TIP3    H124172   6.317   3.814  13.931  2.2715  0.1690 -1.6403
  919TIP3    H224173   6.409   3.693  13.935  0.4563 -1.2347  0.3796
  920TIP3   OH224174   4.381   4.784   0.245  0.0565 -0.1092  0.1812
  920TIP3    H124175   4.294   4.807   0.281 -0.5961  0.3413 -1.5858
  920TIP3    H224176   4.384   4.689   0.250 -0.9984 -0.2071 -0.6987
  921TIP3   OH224177   2.521   5.967   2.710 -0.3590 -0.2636 -0.7171
  921TIP3    H124178   2.551   6.051   2.675  1.7215  0.7127  2.8973
  921TIP3    H224179   2.597   5.910   2.703 -0.9596 -1.0641 -0.7878
  922TIP3   OH224180   3.380   4.886  12.421 -0.2953  0.1429  0.3448
  922TIP3    H124181   3.360   4.834  12.499 -0.5602  0.3602  0.4228
  922TIP3    H224182   3.310   4.952  12.417 -0.4553 -0.0524 -0.2449
  923TIP3   OH224183   6.352   0.426   0.344 -0.4325 -0.4210  0.2320
  923TIP3    H124184   6.345   0.513   0.384 -1.2661 -0.3916  0.0438
  923TIP3    H224185   6.398   0.373   0.409 -0.2415  0.0699  0.4988
  924TIP3   OH224186   2.928   2.479   2.446 -0.0549 -0.1753 -0.5974
  924TIP3    H124187   2.928   2.528   2.363  0.0471  1.9321  0.5857
  924TIP3    H224188   2.906   2.544   2.512 -0.0163 -1.7915  1.0818
  925TIP3   OH224189   3.800   1.860   1.721  0.1223  0.8012 -0.7983
  925TIP3    H124190   3.735   1.796   1.692  1.4599 -0.3289 -1.4280
  925TIP3    H224191   3.842   1.891   1.640  2.2407 -0.5824 -0.3254
  926TIP3   OH224192   4.712   5.005   6.563  0.9369  0.0410  0.1347
  926TIP3    H124193   4.765   5.083   6.545 -1.1783  1.1920 -1.5279
  926TIP3    H224194   4.642   5.008   6.497  1.1384 -3.6382 -0.4399
  927TIP3   OH224195   1.842   5.689  12.182  0.0198  0.3418  0.4694
  927TIP3    H124196   1.797   5.614  12.221 -0.4819  0.4899  0.1822
  927TIP3    H224197   1.846   5.754  12.253  1.6374 -0.4332  1.1259
  928TIP3   OH224198   3.266   3.740   3.740  0.1318 -0.1924  0.4685
  928TIP3    H124199   3.243   3.829   3.767 -1.1708 -0.7090  1.1484
  928TIP3    H224200   3.234   3.733   3.650 -3.2644 -1.1082  1.5974
  929TIP3   OH224201   1.336   6.700  15.138  0.3317 -0.1310 -0.3461
  929TIP3    H124202   1.383   6.768  15.186  1.3070 -0.8517 -0.2517
  929TIP3    H224203   1.398   6.627  15.132 -0.4482 -0.7616 -1.0419
  930TIP3   OH224204   1.182   1.894   1.431  0.1234 -0.6286  0.3235
  930TIP3    H124205   1.240   1.857   1.498  0.2964 -2.0467 -0.5787
  930TIP3    H224206   1.100   1.845   1.440  0.7241 -2.0967 -1.6165
  931TIP3   OH224207   3.211   1.957   6.025 -0.1230  0.1718  0.1835
  931TIP3    H124208   3.138   1.913   6.068 -0.6014  0.1770 -0.5994
  931TIP3    H224209   3.250   2.011   6.094 -1.7282  1.2529  0.3110
  932TIP3   OH224210   2.520   0.780  13.288  0.2463  0.0429 -0.2634
  932TIP3    H124211   2.449   0.734  13.244  1.8812 -1.6211 -1.2738
  932TIP3    H224212   2.498   0.873  13.277 -0.6683 -0.3648 -2.4608
  933TIP3   OH224213   6.503   6.255   5.510 -0.4299  0.5285 -0.2791
  933TIP3    H124214   6.532   6.275   5.421  2.5680  0.3113  0.5460
  933TIP3    H224215   6.483   6.340   5.549 -1.2614  0.6601 -0.9652
  934TIP3   OH224216   6.495   6.452  11.778 -0.2260  0.0564  0.0954
  934TIP3    H124217   6.401   6.471  11.783  0.2344  2.5626  1.0229
  934TIP3    H224218   6.507   6.378  11.837 -1.2927  1.5150  2.3229
  935TIP3   OH224219   3.891   5.096  10.851 -0.4060 -0.4721 -0.6181
  935TIP3    H124220   3.918   5.007  10.873  2.2809  0.1670 -0.9601
  935TIP3    H224221   3.887   5.141  10.936 -0.4013 -0.5871 -0.5564
  936TIP3   OH224222   5.908   1.411   4.304  0.0382 -0.3464  0.6294
  936TIP3    H124223   5.992   1.453   4.282 -0.0159 -0.0343  1.0056
  936TIP3    H224224   5.915   1.323   4.267  0.1119  0.0248 -0.2675
  937TIP3   OH224225   0.413   1.947   0.961 -0.0211  0.1311  0.1692
  937TIP3    H124226   0.325   1.941   0.922  0.6468 -0.6902 -1.2665
  937TIP3    H224227   0.454   2.020   0.914  0.1721  0.3158  0.6243
  938TIP3   OH224228   5.289   5.724  16.776  0.2416  0.2506 -0.2917
  938TIP3    H124229   5.267   5.802  16.828  0.2795 -0.2989  0.5728
  938TIP3    H224230   5.372   5.694  16.814 -0.4965 -1.0406  0.3651
  939TIP3   OH224231   3.194   3.545  13.470 -0.3829  0.3621  0.0642
  939TIP3    H124232   3.166   3.462  13.508 -0.2703 -0.1322 -0.9156
  939TIP3    H224233   3.128   3.565  13.404 -1.8275  2.3392  1.9549
  940TIP3   OH224234   5.498   2.202  14.163 -0.2490  0.1961 -0.3339
  940TIP3    H124235   5.480   2.239  14.076  1.5909  0.7941 -0.4866
  940TIP3    H224236   5.480   2.273  14.224  1.4682  0.8012 -0.4886
  941TIP3   OH224237   2.443   3.617   2.713 -0.5184  0.4801  0.5015
  941TIP3    H124238   2.438   3.528   2.747  0.5837 -0.1316 -0.8519
  941TIP3    H224239   2.354   3.636   2.683 -0.1756 -1.4335 -2.1318
  942TIP3   OH224240   5.800   2.215   2.402  0.6086 -0.0929  0.3407
  942TIP3    H124241   5.889   2.204   2.367  0.2190  1.3370 -1.2471
  942TIP3    H224242   5.745   2.225   2.324 -0.9693 -0.9846  1.2953
  943TIP3   OH224243   0.658   4.320  14.723  0.2479  0.3441  0.7175
  943TIP3    H124244   0.729   4.326  14.659  1.4967  0.1813  2.0550
  943TIP3    H224245   0.681   4.382  14.791  0.3432 -1.3707  2.3343
  944TIP3   OH224246   0.234   0.540   3.523  0.1381  0.2088  0.0344
  944TIP3    H124247   0.324   0.533   3.494  0.7139 -1.8551  2.0243
  944TIP3    H224248   0.217   0.634   3.529  2.8560  0.6955  1.5471
  945TIP3   OH224249   3.992   3.895  14.859  0.0260  0.5828 -0.1516
  945TIP3    H124250   3.971   3.883  14.766  0.3178  0.8230 -0.2511
  945TIP3    H224251   3.936   3.967  14.887  0.8505  1.3734 -0.4726
  946TIP3   OH224252   0.513   1.804  14.960 -0.2002  0.0844  0.0083
  946TIP3    H124253   0.424   1.774  14.981 -0.5480  1.0526 -0.0635
  946TIP3    H224254   0.550   1.733  14.907 -0.7069 -0.6023  0.5528
  947TIP3   OH224255   6.776   5.468  12.140 -0.5748 -0.2859  0.4969
  947TIP3    H124256   6.740   5.556  12.133 -1.0970 -0.4915  0.5117
  947TIP3    H224257   6.860   5.479  12.184 -0.5667  0.2207  0.3563
  948TIP3   OH224258   5.528   1.624  16.677  0.2177  0.1269 -0.2296
  948TIP3    H124259   5.608   1.644  16.726  0.2334 -0.6964  0.0946
  948TIP3    H224260   5.535   1.678  16.598  1.2163 -0.1101 -0.3228
  949TIP3   OH224261   2.062   2.132  12.321  0.7889  0.1937 -0.1533
  949TIP3    H124262   2.035   2.040  12.313  0.0230  0.3482  0.4456
  949TIP3    H224263   2.091   2.156  12.233  2.1764 -0.9622 -0.0457
  950TIP3   OH224264   0.267   3.025  15.231 -0.0256  0.2389 -0.8495
  950TIP3    H124265   0.222   2.940  15.238  0.0555  0.2708  0.2209
  950TIP3    H224266   0.206   3.088  15.270  0.0080  0.6399 -1.4390
  951TIP3   OH224267   5.279   1.277   2.227  0.0763 -0.1792 -0.6364
  951TIP3    H124268   5.232   1.270   2.311 -0.2099 -2.4830 -0.9066
  951TIP3    H224269   5.230   1.342   2.177 -1.5084 -0.8870 -0.0694
  952TIP3   OH224270   0.553   1.965  17.198  0.5277 -1.1983  0.5603
  952TIP3    H124271   0.489   2.026  17.161  1.1600  0.4560  2.0319
  952TIP3    H224272   0.638   2.005  17.180  0.9204 -1.2016  2.2041
  953TIP3   OH224273   5.519   3.091  11.120  0.3260 -0.0794 -0.2153
  953TIP3    H124274   5.502   3.007  11.078 -0.0835 -0.2985  0.3748
  953TIP3    H224275   5.592   3.075  11.179  1.0206  0.2726 -0.9615
  954TIP3   OH224276   1.672   2.285  15.940 -0.2241  0.1464  0.6832
  954TIP3    H124277   1.765   2.271  15.925 -0.3326 -2.0898  1.8212
  954TIP3    H224278   1.638   2.312  15.854  1.3121  0.1930  0.0653
  955TIP3   OH224279   4.521   5.710   5.092  0.1404  0.7594 -0.0350
  955TIP3    H124280   4.580   5.650   5.138 -1.0187  0.3138  0.9064
  955TIP3    H224281   4.572   5.790   5.082  1.1235  0.1884  0.1948
  956TIP3   OH224282   6.218   6.698  17.239 -0.0365 -0.2564  0.3671
  956TIP3    H124283   6.278   6.760  17.197  1.2013  0.0039  2.3928
  956TIP3    H224284   6.199   6.634  17.171  0.2378  1.2337 -1.1877
  957TIP3   OH224285   1.161   5.319  10.872  0.1866  0.2196  0.5016
  957TIP3    H124286   1.080   5.371  10.870 -1.8289 -2.6643 -0.3953
  957TIP3    H224287   1.185   5.308  10.780  0.7942 -0.0604  0.6875
  958TIP3   OH224288   1.635   4.438  11.825 -0.2632 -0.3836 -0.0604
  958TIP3    H124289   1.680   4.453  11.742  1.1670  0.2511  0.7931
  958TIP3    H224290   1.553   4.488  11.816  0.6973  1.2164 -0.4253
  959TIP3   OH224291   3.056   4.695   5.301 -0.2889 -0.1352 -0.2453
  959TIP3    H124292   3.054   4.645   5.219 -0.4112 -3.3270  1.5430
  959TIP3    H224293   3.145   4.728   5.307  0.3708 -1.7493 -0.6806
  960TIP3   OH224294   6.200   6.324  13.491 -0.2878 -0.7941 -0.3018
  960TIP3    H124295   6.244   6.258  13.544 -0.3911  0.6904  1.7172
  960TIP3    H224296   6.200   6.287  13.402  0.8164 -2.8885  0.5099
  961TIP3   OH224297   4.962   3.530   2.393 -0.5993 -0.6221 -0.2174
  961TIP3    H124298   5.050   3.520   2.428 -1.0524 -0.1615  1.1261
  961TIP3    H224299   4.963   3.482   2.310  0.4191 -2.0363  0.5863
  962TIP3   OH224300   3.092   3.613   3.376 -0.3442  0.0975 -0.1671
  962TIP3    H124301   3.065   3.564   3.299 -0.8886  1.1568 -0.6794
  962TIP3    H224302   3.032   3.583   3.445 -1.3231  0.7174 -0.7142
  963TIP3   OH224303   6.262   5.580   5.273 -0.1203 -0.1163 -0.7970
  963TIP3    H124304   6.230   5.670   5.278  0.5247  0.1984 -1.9208
  963TIP3    H224305   6.186   5.526   5.296 -0.2273  0.7293  0.9064
  964TIP3   OH224306   0.544   0.894  13.344  0.0492  0.5409 -0.0818
  964TIP3    H124307   0.589   0.814  13.316  0.8948  0.7678  0.5828
  964TIP3    H224308   0.452   0.879  13.321  0.3659 -0.1664 -0.9552
  965TIP3   OH224309   3.555   5.633   3.768 -1.0529 -0.2974  0.1002
  965TIP3    H124310   3.616   5.618   3.696 -1.0378  2.1619 -0.4802
  965TIP3    H224311   3.469   5.636   3.726 -1.0359  1.2301  0.1223
  966TIP3   OH224312   0.407   5.108  16.841 -0.2306  0.0116 -0.5951
  966TIP3    H124313   0.477   5.066  16.890  0.3951 -1.1372 -2.4048
  966TIP3    H224314   0.418   5.202  16.859  0.0415 -0.3451  1.2968
  967TIP3   OH224315   0.651   1.829  12.673  0.0625  0.4408  0.1754
  967TIP3    H124316   0.556   1.843  12.678  0.1871  1.4507 -0.0478
  967TIP3    H224317   0.668   1.761  12.738 -0.7921  0.3596  0.3338
  968TIP3   OH224318   3.074   2.240   3.227 -0.5557  0.0467  0.0327
  968TIP3    H124319   3.056   2.262   3.135 -0.3431 -0.4015 -0.1196
  968TIP3    H224320   3.108   2.150   3.224  0.8069  0.5186  0.3979
  969TIP3   OH224321   4.555   4.590   5.653 -0.7632 -0.2953 -0.1888
  969TIP3    H124322   4.580   4.543   5.573 -2.3067 -0.1931 -0.7701
  969TIP3    H224323   4.537   4.679   5.624 -0.0473  0.0873  0.5179
  970TIP3   OH224324   5.868   2.913   5.373  0.5125 -0.0754 -0.1746
  970TIP3    H124325   5.936   2.848   5.354  1.0055 -0.6828  3.0399
  970TIP3    H224326   5.881   2.981   5.307  2.4844 -1.4416 -1.3087
  971TIP3   OH224327   0.469   4.639   2.106  0.2742  0.3009 -0.2801
  971TIP3    H124328   0.442   4.681   2.188  0.0449 -0.8122  0.2235
  971TIP3    H224329   0.537   4.577   2.132 -0.3489 -0.6278 -0.8206
  972TIP3   OH224330   1.389   2.031  14.011 -0.6283  0.4022 -0.4194
  972TIP3    H124331   1.384   1.937  14.029  3.3064  0.1563  0.2053
  972TIP3    H224332   1.341   2.042  13.928  2.0564 -2.9951 -2.7115
  973TIP3   OH224333   1.647   0.763  16.021 -0.2278 -0.4558  0.2955
  973TIP3    H124334   1.581   0.793  15.958 -2.3668 -1.0996  2.1304
  973TIP3    H224335   1.678   0.680  15.986 -1.6862 -1.0081  0.2604
  974TIP3   OH224336   1.024   1.892   5.800  0.7052 -0.1048 -0.2786
  974TIP3    H124337   1.096   1.853   5.749 -0.0488 -0.9282 -0.7301
  974TIP3    H224338   0.956   1.910   5.735 -0.1907 -0.9831  0.3928
  975TIP3   OH224339   6.163   3.479   5.587 -0.2316 -0.0650  0.1369
  975TIP3    H124340   6.190   3.570   5.597  0.9257 -0.5057  1.2740
  975TIP3    H224341   6.175   3.441   5.674 -0.8706 -1.2727 -0.2782
  976TIP3   OH224342   3.756   2.886  13.886  0.1571 -0.3216 -0.5131
  976TIP3    H124343   3.697   2.826  13.841 -0.9224  0.6175 -0.3848
  976TIP3    H224344   3.818   2.829  13.932 -0.1645 -1.3113 -1.2769
  977TIP3   OH224345   4.403   3.280   5.333  0.1614  0.0843  0.4447
  977TIP3    H124346   4.347   3.301   5.408  0.0617  0.9448  0.1438
  977TIP3    H224347   4.423   3.365   5.294 -0.2054 -0.3755 -0.8029
  978TIP3   OH224348   2.214   4.180  12.097  0.2716 -0.3476 -0.5044
  978TIP3    H124349   2.132   4.213  12.133  0.2055  1.3192 -2.0416
  978TIP3    H224350   2.189   4.098  12.053 -0.3345 -0.4687  0.0561
  979TIP3   OH224351   6.735   3.125   2.460  0.0362  0.0507  0.8794
  979TIP3    H124352   6.769   3.137   2.371 -0.0484  1.8677  1.0557
  979TIP3    H224353   6.641   3.113   2.449 -0.0105  0.5550  0.7510
  980TIP3   OH224354   2.534   5.660  13.507 -0.0694 -0.0051 -0.2448
  980TIP3    H124355   2.505   5.751  13.502 -0.1214 -0.0675 -2.0515
  980TIP3    H224356   2.456   5.609  13.487 -0.0481 -0.4543  0.7924
  981TIP3   OH224357   4.156   3.198   4.789  0.4857 -0.1443  0.3682
  981TIP3    H124358   4.235   3.148   4.772  1.5769  0.9244  2.0248
  981TIP3    H224359   4.136   3.181   4.881 -1.6174 -0.8933 -0.1619
  982TIP3   OH224360   5.864   6.559   4.067 -0.1088 -0.4421  0.0968
  982TIP3    H124361   5.846   6.578   3.975 -1.6200  1.3341  0.7081
  982TIP3    H224362   5.950   6.598   4.083  0.1366 -0.7100 -0.5298
  983TIP3   OH224363   6.406   1.631  14.266 -0.1715 -0.1597  0.1165
  983TIP3    H124364   6.421   1.713  14.219 -0.7543  0.0997  0.3795
  983TIP3    H224365   6.353   1.578  14.206  0.8083 -0.6392 -0.3511
  984TIP3   OH224366   1.616   1.006  15.277 -0.3340  0.0273 -0.0156
  984TIP3    H124367   1.548   1.067  15.306  0.4827  0.9083  0.0990
  984TIP3    H224368   1.655   0.973  15.359 -0.4199 -0.2307 -0.0807
  985TIP3   OH224369   3.701   2.823  14.998 -0.1286 -0.1912 -0.1546
  985TIP3    H124370   3.682   2.759  15.067  0.2846 -0.4540 -0.2823
  985TIP3    H224371   3.679   2.908  15.037 -0.0183 -0.3496  0.2554
  986TIP3   OH224372   0.277   6.690  12.624 -0.3096 -0.1570  0.4082
  986TIP3    H124373   0.276   6.602  12.663 -1.2089  0.6062  2.2346
  986TIP3    H224374   0.185   6.706  12.601 -0.1802  0.3802  0.2630
  987TIP3   OH224375   6.321   5.861  10.885 -0.4319  0.0474 -0.4952
  987TIP3    H124376   6.332   5.914  10.964 -1.6250 -0.6607  0.1785
  987TIP3    H224377   6.362   5.913  10.815  1.6448  0.1977  0.7391
  988TIP3   OH224378   6.139   5.130   1.870 -0.0386  0.1368 -0.5098
  988TIP3    H124379   6.061   5.159   1.822  0.1104  0.5337 -0.5137
  988TIP3    H224380   6.150   5.196   1.939  0.3395  0.1246 -0.5574
  989TIP3   OH224381   6.268   2.469   2.668 -0.1767  0.0407  0.0516
  989TIP3    H124382   6.205   2.448   2.599 -0.3548  2.2944 -0.5627
  989TIP3    H224383   6.293   2.560   2.651  1.9796 -0.2364  1.2850
  990TIP3   OH224384   6.268   2.917  14.772  0.1176  0.3197 -0.0808
  990TIP3    H124385   6.231   2.979  14.835 -0.8187 -1.5558  1.3045
  990TIP3    H224386   6.299   2.844  14.825 -0.5037 -1.2538 -1.7724
  991TIP3   OH224387   6.511   1.203   5.655  0.0711  0.3379  0.6156
  991TIP3    H124388   6.528   1.112   5.630  0.8310  0.7399 -0.3854
  991TIP3    H224389   6.588   1.230   5.704  1.0877  1.2518 -1.3951
  992TIP3   OH224390   6.518   5.917   4.568 -0.6603 -0.3635  0.1586
  992TIP3    H124391   6.552   5.966   4.643 -0.0581  0.0552 -0.3751
  992TIP3    H224392   6.430   5.892   4.594 -0.9430  0.8938  0.4975
  993TIP3   OH224393   6.087   5.992  13.798  0.3742 -0.3452  0.2194
  993TIP3    H124394   6.099   5.930  13.727  0.2206  0.8024 -0.8544
  993TIP3    H224395   5.992   5.996  13.811  0.3813 -0.3270  0.2641
  994TIP3   OH224396   4.688   0.132  17.159  0.3879  0.0279 -0.3577
  994TIP3    H124397   4.619   0.194  17.184 -2.0173 -3.4343  2.4874
  994TIP3    H224398   4.758   0.148  17.221  1.0279  1.5999 -1.4067
  995TIP3   OH224399   4.654   5.488   5.193 -0.0978 -0.3503  0.6595
  995TIP3    H124400   4.727   5.498   5.254 -0.3018 -0.1331  0.8702
  995TIP3    H224401   4.603   5.414   5.227 -0.1397 -0.3125  0.6787
  996TIP3   OH224402   1.992   4.725  13.798  0.4119 -0.5841  0.4072
  996TIP3    H124403   1.996   4.630  13.805 -2.4880 -0.8094  0.1240
  996TIP3    H224404   1.942   4.742  13.719  0.6742  1.1815  0.5746
  997TIP3   OH224405   4.019   2.766   5.712 -0.4540 -0.3100 -0.1713
  997TIP3    H124406   3.959   2.714   5.660 -0.8825 -1.5411  1.4857
  997TIP3    H224407   4.061   2.703   5.771 -1.4069  1.2228  2.3109
  998TIP3   OH224408   6.189   4.442   0.876  0.5174  0.2259  0.0039
  998TIP3    H124409   6.178   4.396   0.959 -1.0143  0.8085  0.1630
  998TIP3    H224410   6.121   4.510   0.877  0.8412  0.6121 -1.4725
  999TIP3   OH224411   1.750   0.969   0.846  0.1149 -0.3017  0.1711
  999TIP3    H124412   1.701   0.888   0.860 -0.6872  0.3325  1.1320
  999TIP3    H224413   1.760   0.974   0.751 -0.1012 -1.3581  0.0750
 1000TIP3   OH224414   3.927   1.242  16.696 -0.0776  0.3457  0.2448
 1000TIP3    H124415   3.960   1.332  16.707 -0.4118  0.4034  0.8554
 1000TIP3    H224416   3.835   1.248  16.719 -0.6981  0.3033 -2.0675
 1001TIP3   OH224417   2.153   5.985  13.799 -0.0576  0.4953  0.2270
 1001TIP3    H124418   2.139   5.950  13.711 -0.1298 -0.6787  0.6925
 1001TIP3    H224419   2.081   5.950  13.851  0.2463  0.7912  0.8656
 1002TIP3   OH224420   5.138   4.366   0.037 -0.7159  0.5812  0.0696
 1002TIP3    H124421   5.229   4.370   0.065 -0.4000 -2.7169 -0.0935
 1002TIP3    H224422   5.142   4.350  -0.057 -1.6419  4.0528 -0.6906
 1003TIP3   OH224423   6.494   2.205  14.497  0.0847  0.2861  0.3175
 1003TIP3    H124424   6.504   2.169  14.409 -1.3383  0.3169  0.1277
 1003TIP3    H224425   6.509   2.130  14.555  0.1673  0.0788  0.0325
 1004TIP3   OH224426   2.512   4.229  13.268 -0.5834 -0.0936 -0.2102
 1004TIP3    H124427   2.606   4.213  13.268 -0.2975  1.3444 -1.4345
 1004TIP3    H224428   2.476   4.166  13.205 -0.2367  0.2936 -0.8016
 1005TIP3   OH224429   1.468   3.614   5.297  0.5883 -0.3292 -0.3051
 1005TIP3    H124430   1.473   3.694   5.349 -0.1424 -0.8472  0.6018
 1005TIP3    H224431   1.440   3.643   5.210  4.4509  0.8806 -1.3312
 1006TIP3   OH224432   5.230   1.794   0.671 -0.1927  0.1220  0.0505
 1006TIP3    H124433   5.246   1.730   0.741 -4.3760  0.3362  1.4996
 1006TIP3    H224434   5.167   1.751   0.614 -1.2838  2.0179 -0.2732
 1007TIP3   OH224435   4.751   3.899  12.094  0.0975  0.2972 -0.1104
 1007TIP3    H124436   4.693   3.960  12.049  0.2300 -0.8905 -2.0034
 1007TIP3    H224437   4.821   3.881  12.031  0.6702 -0.9201  0.8246
 1008TIP3   OH224438   1.779   0.511  15.984 -0.2620 -0.5968  0.3099
 1008TIP3    H124439   1.812   0.503  16.073 -2.1814  0.6568  1.2034
 1008TIP3    H224440   1.857   0.529  15.931  0.7559  0.0781  1.9530
 1009TIP3   OH224441   1.916   6.773  15.554 -0.2518  0.2955 -0.1552
 1009TIP3    H124442   1.988   6.721  15.517  0.7610  1.1241  0.5989
 1009TIP3    H224443   1.956   6.857  15.575 -1.6789  1.1233 -0.6151
 1010TIP3   OH224444   3.719   0.103  16.544 -0.0285  0.0275  0.5181
 1010TIP3    H124445   3.636   0.114  16.496  0.1560  0.4868  0.2956
 1010TIP3    H224446   3.763   0.032  16.498  1.1793  1.9401 -1.5246
 1011TIP3   OH224447   6.668   6.086   2.288 -0.4526  0.4867  0.3027
 1011TIP3    H124448   6.651   6.002   2.245  1.5445 -0.1789  0.6800
 1011TIP3    H224449   6.595   6.098   2.348 -0.9294 -0.8465  0.0342
 1012TIP3   OH224450   1.726   5.297  12.066  0.5734 -0.0456 -0.1183
 1012TIP3    H124451   1.679   5.373  12.033  0.9827  0.9562  1.4763
 1012TIP3    H224452   1.665   5.224  12.057 -0.6089  0.8794  0.2381
 1013TIP3   OH224453   2.899   5.603   1.871 -0.6229  0.2114  0.2545
 1013TIP3    H124454   2.930   5.652   1.794 -1.3141 -0.1634 -0.2750
 1013TIP3    H224455   2.894   5.668   1.941  0.9023  0.3783  0.2417
 1014TIP3   OH224456   3.221   3.184   1.236 -0.6663 -0.5006  0.3878
 1014TIP3    H124457   3.199   3.091   1.228  0.0931 -0.6659  0.0899
 1014TIP3    H224458   3.155   3.220   1.294 -1.4631 -1.0561 -0.1533
 1015TIP3   OH224459   2.846   1.603   5.289  0.3665  0.1203  0.0906
 1015TIP3    H124460   2.914   1.634   5.229 -0.4275  2.9683  0.5118
 1015TIP3    H224461   2.826   1.515   5.258  3.9418 -0.7357 -0.2575
 1016TIP3   OH224462   6.696   0.134   1.451 -0.3848  0.5733  0.5378
 1016TIP3    H124463   6.737   0.209   1.408 -0.7331  1.9209  2.4094
 1016TIP3    H224464   6.720   0.059   1.397  1.5367  1.7813 -0.3959
 1017TIP3   OH224465   5.767   5.710  12.920 -0.5355  0.1156 -0.5301
 1017TIP3    H124466   5.740   5.799  12.898 -0.2645  0.7372  1.4401
 1017TIP3    H224467   5.852   5.721  12.962 -1.8526 -0.6507  2.6084
 1018TIP3   OH224468   3.756   2.182  15.288 -0.6555 -0.2665  0.2089
 1018TIP3    H124469   3.714   2.179  15.202  0.3033 -1.4881 -0.2496
 1018TIP3    H224470   3.707   2.248  15.337 -0.4782  1.2828 -1.6437
 1019TIP3   OH224471   3.092   5.249   1.720  0.7730  0.1242 -0.1632
 1019TIP3    H124472   3.004   5.282   1.702  0.4292 -0.3968  0.5136
 1019TIP3    H224473   3.082   5.196   1.799  2.3673  3.0440  2.1857
 1020TIP3   OH224474   0.540   6.646  12.118 -0.1172 -0.7906  0.2744
 1020TIP3    H124475   0.477   6.667  12.187 -0.3123  0.3274 -0.2125
 1020TIP3    H224476   0.595   6.724  12.111  1.5424 -1.8418  0.8739
 1021TIP3   OH224477   1.614   6.498  16.698 -0.2183 -0.4225  0.1990
 1021TIP3    H124478   1.638   6.584  16.663 -2.6985  0.3425  0.1900
 1021TIP3    H224479   1.543   6.469  16.641  0.3129 -2.3334  0.4491
 1022TIP3   OH224480   3.057   0.356   0.015  0.2269  0.3279 -0.2379
 1022TIP3    H124481   3.013   0.424  -0.036  0.9665  1.2611  0.3336
 1022TIP3    H224482   3.026   0.274  -0.023 -0.6178  0.9796 -1.0027
 1023TIP3   OH224483   4.242   1.952  10.974 -0.7135  0.7808  0.5718
 1023TIP3    H124484   4.242   1.897  10.896 -0.6385  0.4727  0.7898
 1023TIP3    H224485   4.271   2.038  10.943  2.9779 -0.2145  0.8987
 1024TIP3   OH224486   1.832   5.004   3.928  0.8403 -0.5157 -0.3092
 1024TIP3    H124487   1.793   4.949   3.996 -2.7968  1.4957 -0.4752
 1024TIP3    H224488   1.824   5.093   3.961  1.8229  0.3049 -2.1019
 1025TIP3   OH224489   5.170   3.217   3.169  0.3708  0.0473 -0.4010
 1025TIP3    H124490   5.165   3.126   3.200  2.1028 -0.0283 -0.2371
 1025TIP3    H224491   5.263   3.229   3.147 -0.0966  1.3530 -1.7607
 1026TIP3   OH224492   4.094   0.358  16.537 -0.4971  0.1524 -0.5156
 1026TIP3    H124493   4.001   0.375  16.523 -0.7909 -0.2158  0.8953
 1026TIP3    H224494   4.097   0.274  16.582  0.4558  0.5986  0.2912
 1027TIP3   OH224495   2.029   4.405  11.248 -0.5685  0.7561 -0.0570
 1027TIP3    H124496   2.100   4.360  11.294 -0.0491  1.9658  0.3453
 1027TIP3    H224497   1.990   4.337  11.192  0.4970 -0.0734  0.1819
 1028TIP3   OH224498   6.018   5.079  16.285 -0.4479  0.2146 -0.4026
 1028TIP3    H124499   5.977   5.065  16.370  0.4911 -2.1995 -0.2842
 1028TIP3    H224500   6.001   5.172  16.266  0.4230  1.2137  2.9697
 1029TIP3   OH224501   2.443   6.159  15.660 -0.7259  0.0286 -0.1889
 1029TIP3    H124502   2.396   6.217  15.719  0.1021  1.3238 -0.7696
 1029TIP3    H224503   2.403   6.173  15.574  0.7485  1.2775 -0.7306
 1030TIP3   OH224504   1.359   0.930   3.357 -0.4279  0.4913 -0.9697
 1030TIP3    H124505   1.337   0.908   3.266 -1.2531 -0.9944 -0.4605
 1030TIP3    H224506   1.450   0.903   3.367 -0.6656 -0.3704 -1.0664
 1031TIP3   OH224507   4.839   2.993  14.887  0.1333  0.1480  0.1191
 1031TIP3    H124508   4.755   2.965  14.852 -0.0184 -0.0370  0.6245
 1031TIP3    H224509   4.818   3.041  14.967  0.6065 -2.2495  1.8136
 1032TIP3   OH224510   6.536   0.667  15.832 -0.1664  0.4789  0.1363
 1032TIP3    H124511   6.602   0.669  15.762 -1.7053 -2.2419 -1.5577
 1032TIP3    H224512   6.582   0.629  15.907  0.7052  0.5637 -0.3384
 1033TIP3   OH224513   2.575   6.545   1.149  0.3471  0.5906  0.3232
 1033TIP3    H124514   2.501   6.587   1.104  0.6293  1.5872  0.7544
 1033TIP3    H224515   2.590   6.464   1.100 -0.9228  0.4420  0.1340
 1034TIP3   OH224516   4.324   4.199  14.884  0.2632  0.1290 -0.3906
 1034TIP3    H124517   4.332   4.288  14.919  1.6412  0.5956 -1.7964
 1034TIP3    H224518   4.346   4.207  14.791  4.7910 -2.2562  0.1897
 1035TIP3   OH224519   0.007   4.270  12.024  0.3986 -0.2345  0.2982
 1035TIP3    H124520   0.098   4.296  12.023  0.4750 -0.4861  0.5012
 1035TIP3    H224521  -0.000   4.205  11.954 -0.3909  2.2530 -2.1037
 1036TIP3   OH224522   5.524   2.663  15.872  0.0219 -0.3748  0.0642
 1036TIP3    H124523   5.456   2.706  15.924  1.5565  1.4752  0.6592
 1036TIP3    H224524   5.521   2.571  15.899 -0.4856  0.1767  2.0134
 1037TIP3   OH224525   5.064   4.244   6.065  0.4172  0.1508  0.0808
 1037TIP3    H124526   5.156   4.220   6.054  0.3627 -0.6888  1.2456
 1037TIP3    H224527   5.065   4.320   6.122  0.4971  1.9598 -2.2018
 1038TIP3   OH224528   0.628   3.296  13.200  0.3349  0.0168  0.6144
 1038TIP3    H124529   0.605   3.243  13.124 -0.5807  0.1255  0.7971
 1038TIP3    H224530   0.713   3.263  13.228  0.9083  0.2865 -0.7268
 1039TIP3   OH224531   5.856   1.941  10.587 -0.2679 -0.1915  0.1635
 1039TIP3    H124532   5.847   2.020  10.534  1.6118  0.6881  1.0679
 1039TIP3    H224533   5.766   1.910  10.599 -0.9544  1.1634 -1.1503
 1040TIP3   OH224534   4.741   3.076  14.552 -0.5848 -0.6127 -0.1041
 1040TIP3    H124535   4.695   3.006  14.598 -1.1798 -0.3770 -0.3315
 1040TIP3    H224536   4.828   3.040  14.535 -0.4271 -0.7756  1.0118
 1041TIP3   OH224537   0.221   0.747   2.852  0.0593 -0.2371 -0.4432
 1041TIP3    H124538   0.283   0.810   2.817 -0.0695  0.7757  1.0820
 1041TIP3    H224539   0.210   0.683   2.781  0.2476  1.3849 -2.0052
 1042TIP3   OH224540   1.509   0.402  16.514  0.1016 -0.0053  0.1062
 1042TIP3    H124541   1.420   0.415  16.482  0.8510  1.1630 -1.6312
 1042TIP3    H224542   1.508   0.315  16.553 -1.6509 -0.2403 -0.3931
 1043TIP3   OH224543   5.838   2.657   3.069 -0.2298  0.0166  0.3765
 1043TIP3    H124544   5.908   2.673   3.132 -0.5462 -1.4529  1.1459
 1043TIP3    H224545   5.882   2.612   2.996 -0.3507 -0.9735  0.8924
 1044TIP3   OH224546   6.538   4.918  11.034 -0.2317 -0.5707  0.3076
 1044TIP3    H124547   6.587   4.916  11.116 -0.5239 -0.5348  0.4878
 1044TIP3    H224548   6.455   4.875  11.055 -1.5110  1.9799  0.8384
 1045TIP3   OH224549   2.601   4.631   4.193  0.2864 -0.1243 -0.1933
 1045TIP3    H124550   2.690   4.594   4.187  0.3532  0.0255 -0.1219
 1045TIP3    H224551   2.549   4.560   4.230  0.5305  0.0482  0.4833
 1046TIP3   OH224552   1.921   2.615  11.003  0.3261  0.3146 -0.3577
 1046TIP3    H124553   1.902   2.529  10.966  1.5361 -0.7018  1.2711
 1046TIP3    H224554   2.017   2.618  11.008  0.2467  0.5371  2.2423
 1047TIP3   OH224555   6.164   4.471   2.602  0.1557  0.4673  0.3192
 1047TIP3    H124556   6.224   4.430   2.665 -0.6655  0.2383  0.9614
 1047TIP3    H224557   6.108   4.399   2.572  0.5915  0.5545 -0.7561
 1048TIP3   OH224558   4.843   0.173   1.741  0.1450 -0.3698  0.3489
 1048TIP3    H124559   4.834   0.169   1.646 -0.2995 -0.6478  0.4024
 1048TIP3    H224560   4.766   0.221   1.771 -1.2158 -2.6611  0.7928
 1049TIP3   OH224561   3.494   2.573   2.188  0.1080 -0.3589  0.0779
 1049TIP3    H124562   3.419   2.631   2.173 -1.3728 -2.0455  0.5865
 1049TIP3    H224563   3.494   2.557   2.282  0.8012 -0.7843  0.0159
 1050TIP3   OH224564   2.273   2.606   1.828 -0.0655 -0.9313  0.4039
 1050TIP3    H124565   2.224   2.524   1.820 -0.9846 -0.4367  0.8447
 1050TIP3    H224566   2.206   2.673   1.844  0.8773 -0.5715  3.5749
 1051TIP3   OH224567   1.420   2.570   2.633 -0.1532  0.0005 -0.4949
 1051TIP3    H124568   1.465   2.504   2.582 -2.3124 -0.1052 -2.4555
 1051TIP3    H224569   1.336   2.530   2.656 -0.9337  1.5216 -0.5258
 1052TIP3   OH224570   1.308   0.662  14.368 -0.1291  0.2538 -0.3338
 1052TIP3    H124571   1.336   0.752  14.381  1.9779 -0.2725 -0.8604
 1052TIP3    H224572   1.308   0.624  14.455  0.4193  0.3845 -0.2735
 1053TIP3   OH224573   1.388   5.016  16.325 -0.2219 -0.3303 -0.0591
 1053TIP3    H124574   1.481   5.035  16.333 -0.2582 -0.5611  1.0503
 1053TIP3    H224575   1.355   5.082  16.264  0.3741  0.7830  0.7731
 1054TIP3   OH224576   6.577   3.015  10.900 -0.0444  0.1443 -0.0496
 1054TIP3    H124577   6.665   3.041  10.869  0.4486  1.8800  2.4795
 1054TIP3    H224578   6.587   2.924  10.928  0.8554  0.1962 -0.1661
 1055TIP3   OH224579   1.636   4.378   5.429 -0.1795 -0.2720  0.1796
 1055TIP3    H124580   1.634   4.471   5.406 -0.1190  0.3585  2.4779
 1055TIP3    H224581   1.728   4.359   5.447 -0.5157  0.0931  2.6727
 1056TIP3   OH224582   4.409   4.022   0.628  0.1659  0.3987 -0.1076
 1056TIP3    H124583   4.336   4.077   0.655 -0.5784 -0.0144 -1.2446
 1056TIP3    H224584   4.459   4.077   0.567  1.3087  0.9821  1.2855
 1057TIP3   OH224585   0.245   2.593   5.332 -0.2292  0.2152 -0.3243
 1057TIP3    H124586   0.269   2.679   5.366 -1.8756  0.8362 -0.6603
 1057TIP3    H224587   0.304   2.579   5.258  0.8665  0.4982  0.4772
 1058TIP3   OH224588   3.116   5.784  11.498 -0.0329  0.3053  0.0660
 1058TIP3    H124589   3.100   5.780  11.404  1.0244  0.0028 -0.1185
 1058TIP3    H224590   3.035   5.818  11.536 -0.9951 -0.9432 -0.8048
 1059TIP3   OH224591   5.398   2.789   4.967 -0.1842  0.2965 -1.5404
 1059TIP3    H124592   5.346   2.868   4.983  1.9058  1.1800  2.1505
 1059TIP3    H224593   5.471   2.819   4.912 -0.2939  0.5261 -1.5630
 1060TIP3   OH224594   1.432   3.328  16.577 -0.0814  0.2787  0.1889
 1060TIP3    H124595   1.513   3.345  16.530  0.7846 -2.8548  0.3761
 1060TIP3    H224596   1.452   3.254  16.635 -3.0187 -0.5171  0.3524
 1061TIP3   OH224597   0.241   0.825  13.897  0.4244 -0.3409 -0.3654
 1061TIP3    H124598   0.289   0.906  13.877 -1.6716  1.0967  0.0726
 1061TIP3    H224599   0.187   0.809  13.820 -1.0024  0.1211  0.4945
 1062TIP3   OH224600   6.185   2.006  12.181 -0.1854 -0.3641  0.4731
 1062TIP3    H124601   6.105   2.036  12.137  0.4778  2.5007  1.0298
 1062TIP3    H224602   6.241   1.974  12.110 -0.5769  0.6743 -0.3208
 1063TIP3   OH224603   0.965   3.632  16.419  0.3055  0.0617  0.1306
 1063TIP3    H124604   1.057   3.627  16.446  0.7631  1.3904 -1.0803
 1063TIP3    H224605   0.945   3.725  16.417 -0.3849 -0.0818 -1.7595
 1064TIP3   OH224606   3.225   6.115  11.476 -0.4666 -0.9353  0.3441
 1064TIP3    H124607   3.213   6.020  11.484 -0.3803 -1.1010 -1.2570
 1064TIP3    H224608   3.270   6.126  11.392  2.5217  0.2841  1.9523
 1065TIP3   OH224609   0.278   2.346  10.903 -0.3603  0.0388  0.2025
 1065TIP3    H124610   0.317   2.410  10.843 -1.1601  0.4785  0.1313
 1065TIP3    H224611   0.187   2.338  10.873  0.2525 -2.8765 -1.2615
 1066TIP3   OH224612   0.244   1.745  15.269  0.3763 -0.0008  0.2865
 1066TIP3    H124613   0.152   1.718  15.266  0.0262  1.2038 -1.8002
 1066TIP3    H224614   0.251   1.802  15.345 -0.7368  0.3461  0.1321
 1067TIP3   OH224615   2.668   6.187  16.039  0.2188  0.1687  0.3366
 1067TIP3    H124616   2.707   6.106  16.072 -0.4066 -0.3831 -0.2415
 1067TIP3    H224617   2.701   6.196  15.950  0.4202  0.6516  0.4544
 1068TIP3   OH224618   1.867   0.458   6.136  0.0660  0.4215 -0.2458
 1068TIP3    H124619   1.942   0.440   6.079  0.3811  1.7143 -0.2708
 1068TIP3    H224620   1.854   0.553   6.129 -2.0629  0.1394 -0.8424
 1069TIP3   OH224621   5.929   6.219  16.383  0.6478  0.1760 -0.2749
 1069TIP3    H124622   5.930   6.155  16.455 -1.2359  0.6009  0.1892
 1069TIP3    H224623   5.964   6.299  16.422  0.2353  0.2257  0.0067
 1070TIP3   OH224624   1.533   5.807  14.137  0.2295  0.2079  0.3840
 1070TIP3    H124625   1.482   5.862  14.196 -0.8464  0.0136 -0.3438
 1070TIP3    H224626   1.518   5.717  14.169  0.4290  0.1797  0.3993
 1071TIP3   OH224627   0.850   6.736   3.532  0.4001  0.1527 -0.5485
 1071TIP3    H124628   0.810   6.735   3.619 -0.2777 -1.8112 -0.8241
 1071TIP3    H224629   0.801   6.802   3.483 -0.5443 -0.1463 -0.0212
 1072TIP3   OH224630   6.457   6.481   2.926  0.2504 -0.0854 -0.4704
 1072TIP3    H124631   6.550   6.484   2.947  0.2338 -0.9312 -0.2619
 1072TIP3    H224632   6.426   6.400   2.965 -0.6763  0.4161 -0.1424
 1073TIP3   OH224633   3.461   6.139  13.439  0.8527  0.5627  0.3554
 1073TIP3    H124634   3.402   6.079  13.486  0.8610  0.7984  0.6711
 1073TIP3    H224635   3.531   6.083  13.406 -0.2866  0.0322 -1.2921
 1074TIP3   OH224636   5.516   3.967  11.332  0.1419  0.6761 -0.1895
 1074TIP3    H124637   5.468   4.031  11.278 -1.5774  0.5891  1.1417
 1074TIP3    H224638   5.511   3.885  11.282  0.9327  1.1738 -1.1304
 1075TIP3   OH224639   0.024   4.409  15.331 -0.0721  0.0022 -0.6036
 1075TIP3    H124640   0.037   4.322  15.294 -2.5935 -1.8511  2.3610
 1075TIP3    H224641  -0.055   4.442  15.288  1.2040  1.1665 -2.1453
 1076TIP3   OH224642   5.294   1.996   3.297 -0.1845 -0.1188  0.5599
 1076TIP3    H124643   5.282   2.089   3.320  0.7464 -0.1567  1.2641
 1076TIP3    H224644   5.205   1.960   3.296 -1.0074  1.5518 -3.3931
 1077TIP3   OH224645   0.379   5.622   2.240 -0.7447 -0.0373  0.0039
 1077TIP3    H124646   0.308   5.566   2.271 -2.0266  1.3106 -0.3821
 1077TIP3    H224647   0.387   5.600   2.147 -2.8241  1.9353 -0.7259
 1078TIP3   OH224648   5.483   6.425  16.877 -0.0610  0.2431  0.0071
 1078TIP3    H124649   5.529   6.498  16.919 -1.0231  0.2469  1.1041
 1078TIP3    H224650   5.472   6.453  16.786  2.2731  0.1338 -0.3714
 1079TIP3   OH224651   4.990   2.390   6.638 -0.2549  0.3261 -0.0616
 1079TIP3    H124652   4.898   2.384   6.612 -0.0664  1.2400 -0.9887
 1079TIP3    H224653   5.001   2.480   6.669  0.6519  0.6698 -1.3095
 1080TIP3   OH224654   3.923   5.700   1.137 -0.0375 -0.3739  0.2910
 1080TIP3    H124655   3.984   5.635   1.173 -0.1006  0.8824  2.8468
 1080TIP3    H224656   3.978   5.772   1.108 -0.0890 -0.8469 -1.0675
 1081TIP3   OH224657   6.685   3.156   0.323  0.6598 -0.1885 -0.0801
 1081TIP3    H124658   6.682   3.087   0.389 -2.3577 -1.1304 -1.0652
 1081TIP3    H224659   6.632   3.227   0.360  1.4488  0.5025 -0.2488
 1082TIP3   OH224660   5.883   2.171   1.705 -0.3182 -0.3167  0.0184
 1082TIP3    H124661   5.852   2.105   1.643  0.7129 -0.7475 -0.0596
 1082TIP3    H224662   5.921   2.120   1.777 -0.5041  0.1922  0.4871
 1083TIP3   OH224663   0.180   3.345  16.973 -0.3533  0.2018  0.4666
 1083TIP3    H124664   0.204   3.288  17.046 -1.2371 -0.2736  0.4154
 1083TIP3    H224665   0.109   3.399  17.007 -0.6430  0.1100  0.0349
 1084TIP3   OH224666   2.691   3.453   1.870 -0.1964  0.0193 -0.3532
 1084TIP3    H124667   2.726   3.398   1.940  0.0793  0.1769 -0.3676
 1084TIP3    H224668   2.734   3.423   1.790 -1.4435 -1.0206 -0.6790
 1085TIP3   OH224669   5.440   6.138  16.075 -0.5547  0.3204  0.3414
 1085TIP3    H124670   5.460   6.218  16.026 -0.7767  0.1590 -0.0182
 1085TIP3    H224671   5.349   6.119  16.053 -1.3179  1.3333  2.3594
 1086TIP3   OH224672   4.247   2.887   0.406  0.2615 -0.2355  0.1165
 1086TIP3    H124673   4.256   2.981   0.388  0.9461  0.0561  1.8450
 1086TIP3    H224674   4.333   2.860   0.437  0.3918 -1.7198 -1.4086
 1087TIP3   OH224675   2.706   2.481  11.006  0.3041 -0.4889  0.3009
 1087TIP3    H124676   2.757   2.402  11.025  0.6807 -0.1703  0.6275
 1087TIP3    H224677   2.615   2.455  11.024  0.1300 -1.5271 -1.7892
 1088TIP3   OH224678   6.714   3.523  16.350 -0.5624 -0.1782 -0.3183
 1088TIP3    H124679   6.684   3.603  16.308  0.7083  0.7550  0.4877
 1088TIP3    H224680   6.649   3.505  16.418  0.1578  1.3198  0.8203
 1089TIP3   OH224681   6.325   6.131  16.763  0.1935  0.3427 -0.1305
 1089TIP3    H124682   6.418   6.152  16.772  1.1439 -1.1368 -4.3573
 1089TIP3    H224683   6.318   6.041  16.792  0.3134  0.1217 -0.7783
 1090TIP3   OH224684   2.228   2.592  16.838  0.2495  0.1078  0.0668
 1090TIP3    H124685   2.138   2.591  16.872 -0.5076  1.9711 -1.6033
 1090TIP3    H224686   2.230   2.521  16.774  0.7426 -1.4469  1.7453
 1091TIP3   OH224687   2.566   6.376   1.868 -0.0582  0.0279 -0.1125
 1091TIP3    H124688   2.470   6.371   1.863 -0.2069  0.3667  1.7262
 1091TIP3    H224689   2.583   6.456   1.918  1.0730 -1.4077  1.9469
 1092TIP3   OH224690   5.504   6.556  11.567 -0.0013 -0.3972 -0.0327
 1092TIP3    H124691   5.502   6.610  11.646  1.2577  0.1098 -0.3339
 1092TIP3    H224692   5.436   6.593  11.511  2.3478  2.4870 -1.2373
 1093TIP3   OH224693   5.765   5.450  10.810 -0.2645 -0.6444 -0.4788
 1093TIP3    H124694   5.713   5.370  10.800  0.8199 -1.2343 -1.7588
 1093TIP3    H224695   5.739   5.504  10.735 -0.1576 -0.2749 -0.2528
 1094TIP3   OH224696   1.631   4.747   3.335  0.3864 -0.2295  0.3214
 1094TIP3    H124697   1.723   4.754   3.309  0.4944 -1.6449  0.2688
 1094TIP3    H224698   1.596   4.835   3.322  1.2839 -0.0815 -1.3312
 1095TIP3   OH224699   4.558   3.720  12.183  0.0008  0.8135 -0.0140
 1095TIP3    H124700   4.572   3.735  12.276 -0.0865  2.9056 -0.2872
 1095TIP3    H224701   4.605   3.791  12.140 -2.0413  1.4026 -1.4234
 1096TIP3   OH224702   5.487   1.077   2.370  0.2341  0.4021 -0.0849
 1096TIP3    H124703   5.546   1.135   2.321  0.3098  1.3406  1.0871
 1096TIP3    H224704   5.403   1.084   2.324  0.6900  0.0456 -1.0006
 1097TIP3   OH224705   3.941   5.205  15.841 -0.1079 -0.3095  0.4626
 1097TIP3    H124706   3.969   5.140  15.905  0.8884 -2.1257 -1.6899
 1097TIP3    H224707   3.849   5.220  15.860  0.2129 -0.6254  2.4217
 1098TIP3   OH224708   4.414   3.430  14.340 -0.0272 -0.0271 -0.0049
 1098TIP3    H124709   4.320   3.443  14.325 -0.1119  0.8521  1.1510
 1098TIP3    H224710   4.440   3.502  14.397  1.9115  1.1858 -2.2303
 1099TIP3   OH224711   1.520   4.005  10.475 -0.4374 -0.6109  0.1915
 1099TIP3    H124712   1.483   4.092  10.483  0.3747 -0.3755  1.9941
 1099TIP3    H224713   1.615   4.019  10.473 -0.2987 -1.4344  0.4651
 1100TIP3   OH224714   5.683   3.239  13.017 -0.5455  0.2722 -1.0370
 1100TIP3    H124715   5.704   3.147  13.034  0.1268  0.7638  1.0063
 1100TIP3    H224716   5.587   3.241  13.012 -0.8111 -0.1237  2.0648
 1101TIP3   OH224717   0.853   0.617  16.388  0.8419 -0.5420  0.5288
 1101TIP3    H124718   0.894   0.565  16.456  3.4224 -1.3871 -1.4856
 1101TIP3    H224719   0.927   0.650  16.336 -0.9046  1.6636 -0.7320
 1102TIP3   OH224720   6.004   2.193  15.359  0.1394  0.5098  0.1469
 1102TIP3    H124721   6.012   2.269  15.417 -0.7060  1.9927 -1.5904
 1102TIP3    H224722   5.914   2.163  15.372 -0.0479  0.8382 -0.3801
 1103TIP3   OH224723   3.477   0.975   2.061  0.2167 -0.4302  0.3113
 1103TIP3    H124724   3.501   1.032   1.988 -1.9473  1.3135  0.8657
 1103TIP3    H224725   3.554   0.920   2.073  2.3024  2.0318 -0.5942
 1104TIP3   OH224726   6.683   4.337  14.585  0.2195  0.0996  0.1271
 1104TIP3    H124727   6.610   4.349  14.646 -0.6855 -0.0843 -0.9136
 1104TIP3    H224728   6.752   4.297  14.639 -0.4176  0.3030  1.1264
 1105TIP3   OH224729   1.745   5.150  13.587 -0.0325  0.6511 -0.1298
 1105TIP3    H124730   1.695   5.073  13.560  1.4052  0.5912 -2.9381
 1105TIP3    H224731   1.709   5.172  13.674 -2.2461 -1.5965 -0.3453
 1106TIP3   OH224732   5.907   0.957   2.333 -0.5628  0.3898 -0.3498
 1106TIP3    H124733   5.958   0.947   2.252  0.3642  0.0277  0.2581
 1106TIP3    H224734   5.920   1.049   2.357 -1.5573  0.7320 -1.0619
 1107TIP3   OH224735   1.924   3.724   0.688 -0.2531 -0.4153 -0.0410
 1107TIP3    H124736   1.877   3.641   0.699 -0.2769 -0.2676  1.0607
 1107TIP3    H224737   1.881   3.765   0.613 -1.1449 -0.7883  0.2455
 1108TIP3   OH224738   4.713   4.259  12.536  0.2361  0.5475  0.0404
 1108TIP3    H124739   4.705   4.275  12.630 -0.1389 -2.4136  0.6235
 1108TIP3    H224740   4.795   4.210  12.527  0.5964  1.3287 -1.2995
 1109TIP3   OH224741   4.018   5.961  12.045  0.1652 -0.5210 -0.4535
 1109TIP3    H124742   3.950   5.988  11.983  0.5079 -0.3458 -0.7571
 1109TIP3    H224743   3.979   5.978  12.131 -0.2616 -0.6366 -0.6205
 1110TIP3   OH224744   6.507   3.234  11.635 -0.0732  0.0902  0.1805
 1110TIP3    H124745   6.459   3.166  11.680  0.5134 -0.6592 -0.2896
 1110TIP3    H224746   6.467   3.238  11.548  0.7472 -0.5962 -0.2399
 1111TIP3   OH224747   0.090   6.109  14.480 -0.0488 -0.0330  0.2615
 1111TIP3    H124748   0.049   6.160  14.550 -2.3765 -1.1586 -0.1884
 1111TIP3    H224749   0.060   6.150  14.399 -1.0161 -1.3674 -0.0918
 1112TIP3   OH224750   4.631   4.101  11.978 -0.5606  0.6151 -0.5166
 1112TIP3    H124751   4.629   4.169  11.912 -1.5757  1.0728 -0.0340
 1112TIP3    H224752   4.545   4.105  12.020  0.4769  1.2373  1.7090
 1113TIP3   OH224753   5.701   1.207   5.035 -0.6824 -0.5927 -0.5300
 1113TIP3    H124754   5.783   1.256   5.027  0.3089 -1.6592  2.0308
 1113TIP3    H224755   5.699   1.150   4.959  1.4305 -1.1494 -0.2270
 1114TIP3   OH224756   2.956   0.442   1.014 -0.2296 -0.5706  0.1090
 1114TIP3    H124757   3.047   0.454   0.985 -0.6322  0.2011 -0.9220
 1114TIP3    H224758   2.939   0.519   1.068 -0.8605  0.3380 -1.3268
 1115TIP3   OH224759   3.011   2.516   4.605  0.2062 -0.1155 -0.4990
 1115TIP3    H124760   3.000   2.605   4.573 -1.0063 -0.2210 -0.4154
 1115TIP3    H224761   2.940   2.504   4.668  2.1590 -0.1165  1.8165
 1116TIP3   OH224762   5.013   4.088  11.395 -0.0476  0.5431 -0.4433
 1116TIP3    H124763   5.082   4.042  11.441 -0.1709  0.5582 -0.2423
 1116TIP3    H224764   5.055   4.124  11.317 -0.1302 -0.6547 -1.0705
 1117TIP3   OH224765   6.162   1.796  14.586 -0.9766  0.1641  0.0861
 1117TIP3    H124766   6.251   1.805  14.553 -0.3515 -0.2084  1.6273
 1117TIP3    H224767   6.126   1.722  14.537  0.5586 -1.5843  1.4529
 1118TIP3   OH224768   0.923   4.236   1.218  0.1878 -0.6769 -0.6825
 1118TIP3    H124769   0.994   4.298   1.205  0.6654 -1.3019 -1.1134
 1118TIP3    H224770   0.843   4.289   1.210  0.5889 -0.0441 -0.5850
 1119TIP3   OH224771   6.059   6.588  11.214  0.4459  0.2353 -0.1833
 1119TIP3    H124772   6.008   6.568  11.135 -0.3209 -0.6441  0.5014
 1119TIP3    H224773   6.112   6.664  11.190 -0.5216  0.6163 -1.2221
 1120TIP3   OH224774   5.485   4.903   5.215  0.1082 -0.1047  0.3512
 1120TIP3    H124775   5.550   4.931   5.279  0.3322  3.3505 -1.1834
 1120TIP3    H224776   5.424   4.976   5.208 -0.8930 -1.0464 -2.1051
 1121TIP3   OH224777   2.198   0.335   2.559 -0.4136 -0.3465  0.2287
 1121TIP3    H124778   2.219   0.408   2.618 -1.6547  0.0491  0.2054
 1121TIP3    H224779   2.182   0.376   2.474 -1.4561 -0.5936  0.2947
 1122TIP3   OH224780   2.480   2.445   5.142 -0.2101  0.1890  0.3794
 1122TIP3    H124781   2.534   2.392   5.201  1.6600  1.7727  0.1976
 1122TIP3    H224782   2.508   2.418   5.054 -3.1818 -2.3643  0.0650
 1123TIP3   OH224783   0.057   2.319  15.535  0.5417  0.0849  0.4217
 1123TIP3    H124784   0.030   2.381  15.603 -0.4711 -1.4737  1.4970
 1123TIP3    H224785   0.031   2.233  15.569 -1.4188 -0.6495 -2.5396
 1124TIP3   OH224786   2.938   3.287   5.081 -0.3907  0.0160  0.2055
 1124TIP3    H124787   2.972   3.375   5.096 -1.0807  0.6209 -1.5126
 1124TIP3    H224788   3.007   3.242   5.033  0.6628 -0.9857  2.5451
 1125TIP3   OH224789   5.323   2.039  10.548  0.1989 -0.2857 -0.6771
 1125TIP3    H124790   5.370   2.109  10.593 -0.7367 -0.4251  0.5568
 1125TIP3    H224791   5.393   1.981  10.515  0.9958  1.3144 -1.9441
 1126TIP3   OH224792   2.207   5.726  16.583 -0.2252 -0.0002 -0.3040
 1126TIP3    H124793   2.149   5.791  16.544 -0.7342 -0.7391 -0.7955
 1126TIP3    H224794   2.253   5.774  16.652 -0.9956  0.7415 -0.2874
 1127TIP3   OH224795   5.709   2.378   5.119  0.5318  0.3793 -0.0451
 1127TIP3    H124796   5.727   2.453   5.063  3.8726  0.0907  0.4247
 1127TIP3    H224797   5.757   2.306   5.079 -0.0719 -0.7559  1.1874
 1128TIP3   OH224798   1.835   0.562  12.935 -0.2997 -0.4850  0.3919
 1128TIP3    H124799   1.836   0.657  12.926 -0.0818 -0.4632  0.6334
 1128TIP3    H224800   1.889   0.530  12.863 -0.4854 -0.4312  0.2306
 1129TIP3   OH224801   5.047   6.532   5.694 -0.4800  0.3918  0.2896
 1129TIP3    H124802   4.979   6.570   5.638 -0.7388 -0.2525  0.1556
 1129TIP3    H224803   5.037   6.438   5.683  1.4613  0.2679 -0.9723
 1130TIP3   OH224804   2.190   6.266  13.806 -0.2609  0.9446  0.0604
 1130TIP3    H124805   2.167   6.290  13.896 -0.5570 -1.4737  0.7136
 1130TIP3    H224806   2.157   6.176  13.797 -0.3713  1.1838 -2.5349
 1131TIP3   OH224807   4.084   5.580   1.895  1.0238  0.0920 -0.1144
 1131TIP3    H124808   4.047   5.627   1.970  1.4689  1.0807 -0.5015
 1131TIP3    H224809   4.051   5.491   1.905  0.5058  0.3731  0.8727
 1132TIP3   OH224810   2.217   2.789  11.847 -0.4149 -0.1907  0.4608
 1132TIP3    H124811   2.244   2.713  11.898  0.0848 -1.0835 -1.0812
 1132TIP3    H224812   2.127   2.770  11.822 -0.2180 -0.3753 -0.1083
 1133TIP3   OH224813   2.306   6.380   1.822 -0.2817 -0.5405  0.1559
 1133TIP3    H124814   2.263   6.440   1.882 -2.1313 -1.8118  0.1588
 1133TIP3    H224815   2.297   6.422   1.736  0.4470  0.2299  0.4345
 1134TIP3   OH224816   6.683   4.880  12.209  0.3803  0.2807  0.3378
 1134TIP3    H124817   6.702   4.882  12.115  0.8443 -0.4176  0.4141
 1134TIP3    H224818   6.594   4.845  12.215  0.3224  0.3935  0.1594
 1135TIP3   OH224819   5.670   3.818   4.706 -0.0534 -0.1339  0.0259
 1135TIP3    H124820   5.617   3.860   4.774 -0.6240 -0.1794 -0.3781
 1135TIP3    H224821   5.680   3.728   4.736  0.1555 -0.0194  0.3081
 1136TIP3   OH224822   6.679   5.759   0.269 -0.4480 -0.3650 -0.4433
 1136TIP3    H124823   6.635   5.702   0.333  0.7290 -1.7262 -0.8070
 1136TIP3    H224824   6.718   5.828   0.323  1.5571 -2.1433  0.5346
 1137TIP3   OH224825   5.187   6.066  16.392  0.0685 -0.3090  0.4759
 1137TIP3    H124826   5.251   6.036  16.328  0.7717 -0.8691  1.4084
 1137TIP3    H224827   5.133   5.990  16.410  1.1822 -0.8009  2.0481
 1138TIP3   OH224828   6.411   2.559   4.791 -0.5495  0.4380  0.1720
 1138TIP3    H124829   6.423   2.465   4.779  0.4115  0.7347 -1.5610
 1138TIP3    H224830   6.489   2.588   4.838 -0.4895  0.4848  0.0433
 1139TIP3   OH224831   1.071   4.212   3.643  0.4679 -0.2576 -0.2550
 1139TIP3    H124832   0.995   4.199   3.587  1.2112 -0.5508 -1.2221
 1139TIP3    H224833   1.059   4.299   3.681  1.4930  1.3810 -3.3830
 1140TIP3   OH224834   3.726   6.350  16.475  0.6830  0.1575  0.5250
 1140TIP3    H124835   3.676   6.416  16.428 -0.0105  1.0790  2.4328
 1140TIP3    H224836   3.817   6.363  16.446 -0.0478 -1.7269 -3.2024
 1141TIP3   OH224837   1.193   4.510   4.243  1.0042 -0.0223 -0.4920
 1141TIP3    H124838   1.210   4.585   4.300  2.8633 -0.7413 -0.0361
 1141TIP3    H224839   1.278   4.467   4.233 -0.0055 -2.0928 -0.7045
 1142TIP3   OH224840   3.801   1.143  13.482  0.4972  0.3650 -0.5984
 1142TIP3    H124841   3.840   1.109  13.401 -0.1888  0.0635 -0.8054
 1142TIP3    H224842   3.790   1.236  13.466  1.4759  0.5217 -0.3980
 1143TIP3   OH224843   1.867   1.467   3.123  0.3050 -0.1675 -0.1438
 1143TIP3    H124844   1.854   1.468   3.028  0.8946  0.9871 -0.2326
 1143TIP3    H224845   1.952   1.426   3.135  1.5551  2.2175 -0.3443
 1144TIP3   OH224846   0.612   3.778   4.315  0.1695 -0.0991 -0.3640
 1144TIP3    H124847   0.550   3.776   4.388 -1.3551 -0.7130 -1.6314
 1144TIP3    H224848   0.610   3.690   4.278 -1.4422  0.9266 -3.0116
 1145TIP3   OH224849   0.935   6.093  15.145  0.3019 -0.3559  0.0386
 1145TIP3    H124850   0.897   6.152  15.080  0.3801  0.5642  0.8224
 1145TIP3    H224851   1.029   6.112  15.142  0.3581 -0.6224  0.1080
 1146TIP3   OH224852   3.511   5.508  16.211 -0.2378  0.0776  0.2205
 1146TIP3    H124853   3.592   5.515  16.159  0.2592  0.8536  1.0808
 1146TIP3    H224854   3.441   5.525  16.148  0.2106 -1.1756 -0.6648
 1147TIP3   OH224855   4.875   0.484   6.158 -0.0386 -0.3478 -0.4238
 1147TIP3    H124856   4.883   0.396   6.195 -0.2287  0.2660  1.1384
 1147TIP3    H224857   4.802   0.524   6.205  0.5317  0.9139 -0.5526
 1148TIP3   OH224858   1.904   3.959   1.575 -0.7026  0.3455 -0.4436
 1148TIP3    H124859   1.960   3.881   1.578 -1.3525 -0.1096  1.2784
 1148TIP3    H224860   1.815   3.925   1.591 -1.2769  1.2333 -1.5894
 1149TIP3   OH224861   1.760   0.956  11.344 -0.5116  0.3963 -0.0374
 1149TIP3    H124862   1.679   0.908  11.361 -0.7865  0.5269 -0.9153
 1149TIP3    H224863   1.809   0.899  11.284  0.9236 -0.5639  1.9460
 1150TIP3   OH224864   4.802   3.296   5.792  0.0789  0.0110  0.0607
 1150TIP3    H124865   4.833   3.297   5.882  2.1505  0.8105 -0.5826
 1150TIP3    H224866   4.883   3.299   5.739 -1.0492 -0.7313 -1.8145
 1151TIP3   OH224867   3.300   3.144  13.126 -0.2708  0.0106  0.4850
 1151TIP3    H124868   3.209   3.124  13.148  0.1027  0.3098  2.5152
 1151TIP3    H224869   3.351   3.076  13.170  0.5601  0.6326  0.5085
 1152TIP3   OH224870   5.858   1.253  12.210 -0.4127 -0.0042 -0.5417
 1152TIP3    H124871   5.894   1.245  12.299 -1.5432  1.8972  0.1464
 1152TIP3    H224872   5.765   1.271  12.224 -0.8189 -0.6737 -2.1738
 1153TIP3   OH224873   0.162   0.282   0.761  0.1769 -0.0551  1.2039
 1153TIP3    H124874   0.075   0.255   0.790 -0.6209  0.8325 -0.2288
 1153TIP3    H224875   0.222   0.241   0.823 -1.1936 -1.6619  1.5285
 1154TIP3   OH224876   0.743   2.815  16.629  0.7450 -0.0486 -0.3864
 1154TIP3    H124877   0.652   2.809  16.658  0.3066  0.8300 -1.5197
 1154TIP3    H224878   0.794   2.789  16.705 -0.4415 -0.1982  0.3826
 1155TIP3   OH224879   2.794   2.305  12.325  0.4598 -0.4942 -0.4032
 1155TIP3    H124880   2.848   2.340  12.396 -1.1286 -0.4162  0.8259
 1155TIP3    H224881   2.711   2.351  12.333  0.2158 -0.5359 -2.3078
 1156TIP3   OH224882   3.740   0.214   5.697 -0.3946 -0.6699  0.1217
 1156TIP3    H124883   3.701   0.245   5.779  0.6594 -0.0657  0.4163
 1156TIP3    H224884   3.672   0.159   5.657 -1.7167  0.7228  0.3716
 1157TIP3   OH224885   0.334   1.469  12.961 -0.1507  0.4258  0.0916
 1157TIP3    H124886   0.319   1.526  12.885  1.7969  0.8673 -0.0413
 1157TIP3    H224887   0.429   1.472  12.973 -0.1528 -1.7247  0.9500
 1158TIP3   OH224888   1.435   3.003  12.721 -0.6122  0.2740  0.4630
 1158TIP3    H124889   1.462   3.025  12.810 -1.4901 -1.1915  1.1326
 1158TIP3    H224890   1.420   3.087  12.679  1.9441  1.0846  0.9629
 1159TIP3   OH224891   5.769   0.818  16.911 -0.1268 -0.0942  0.7019
 1159TIP3    H124892   5.788   0.738  16.862 -2.7185  0.1097 -0.8485
 1159TIP3    H224893   5.798   0.799  17.001  0.3139 -2.3368  0.1515
 1160TIP3   OH224894   1.543   0.472  14.418 -0.1334  0.3606  0.1561
 1160TIP3    H124895   1.480   0.525  14.369 -1.1868 -0.8012  0.1994
 1160TIP3    H224896   1.517   0.381  14.400 -0.6469 -0.1224  2.9415
 1161TIP3   OH224897   4.621   1.299   3.562 -0.6924 -0.0150 -0.3028
 1161TIP3    H124898   4.669   1.218   3.544 -1.6416 -0.7785  0.4611
 1161TIP3    H224899   4.636   1.314   3.656 -0.6560  0.6121 -0.4067
 1162TIP3   OH224900   6.160   0.550   2.913  0.1373 -0.6947  0.0957
 1162TIP3    H124901   6.101   0.564   2.987  3.2214  1.5124  2.4239
 1162TIP3    H224902   6.198   0.463   2.930  0.9247 -0.1504  1.2785
 1163TIP3   OH224903   3.958   5.569   0.651 -0.1444  0.4639 -0.2484
 1163TIP3    H124904   3.874   5.548   0.692 -0.2936  0.2111 -0.6774
 1163TIP3    H224905   3.957   5.664   0.642  0.6496  0.7255  1.9519
 1164TIP3   OH224906   4.344   1.020  14.371  0.0817 -0.6349  0.4886
 1164TIP3    H124907   4.421   0.962  14.375  0.0860 -0.5939  1.0828
 1164TIP3    H224908   4.271   0.962  14.351  0.4270 -0.5166 -1.3344
 1165TIP3   OH224909   0.374   4.957   2.165  0.3752 -0.9375 -0.0543
 1165TIP3    H124910   0.341   4.975   2.253 -0.8976  0.1039 -0.7091
 1165TIP3    H224911   0.469   4.963   2.173  0.2206  1.2763  0.8380
 1166TIP3   OH224912   4.010   6.218   1.709 -0.0198 -0.1994  0.0981
 1166TIP3    H124913   4.105   6.221   1.725  0.0037 -2.3446  0.7262
 1166TIP3    H224914   3.999   6.255   1.622  1.4026  0.0933  0.0128
 1167TIP3   OH224915   6.228   0.700  15.611  0.4946 -0.9733  0.0807
 1167TIP3    H124916   6.255   0.748  15.532  2.1337 -1.3529  0.3623
 1167TIP3    H224917   6.260   0.611  15.597 -0.8183 -1.5121  0.4081
 1168TIP3   OH224918   1.700   1.767  11.650  0.3076 -0.1305 -0.2805
 1168TIP3    H124919   1.738   1.685  11.621  1.2285  0.8744 -2.0606
 1168TIP3    H224920   1.775   1.822  11.674 -0.3019  0.1300  1.1582
 1169TIP3   OH224921   4.824   1.210   4.996 -0.0173  0.1837 -0.9473
 1169TIP3    H124922   4.781   1.164   5.068  1.0110 -0.0770 -0.4765
 1169TIP3    H224923   4.757   1.268   4.960 -1.3191 -1.5511 -1.4506
 1170TIP3   OH224924   2.087   1.614   0.851  0.5818 -0.3338  0.1841
 1170TIP3    H124925   2.057   1.535   0.895 -0.2266 -0.2795 -0.2582
 1170TIP3    H224926   2.066   1.685   0.911 -0.3924 -0.2729 -0.2199
 1171TIP3   OH224927   1.830   3.679   1.080 -0.3348  0.4329 -0.4432
 1171TIP3    H124928   1.857   3.670   1.171 -2.0248  0.7140  0.1267
 1171TIP3    H224929   1.779   3.600   1.062 -0.1316  0.4450 -1.0868
 1172TIP3   OH224930   0.463   0.498   3.978  0.7817  0.1410 -0.0234
 1172TIP3    H124931   0.400   0.558   4.018 -0.1602 -0.5076 -0.5017
 1172TIP3    H224932   0.507   0.551   3.911  0.7454  0.5968  0.3075
 1173TIP3   OH224933   2.325   5.867  10.322 -0.1226 -0.2072 -0.0777
 1173TIP3    H124934   2.339   5.772  10.314  2.1346 -0.1321  1.9859
 1173TIP3    H224935   2.259   5.876  10.390  0.8686 -0.3004  0.9182
 1174TIP3   OH224936   6.158   3.756  14.193 -0.2473  0.3717  0.6226
 1174TIP3    H124937   6.086   3.793  14.142  0.5795  2.5619  0.9322
 1174TIP3    H224938   6.228   3.741  14.130 -0.6324 -0.8360  0.4753
 1175TIP3   OH224939   3.692   1.883   5.756 -0.2565  0.1101 -0.1928
 1175TIP3    H124940   3.707   1.968   5.713  0.8734 -0.1962 -0.4300
 1175TIP3    H224941   3.658   1.827   5.686  0.8656 -0.1752 -0.5265
 1176TIP3   OH224942   3.788   4.590  15.573  0.4843  0.1815  0.4910
 1176TIP3    H124943   3.871   4.624  15.608  0.6983 -0.9359  1.1002
 1176TIP3    H224944   3.722   4.625  15.633  0.6465  0.0436  0.7565
 1177TIP3   OH224945   3.363   3.801  14.700  0.5970 -0.2998 -0.1150
 1177TIP3    H124946   3.372   3.890  14.733 -1.7366 -0.7342  1.9870
 1177TIP3    H224947   3.379   3.745  14.776 -1.3507 -1.5102 -0.5095
 1178TIP3   OH224948   1.340   2.616   0.407  0.0550 -0.1795 -0.5256
 1178TIP3    H124949   1.418   2.648   0.454  1.4252 -1.8018 -1.5681
 1178TIP3    H224950   1.359   2.524   0.390 -2.3327 -0.7443 -0.4349
 1179TIP3   OH224951   2.233   3.123   2.720  0.8253 -0.7909  0.2176
 1179TIP3    H124952   2.236   3.154   2.810 -1.3192 -2.2228  0.8583
 1179TIP3    H224953   2.190   3.037   2.725  1.9941 -1.6099 -2.0106
 1180TIP3   OH224954   4.188   6.209   3.264  0.0668  0.1246  0.1805
 1180TIP3    H124955   4.178   6.130   3.211 -0.4258 -1.2876  2.2260
 1180TIP3    H224956   4.278   6.206   3.295  0.1287  0.5228  0.0401
 1181TIP3   OH224957   1.738   4.431  13.805 -0.5257  0.4033  0.2166
 1181TIP3    H124958   1.695   4.509  13.771 -0.2932  0.7725  0.7551
 1181TIP3    H224959   1.827   4.435  13.770  0.1174  1.4578  1.8256
 1182TIP3   OH224960   2.410   2.908   6.143 -0.1773 -0.3943 -0.0846
 1182TIP3    H124961   2.407   2.995   6.183  0.3211 -1.2667  1.9676
 1182TIP3    H224962   2.346   2.912   6.072 -0.8303  1.3728  0.5583
 1183TIP3   OH224963   1.063   0.470  12.432  0.3801 -0.7397  0.5000
 1183TIP3    H124964   1.126   0.405  12.401 -0.0608 -0.5747 -0.7695
 1183TIP3    H224965   1.115   0.549  12.446  1.0876 -1.5164  2.8648
 1184TIP3   OH224966   5.970   3.709   2.008 -0.3332 -0.1522  0.3211
 1184TIP3    H124967   5.887   3.676   1.974 -0.2728  0.6033 -0.5949
 1184TIP3    H224968   6.020   3.630   2.029 -0.5192 -0.6537 -1.0338
 1185TIP3   OH224969   6.703   2.678  14.030 -0.1206  0.0066  0.4873
 1185TIP3    H124970   6.793   2.646  14.026  0.2418  1.1031 -1.1496
 1185TIP3    H224971   6.701   2.751  13.968 -1.7758  0.9478  1.5791
 1186TIP3   OH224972   0.703   5.373   1.351 -0.1085 -0.4148 -0.1191
 1186TIP3    H124973   0.781   5.379   1.407 -0.3796  1.2199  0.1338
 1186TIP3    H224974   0.738   5.373   1.262  0.2231 -1.0219 -0.0009
 1187TIP3   OH224975   1.519   0.893   2.316  0.1131 -0.1228 -0.1820
 1187TIP3    H124976   1.568   0.814   2.338 -0.7508 -0.3193  1.1753
 1187TIP3    H224977   1.441   0.861   2.271 -1.0800 -0.2487  1.8387
 1188TIP3   OH224978   3.146   0.736  12.690 -0.3428 -0.5390 -0.2075
 1188TIP3    H124979   3.070   0.793  12.704  0.0624 -0.1073  0.2538
 1188TIP3    H224980   3.108   0.653  12.659 -1.0112 -0.3784  0.1593
 1189TIP3   OH224981   4.455   5.817  17.254 -0.5536 -0.0802  0.1159
 1189TIP3    H124982   4.462   5.811  17.158  1.3628  1.2577  0.1017
 1189TIP3    H224983   4.480   5.908  17.273 -1.9571 -0.0063  1.8381
 1190TIP3   OH224984   6.443   4.450  15.941  0.3080 -0.1545 -0.5981
 1190TIP3    H124985   6.529   4.486  15.920  1.2917 -3.3994 -3.2154
 1190TIP3    H224986   6.425   4.390  15.868 -3.1786 -1.2709  0.9808
 1191TIP3   OH224987   0.849   2.992   4.399  0.4405  0.4148 -0.3371
 1191TIP3    H124988   0.897   2.911   4.414 -0.1676  0.3853  1.8710
 1191TIP3    H224989   0.843   3.000   4.304  2.2159 -1.0861 -0.6208
 1192TIP3   OH224990   4.291   2.529  14.584  0.3716 -0.1888  0.4366
 1192TIP3    H124991   4.202   2.562  14.573 -0.3343 -1.8173  0.8736
 1192TIP3    H224992   4.341   2.570  14.514 -0.7811  0.5875  0.0502
 1193TIP3   OH224993   6.541   0.307  15.797 -0.4762  0.1475  0.1488
 1193TIP3    H124994   6.612   0.279  15.855  0.2423  1.9810  0.2423
 1193TIP3    H224995   6.504   0.226  15.762  1.7991 -0.8750 -0.0640
 1194TIP3   OH224996   4.452   5.746   2.381  0.3812  0.4572 -0.1035
 1194TIP3    H124997   4.401   5.729   2.302 -0.3153  0.7616  0.2620
 1194TIP3    H224998   4.405   5.697   2.449  1.1042  0.0095  0.0797
 1195TIP3   OH224999   3.863   5.934  12.300  0.1092 -0.2893 -0.0312
 1195TIP3    H125000   3.908   5.861  12.343  3.0358  1.2066 -0.3037
 1195TIP3    H225001   3.816   5.978  12.371 -0.1579 -1.3469  0.4670
 1196TIP3   OH225002   0.614   4.818   3.089  0.4298  0.6114  0.1103
 1196TIP3    H125003   0.561   4.741   3.109 -0.4765  1.1919 -0.0062
 1196TIP3    H225004   0.611   4.870   3.170  1.0990  0.4936  0.2153
 1197TIP3   OH225005   5.569   3.554   4.762  0.5123 -0.8335  0.4841
 1197TIP3    H125006   5.663   3.542   4.747  0.5324 -0.3960  0.2428
 1197TIP3    H225007   5.532   3.466   4.754  0.7118 -0.8283 -0.8250
 1198TIP3   OH225008   0.872   5.974  12.485  0.4350 -0.1421 -0.0360
 1198TIP3    H125009   0.896   6.065  12.499 -0.9685  0.1978  0.3573
 1198TIP3    H225010   0.818   5.952  12.561  0.5121 -1.2128 -0.2721
 1199TIP3   OH225011   3.892   6.471  14.596  0.2284  0.1763  0.0128
 1199TIP3    H125012   3.843   6.468  14.678  1.1277 -0.4698  0.5483
 1199TIP3    H225013   3.884   6.383  14.559 -0.4820  0.5638 -0.8002
 1200TIP3   OH225014   4.912   5.661  14.696 -0.1084  0.9507  0.0263
 1200TIP3    H125015   4.972   5.706  14.637 -0.5125  2.2056  0.5347
 1200TIP3    H225016   4.958   5.659  14.780 -1.2678  3.2161  0.8057
 1201TIP3   OH225017   2.164   6.579   2.645 -0.2897 -0.3073 -0.2408
 1201TIP3    H125018   2.119   6.522   2.707 -0.4307  1.1953  1.1336
 1201TIP3    H225019   2.180   6.660   2.694  0.2354  0.7067 -1.9655
 1202TIP3   OH225020   6.446   1.601  17.152 -0.1464  0.3423  0.3483
 1202TIP3    H125021   6.412   1.627  17.238  0.5260  0.1306  0.6900
 1202TIP3    H225022   6.532   1.643  17.147 -0.4443  0.8637 -0.4914
 1203TIP3   OH225023   2.202   3.823  12.098 -0.1708  0.0139 -0.6897
 1203TIP3    H125024   2.291   3.832  12.131 -0.4902 -0.3215  0.3112
 1203TIP3    H225025   2.192   3.730  12.080 -0.6851 -0.1298  0.3046
 1204TIP3   OH225026   5.831   4.279   4.220  0.1808  0.0122 -0.3871
 1204TIP3    H125027   5.824   4.366   4.181  1.0254  0.4140  0.3211
 1204TIP3    H225028   5.792   4.288   4.307 -1.2294 -0.7526 -0.8981
 1205TIP3   OH225029   0.282   0.205   1.527  0.0863  0.2808 -0.3217
 1205TIP3    H125030   0.260   0.185   1.618 -0.2395 -0.7066 -0.6005
 1205TIP3    H225031   0.374   0.179   1.519  0.4522  1.4338  0.0136
 1206TIP3   OH225032   0.872   3.730  15.627 -0.1508  0.1301 -0.3973
 1206TIP3    H125033   0.935   3.730  15.555  0.9298  1.9245  0.4762
 1206TIP3    H225034   0.820   3.809  15.615 -0.5053  0.0187  0.3407
 1207TIP3   OH225035   3.944   3.063  16.983 -0.6098 -0.2560  0.3316
 1207TIP3    H125036   4.008   3.000  17.017 -0.0245  0.2394  0.1783
 1207TIP3    H225037   3.984   3.096  16.903 -0.7952  0.4879  0.5366
 1208TIP3   OH225038   0.695   5.501  12.694 -0.2947 -0.2282 -0.3569
 1208TIP3    H125039   0.755   5.575  12.687 -1.4254  0.7248 -0.4168
 1208TIP3    H225040   0.718   5.444  12.621  1.0961 -0.3267  0.1413
 1209TIP3   OH225041   6.389   5.721  13.690  0.3263 -0.0949 -0.1157
 1209TIP3    H125042   6.295   5.716  13.668  0.0719 -1.1762  1.0977
 1209TIP3    H225043   6.391   5.752  13.780  1.2280  1.3741 -0.6033
 1210TIP3   OH225044   6.089   5.765   4.570 -0.3796  0.3618  0.0300
 1210TIP3    H125045   6.172   5.740   4.528 -0.0376 -0.5748  1.2111
 1210TIP3    H225046   6.023   5.750   4.502  0.1337 -1.3192 -0.1609
 1211TIP3   OH225047   1.695   5.065   0.735  0.0006  0.2632  0.3425
 1211TIP3    H125048   1.618   5.107   0.697  0.1149  2.4222  2.2798
 1211TIP3    H225049   1.697   4.977   0.695 -3.4229  0.1198  0.2300
 1212TIP3   OH225050   0.909   5.650  12.686  0.4127  0.3419  0.1381
 1212TIP3    H125051   0.941   5.725  12.736  0.1661  0.2523  0.4344
 1212TIP3    H225052   0.961   5.576  12.718 -0.3217  0.1292  0.8822
 1213TIP3   OH225053   0.970   2.897   5.205  0.1723  0.3723 -0.0314
 1213TIP3    H125054   0.954   2.833   5.274  0.3456 -1.0501 -1.2505
 1213TIP3    H225055   1.014   2.969   5.248  0.8026 -0.7347  1.2367
 1214TIP3   OH225056   3.345   2.344  16.330  0.4967  0.1295 -0.2295
 1214TIP3    H125057   3.386   2.321  16.247  0.5846  1.3962 -0.5618
 1214TIP3    H225058   3.338   2.261  16.378  0.3873 -0.6262 -1.5175
 1215TIP3   OH225059   0.188   0.757  17.247  0.1457 -0.0230  0.1374
 1215TIP3    H125060   0.227   0.715  17.170  0.7909  0.3627  0.2508
 1215TIP3    H225061   0.243   0.833  17.263 -0.5177  0.3954  0.4484
 1216TIP3   OH225062   1.890   2.497  13.432  0.1760 -0.3256  0.3595
 1216TIP3    H125063   1.866   2.405  13.418 -0.0827 -0.3879  1.1751
 1216TIP3    H225064   1.985   2.497  13.430  0.2505 -0.0783 -2.9378
 1217TIP3   OH225065   5.998   4.975  14.249  0.2144  0.2984 -0.5601
 1217TIP3    H125066   5.958   4.945  14.168  0.2032  2.0466 -1.2453
 1217TIP3    H225067   5.945   4.936  14.319 -0.1957 -0.6565 -1.3910
 1218TIP3   OH225068   1.063   2.612   1.511 -0.6058 -0.7476  0.1608
 1218TIP3    H125069   0.975   2.582   1.534 -0.8611 -0.2630 -0.1860
 1218TIP3    H225070   1.102   2.537   1.465 -0.3980 -1.4084  1.3642
 1219TIP3   OH225071   3.032   3.593  14.801 -0.2748  0.1290  0.4468
 1219TIP3    H125072   2.943   3.568  14.774 -0.7006  2.3740 -0.4374
 1219TIP3    H225073   3.084   3.585  14.721 -0.0830  0.5829  0.5281
 1220TIP3   OH225074   2.642   1.273   5.522  0.2575  0.3093  0.2456
 1220TIP3    H125075   2.652   1.302   5.431 -0.6221 -0.3859 -0.0860
 1220TIP3    H225076   2.559   1.225   5.523  1.2101 -1.4072  0.9795
 1221TIP3   OH225077   5.534   4.056  12.510 -0.0978 -0.0190 -0.0349
 1221TIP3    H125078   5.521   4.138  12.462  1.3247  0.3457  0.1606
 1221TIP3    H225079   5.533   3.989  12.442 -2.5587 -0.0144 -0.0607
 1222TIP3   OH225080   2.032   2.322  16.961  0.2079  0.0779  0.0471
 1222TIP3    H125081   1.940   2.335  16.985  0.6357  0.6008  1.5563
 1222TIP3    H225082   2.080   2.349  17.040  1.6856  0.6060 -1.0024
 1223TIP3   OH225083   2.345   4.692   2.487  0.0734 -0.6477  0.9758
 1223TIP3    H125084   2.299   4.656   2.563 -0.8182 -1.6014  0.0272
 1223TIP3    H225085   2.302   4.652   2.412  0.7084  0.5229 -0.0609
 1224TIP3   OH225086   5.622   0.080  14.391 -0.1544  0.5050 -0.1766
 1224TIP3    H125087   5.667   0.013  14.442 -1.0801 -0.3289 -0.4146
 1224TIP3    H225088   5.690   0.119  14.336  0.0707 -1.8414 -1.7286
 1225TIP3   OH225089   1.303   2.872  16.430 -0.0082  0.1447  0.1619
 1225TIP3    H125090   1.376   2.851  16.372 -0.4448  1.7850 -1.0599
 1225TIP3    H225091   1.294   2.967  16.424 -2.9058 -0.0887 -0.5993
 1226TIP3   OH225092   5.308   4.694   1.007 -0.4739 -0.0804  0.3698
 1226TIP3    H125093   5.274   4.684   1.096  0.1635 -0.9178  0.5348
 1226TIP3    H225094   5.394   4.652   1.009 -1.4154 -2.2891 -1.2230
 1227TIP3   OH225095   2.925   1.014  15.219  0.1427  0.1405 -0.1775
 1227TIP3    H125096   2.925   0.919  15.205 -0.5144 -0.1631  1.6158
 1227TIP3    H225097   2.925   1.051  15.130  1.2477 -1.5090 -0.9203
 1228TIP3   OH225098   3.480   5.182  16.037  0.2624 -0.2111 -0.0413
 1228TIP3    H125099   3.425   5.227  15.974  2.2632  0.5334 -1.3681
 1228TIP3    H225100   3.437   5.098  16.052 -2.0448  0.9539  0.2825
 1229TIP3   OH225101   5.339   0.062   2.175 -0.1067 -0.1522  0.0546
 1229TIP3    H125102   5.331  -0.033   2.174 -0.1768 -0.1499 -1.3738
 1229TIP3    H225103   5.431   0.078   2.199 -0.5948 -0.5071  2.3093
 1230TIP3   OH225104   0.451   2.408  15.311  0.4776  0.0562  0.0422
 1230TIP3    H125105   0.474   2.404  15.218  1.8603 -0.7079  0.3868
 1230TIP3    H225106   0.529   2.445  15.353 -0.1453  0.4356  0.9021
 1231TIP3   OH225107   5.443   4.402   4.329  0.1652  0.2001 -0.8406
 1231TIP3    H125108   5.354   4.381   4.358 -0.1250  3.5838  1.2790
 1231TIP3    H225109   5.435   4.413   4.234 -1.2828 -1.0929 -0.9059
 1232TIP3   OH225110   6.069   0.736   2.003  0.1456  0.4092 -0.1538
 1232TIP3    H125111   6.165   0.734   2.009  0.0763 -0.0760  1.3245
 1232TIP3    H225112   6.042   0.648   2.031 -0.7513  0.6976 -0.0907
 1233TIP3   OH225113   2.607   6.495   0.521  0.5760 -0.0294 -0.3046
 1233TIP3    H125114   2.556   6.569   0.554  0.5144 -0.6310  1.0336
 1233TIP3    H225115   2.693   6.505   0.563  0.8247 -0.2716 -0.7504
 1234TIP3   OH225116   4.011   6.226   2.663 -0.5769 -0.0200 -0.4833
 1234TIP3    H125117   3.922   6.189   2.659 -0.2813 -0.8964  0.5786
 1234TIP3    H225118   4.036   6.236   2.571 -0.4074 -3.2294 -0.9122
 1235TIP3   OH225119   3.115   0.928   2.314 -0.1399 -0.5296 -0.4613
 1235TIP3    H125120   3.161   0.925   2.398 -0.2916  0.8482 -0.3114
 1235TIP3    H225121   3.108   0.836   2.287  2.1449 -0.8489 -0.1831
 1236TIP3   OH225122   4.609   5.321   3.541 -0.0718 -0.3925  0.5833
 1236TIP3    H125123   4.547   5.327   3.468 -0.3362  0.0292  0.8331
 1236TIP3    H225124   4.692   5.296   3.500 -0.1758  0.0042  0.1148
 1237TIP3   OH225125   2.320   3.214  17.226  0.1503  0.3697  0.6663
 1237TIP3    H125126   2.347   3.164  17.148 -0.5919 -0.0160  0.6520
 1237TIP3    H225127   2.380   3.184  17.295  0.4391  0.2940  0.3885
 1238TIP3   OH225128   5.537   6.303   4.747  0.2292 -0.1322 -0.4837
 1238TIP3    H125129   5.582   6.219   4.759  0.7172  0.3621  1.5846
 1238TIP3    H225130   5.444   6.281   4.751  0.3035 -0.3800  2.7661
 1239TIP3   OH225131   0.616   6.511  16.120  0.0527 -0.2914 -0.3241
 1239TIP3    H125132   0.550   6.544  16.181  0.4326 -1.6858  0.8948
 1239TIP3    H225133   0.667   6.588  16.096 -1.3030  0.6249 -0.4343
 1240TIP3   OH225134   3.648   5.820   2.509 -0.9023 -0.5774  0.5972
 1240TIP3    H125135   3.581   5.886   2.496 -1.4417 -1.5447 -2.5252
 1240TIP3    H225136   3.718   5.845   2.448  1.7156  0.4253  3.7672
 1241TIP3   OH225137   5.868   5.803  10.665 -0.2619  0.3770  0.2413
 1241TIP3    H125138   5.874   5.873  10.600 -2.7540  1.5604  1.2041
 1241TIP3    H225139   5.861   5.723  10.612 -0.8696  1.1803 -0.9405
 1242TIP3   OH225140   1.159   2.399   3.934 -0.3178  0.5634 -0.1718
 1242TIP3    H125141   1.213   2.478   3.930  0.6596 -0.0836 -0.1516
 1242TIP3    H225142   1.069   2.431   3.942  0.0671  1.6661 -0.1519
 1243TIP3   OH225143   3.410   1.316  12.262 -0.1428  0.1592  0.3214
 1243TIP3    H125144   3.374   1.379  12.324  2.5898  2.1713  0.0813
 1243TIP3    H225145   3.496   1.294  12.297  0.0713 -1.3963 -1.0112
 1244TIP3   OH225146   5.522   3.237  12.058 -0.5178  0.1176 -0.0805
 1244TIP3    H125147   5.483   3.150  12.056 -0.1166 -0.2043  2.4107
 1244TIP3    H225148   5.491   3.280  11.978 -2.2494 -1.6586 -0.4264
 1245TIP3   OH225149   1.172   0.697  12.544 -0.4752  0.0721  0.2391
 1245TIP3    H125150   1.260   0.728  12.521 -0.5313 -0.5832 -0.9362
 1245TIP3    H225151   1.113   0.760  12.503 -0.5629 -0.6143 -0.7318
 1246TIP3   OH225152   2.402   6.655   5.248  0.1492  0.3010  0.4081
 1246TIP3    H125153   2.307   6.645   5.253  0.2548 -0.6657  0.6105
 1246TIP3    H225154   2.415   6.721   5.180 -0.6160 -0.8256 -0.8785
 1247TIP3   OH225155   0.219   5.695  15.347 -0.2025  0.0143  0.5285
 1247TIP3    H125156   0.243   5.612  15.388 -0.6090  0.0314  0.8049
 1247TIP3    H225157   0.286   5.757  15.378  0.4003 -0.3208 -0.0912
 1248TIP3   OH225158   0.341   6.756   5.697 -0.0801 -0.2688 -0.3976
 1248TIP3    H125159   0.353   6.672   5.742 -1.2794  1.4753  3.6833
 1248TIP3    H225160   0.259   6.747   5.649 -0.4830 -1.3009  0.4466
 1249TIP3   OH225161   1.787   5.701   0.387  0.1366  0.6967 -0.3055
 1249TIP3    H125162   1.741   5.747   0.457  1.5082  1.2469  0.2822
 1249TIP3    H225163   1.812   5.769   0.325 -0.1990  0.3526 -0.8252
 1250TIP3   OH225164   3.439   3.447   4.740  0.0266 -0.1712  0.3033
 1250TIP3    H125165   3.403   3.398   4.667 -0.9197  1.5093 -0.4099
 1250TIP3    H225166   3.369   3.448   4.806 -0.0374  0.3475  0.2358
 1251TIP3   OH225167   3.860   0.544  15.604  0.0867 -0.5013 -0.0202
 1251TIP3    H125168   3.891   0.632  15.628 -1.7974  0.1536  0.1946
 1251TIP3    H225169   3.826   0.508  15.686 -0.0952 -1.0093 -0.3165
 1252TIP3   OH225170   2.997   4.422   5.938  0.1186  0.1944 -0.1940
 1252TIP3    H125171   3.014   4.488   6.006 -0.2906 -0.8879  1.0051
 1252TIP3    H225172   2.918   4.377   5.967  0.9997 -1.5796 -0.3624
 1253TIP3   OH225173   4.803   5.321  13.109 -0.7912  0.4246 -0.1043
 1253TIP3    H125174   4.717   5.287  13.086  0.3624 -0.8129 -3.0114
 1253TIP3    H225175   4.850   5.246  13.144 -0.8376  1.0993  1.4954
 1254TIP3   OH225176   4.748   6.034   5.789  0.3319 -0.2440  0.3159
 1254TIP3    H125177   4.721   5.989   5.869  0.2916  0.5310  0.7487
 1254TIP3    H225178   4.693   6.113   5.787  1.6019  0.6861  0.5037
 1255TIP3   OH225179   3.673   4.315  11.207 -0.4407 -0.3897  0.4089
 1255TIP3    H125180   3.626   4.397  11.188 -1.6566 -0.9896  0.7146
 1255TIP3    H225181   3.725   4.336  11.285  1.5662  0.9317 -1.2012
 1256TIP3   OH225182   4.714   1.982   1.409 -0.3360 -0.1215  0.0641
 1256TIP3    H125183   4.716   1.921   1.482 -0.1465  0.3065  0.4196
 1256TIP3    H225184   4.771   2.054   1.435 -1.2405  0.6361  0.0247
 1257TIP3   OH225185   0.945   0.912   5.452 -0.5232  0.4063  0.3022
 1257TIP3    H125186   0.966   0.850   5.521 -0.8765 -0.0926 -0.0276
 1257TIP3    H225187   0.861   0.880   5.416  0.6142 -0.5373 -1.6930
 1258TIP3   OH225188   0.018   6.182   4.905  0.2956 -0.4391  0.2977
 1258TIP3    H125189   0.038   6.137   4.988 -0.1701  1.4196  1.4752
 1258TIP3    H225190  -0.024   6.263   4.932 -0.7022 -0.1990 -1.8267
 1259TIP3   OH225191   3.244   5.342  11.366 -0.3625 -0.0212  0.1951
 1259TIP3    H125192   3.262   5.265  11.420 -0.6218  0.4512  0.9699
 1259TIP3    H225193   3.172   5.314  11.309 -1.9524  0.2835  1.9504
 1260TIP3   OH225194   5.315   5.929   0.671 -0.4664  0.6105 -0.4465
 1260TIP3    H125195   5.234   5.909   0.624 -0.1606 -0.9156 -0.3663
 1260TIP3    H225196   5.385   5.894   0.616 -0.0471 -0.4356  0.6985
 1261TIP3   OH225197   1.309   0.576   1.758  0.1664 -0.2866  0.1385
 1261TIP3    H125198   1.245   0.532   1.703  0.4562 -0.7529  0.1674
 1261TIP3    H225199   1.258   0.617   1.828 -0.1085 -0.5238  0.0756
 1262TIP3   OH225200   0.479   3.395  16.456  0.2602  0.3295 -0.3787
 1262TIP3    H125201   0.553   3.454  16.467  0.4846 -0.2878  1.8151
 1262TIP3    H225202   0.407   3.437  16.502  0.0587 -0.4528  0.0413
 1263TIP3   OH225203   3.221   4.839  15.489  0.3979 -0.0876 -0.0033
 1263TIP3    H125204   3.197   4.782  15.562  1.5607 -1.7730 -0.8624
 1263TIP3    H225205   3.311   4.865  15.508  0.6525 -0.4075 -0.7355
 1264TIP3   OH225206   4.166   5.259  15.024 -0.0216 -0.3248  0.3466
 1264TIP3    H125207   4.102   5.229  14.959 -0.3154  2.9210 -1.0535
 1264TIP3    H225208   4.113   5.283  15.100 -0.6285  2.5137 -0.8687
 1265TIP3   OH225209   4.624   0.261   1.870 -0.2347  0.5182  0.1210
 1265TIP3    H125210   4.578   0.236   1.950  2.1195  2.0477  2.0972
 1265TIP3    H225211   4.559   0.310   1.820 -1.3360  0.9449  1.8742
 1266TIP3   OH225212   1.495   5.746  11.792 -0.1570  0.2572  0.7918
 1266TIP3    H125213   1.445   5.665  11.784  0.3803  0.0769 -1.1460
 1266TIP3    H225214   1.572   5.722  11.843 -0.5527 -0.1498  1.2150
 1267TIP3   OH225215   4.664   4.913  15.572 -0.3415  0.1086  0.1260
 1267TIP3    H125216   4.726   4.861  15.623 -0.1571  0.6082  0.4269
 1267TIP3    H225217   4.649   4.991  15.626 -1.7585 -0.3140  0.3705
 1268TIP3   OH225218   1.426   5.748   1.791 -0.0272  0.5400 -0.3252
 1268TIP3    H125219   1.518   5.774   1.792  0.5104 -1.2253 -0.1922
 1268TIP3    H225220   1.402   5.747   1.698 -0.0129  1.2729 -0.3446
 1269TIP3   OH225221   4.677   2.923   2.017  0.8538  0.1816  0.0376
 1269TIP3    H125222   4.639   2.871   2.088  0.7953  0.2853  0.0826
 1269TIP3    H225223   4.611   2.990   1.998  1.7538  1.5149  1.3506
 1270TIP3   OH225224   5.569   4.572  13.086  0.1494 -0.3539  0.0969
 1270TIP3    H125225   5.618   4.649  13.117 -3.2790  1.2088  2.1781
 1270TIP3    H225226   5.529   4.536  13.165 -0.8621 -2.4180 -1.2857
 1271TIP3   OH225227   3.660   3.618   1.955 -0.1760 -0.4220  0.4801
 1271TIP3    H125228   3.666   3.623   2.051 -3.1630  1.4457  0.6950
 1271TIP3    H225229   3.674   3.708   1.925  0.8408 -1.0028 -0.8885
 1272TIP3   OH225230   1.210   4.220   2.350  0.2618  0.0877  0.1823
 1272TIP3    H125231   1.270   4.207   2.276  0.2302 -0.9282  0.3351
 1272TIP3    H225232   1.149   4.288   2.318  0.9001  0.4430 -0.3187
 1273TIP3   OH225233   2.092   4.026   3.098  0.0239  0.1844 -0.3561
 1273TIP3    H125234   2.127   4.110   3.128 -1.7093  0.5858  0.6510
 1273TIP3    H225235   2.139   4.008   3.016  1.1431  1.6234 -0.0586
 1274TIP3   OH225236   6.620   1.138   3.464 -0.0269 -0.1361  0.4909
 1274TIP3    H125237   6.565   1.063   3.442 -0.8320  0.4003  0.6346
 1274TIP3    H225238   6.558   1.208   3.485  0.6311 -0.2440  3.2216
 1275TIP3   OH225239   2.800   6.586  16.175 -0.2529 -0.7125  0.4614
 1275TIP3    H125240   2.805   6.645  16.250 -0.0917 -2.7801  2.1595
 1275TIP3    H225241   2.713   6.546  16.183 -0.3079 -0.8323 -0.5982
 1276TIP3   OH225242   1.522   2.306  11.803 -0.0886 -0.4599  0.3675
 1276TIP3    H125243   1.561   2.276  11.721 -0.2699  0.7538 -0.1803
 1276TIP3    H225244   1.447   2.249  11.816  0.2174 -0.9671 -0.0639
 1277TIP3   OH225245   4.352   0.282  11.358 -0.3065 -0.4046 -0.3212
 1277TIP3    H125246   4.257   0.292  11.348 -0.2487  1.0542  0.3258
 1277TIP3    H225247   4.389   0.337  11.289  0.0434  0.0177  0.1868
 1278TIP3   OH225248   0.592   6.611   4.758  0.1197 -0.4172 -0.6409
 1278TIP3    H125249   0.581   6.650   4.845  0.4809 -0.4499 -0.5768
 1278TIP3    H225250   0.508   6.571   4.738 -0.4398  0.8598 -0.9407
 1279TIP3   OH225251   1.233   0.070   1.024  0.3812 -0.5491  0.0783
 1279TIP3    H125252   1.291   0.144   1.040  0.4890 -0.7516  0.6594
 1279TIP3    H225253   1.285   0.008   0.974  1.1095 -1.2852  1.6826
 1280TIP3   OH225254   3.555   3.207   4.260  0.1777  0.0322  0.3676
 1280TIP3    H125255   3.588   3.289   4.299 -1.0259  0.6666  0.0843
 1280TIP3    H225256   3.546   3.148   4.334 -0.3309  0.6353  0.7980
 1281TIP3   OH225257   5.807   1.865  11.755  0.0646 -0.5456 -0.3454
 1281TIP3    H125258   5.879   1.917  11.721  1.0541 -0.5179  1.6457
 1281TIP3    H225259   5.730   1.896  11.707  0.8819  1.6231 -0.3568
 1282TIP3   OH225260   5.560   1.596  15.313  0.0608  0.1529  0.4137
 1282TIP3    H125261   5.467   1.613  15.330  0.0625 -0.5673  1.2654
 1282TIP3    H225262   5.561   1.551  15.229 -0.1672  1.8940 -0.5719
 1283TIP3   OH225263   5.757   2.492  13.602  0.2108  0.0745  0.1239
 1283TIP3    H125264   5.781   2.447  13.521 -0.6809  1.7867 -1.1587
 1283TIP3    H225265   5.672   2.457  13.625 -0.0241  0.3556 -0.3040
 1284TIP3   OH225266   1.912   6.774  11.964  0.2704 -0.1779 -0.0991
 1284TIP3    H125267   1.830   6.724  11.967  0.5948 -0.7405 -0.4695
 1284TIP3    H225268   1.886   6.864  11.987 -0.4140 -0.3931 -0.0068
 1285TIP3   OH225269   0.601   1.976  16.292 -0.2324  0.0070 -0.2930
 1285TIP3    H125270   0.570   2.066  16.279  1.4032  0.4651 -1.3626
 1285TIP3    H225271   0.695   1.980  16.274  0.0904 -1.7210  0.7210
 1286TIP3   OH225272   0.584   0.515   5.825  0.0043 -0.2168  0.1889
 1286TIP3    H125273   0.506   0.484   5.779  0.0975  0.8736 -0.7426
 1286TIP3    H225274   0.573   0.609   5.831  2.0868  0.2443 -1.6514
 1287TIP3   OH225275   6.366   5.621  15.119 -0.1353 -0.0272  0.0013
 1287TIP3    H125276   6.308   5.601  15.046  0.2583  2.4605 -1.0824
 1287TIP3    H225277   6.312   5.670  15.181  0.3879  0.9876 -0.3176
 1288TIP3   OH225278   5.971   1.811   6.424  0.1472 -0.2180 -0.1519
 1288TIP3    H125279   5.973   1.716   6.411 -1.5821 -0.5571  1.5370
 1288TIP3    H225280   5.900   1.825   6.487 -0.0453  2.2648 -0.8091
 1289TIP3   OH225281   5.242   2.307  16.736  0.2025 -0.2246  0.1214
 1289TIP3    H125282   5.336   2.326  16.735 -0.2732  2.4562  0.1363
 1289TIP3    H225283   5.221   2.295  16.829  0.3236  0.4596  0.2448
 1290TIP3   OH225284   4.080   5.272   2.702 -0.6180  0.1640 -0.1881
 1290TIP3    H125285   4.122   5.228   2.628 -1.1679  0.5775 -0.7580
 1290TIP3    H225286   4.147   5.273   2.771  0.1215  0.3456 -0.8976
 1291TIP3   OH225287   2.241   5.687  13.556 -0.0675 -0.0920  0.2259
 1291TIP3    H125288   2.189   5.686  13.476 -0.0648  0.8706  0.1942
 1291TIP3    H225289   2.243   5.780  13.581  0.0541 -0.3657  1.2551
 1292TIP3   OH225290   1.271   5.164   4.977 -0.3510 -0.3905 -0.3720
 1292TIP3    H125291   1.267   5.258   4.964 -1.4449 -0.3925 -0.1733
 1292TIP3    H225292   1.225   5.149   5.060  1.4543 -0.9351  0.5989
 1293TIP3   OH225293   1.932   1.028  12.640 -0.9064  0.2340  0.1814
 1293TIP3    H125294   1.841   0.999  12.645 -0.4097 -1.5835 -0.7186
 1293TIP3    H225295   1.972   0.994  12.720 -0.8723  0.5328  0.2928
 1294TIP3   OH225296   6.613   4.227   3.575 -0.1306  0.1669  0.2610
 1294TIP3    H125297   6.559   4.304   3.559  2.6808  2.1987 -0.2444
 1294TIP3    H225298   6.626   4.188   3.489  0.7761  0.8465  0.0790
 1295TIP3   OH225299   1.726   4.702   5.301 -0.2443 -0.0544  0.5264
 1295TIP3    H125300   1.664   4.712   5.374  1.4646 -0.2042  2.0729
 1295TIP3    H225301   1.725   4.788   5.258 -0.4712  0.4049  1.4087
 1296TIP3   OH225302   2.717   5.980  12.045 -0.6916  0.1562  0.1233
 1296TIP3    H125303   2.672   6.013  12.123  1.2943  3.0474  0.1921
 1296TIP3    H225304   2.767   5.905  12.076 -1.5763 -0.0342  1.1322
 1297TIP3   OH225305   6.523   2.809   2.839  0.3410  0.0829 -0.2061
 1297TIP3    H125306   6.541   2.718   2.865 -1.9706 -0.5325 -0.5382
 1297TIP3    H225307   6.480   2.801   2.754 -0.4375  1.4562  0.0359
 1298TIP3   OH225308   0.600   4.986  15.521 -0.5842  0.3836  0.6641
 1298TIP3    H125309   0.591   5.081  15.518  1.9804  0.6791  0.8288
 1298TIP3    H225310   0.690   4.970  15.549 -0.6766 -2.0926 -0.1518
 1299TIP3   OH225311   0.251   1.800   4.688 -0.4276  0.2527  0.0968
 1299TIP3    H125312   0.263   1.783   4.781  0.8191  1.0275  0.1000
 1299TIP3    H225313   0.288   1.723   4.645  1.7934  1.1614  0.2088
 1300TIP3   OH225314   3.443   4.421   2.487 -0.5382 -0.5090  0.1249
 1300TIP3    H125315   3.395   4.399   2.408 -0.4522  0.9559 -0.3562
 1300TIP3    H225316   3.512   4.355   2.492 -0.0290 -0.1461 -1.4943
 1301TIP3   OH225317   6.320   5.136  12.637  0.0061 -0.6096  0.0220
 1301TIP3    H125318   6.266   5.190  12.580  1.1446  0.3276 -0.1889
 1301TIP3    H225319   6.306   5.046  12.606 -3.2095 -0.7386  1.4172
 1302TIP3   OH225320   3.933   4.972   1.989  0.7031 -0.0403  0.3205
 1302TIP3    H125321   3.940   4.907   1.919  0.8031 -1.6175  1.7420
 1302TIP3    H225322   3.867   5.034   1.957  2.3201  0.6005 -2.1186
 1303TIP3   OH225323   3.037   1.166   3.255 -0.1732 -0.4775  0.0806
 1303TIP3    H125324   3.130   1.145   3.257 -0.6413 -3.0464 -0.7726
 1303TIP3    H225325   3.034   1.261   3.244  2.3202 -0.2938  0.4028
 1304TIP3   OH225326   2.798   6.742  11.700  0.3600 -0.1370 -0.5748
 1304TIP3    H125327   2.786   6.791  11.782 -3.3305 -0.3175 -0.8445
 1304TIP3    H225328   2.862   6.675  11.722  0.4915  0.6629  1.7848
 1305TIP3   OH225329   5.954   1.529   5.205 -0.0825  0.0769  0.6442
 1305TIP3    H125330   5.931   1.620   5.184  0.3242  0.1846  0.6583
 1305TIP3    H225331   6.043   1.534   5.238  0.3769 -0.4847 -0.4648
 1306TIP3   OH225332   4.669   0.528  16.917 -0.2130  0.1515 -0.0648
 1306TIP3    H125333   4.667   0.614  16.876 -0.5446 -0.2246 -0.8589
 1306TIP3    H225334   4.753   0.525  16.962  1.1020 -0.1496 -2.3777
 1307TIP3   OH225335   4.167   2.340   1.392  0.0155  0.2015 -0.1997
 1307TIP3    H125336   4.111   2.383   1.327 -1.5735  2.0047  2.1593
 1307TIP3    H225337   4.231   2.408   1.416 -1.4122  0.7936  2.2997
 1308TIP3   OH225338   3.162   0.249  16.909  0.4877 -0.2779 -0.2551
 1308TIP3    H125339   3.177   0.329  16.858 -0.0497 -0.0377 -0.0383
 1308TIP3    H225340   3.242   0.239  16.961 -0.2747  1.3167  1.3220
 1309TIP3   OH225341   3.814   0.365  16.577  0.6847 -0.1065  0.3872
 1309TIP3    H125342   3.812   0.270  16.591  0.1938  0.0887  1.8101
 1309TIP3    H225343   3.786   0.377  16.487  0.0926 -1.2856  0.3978
 1310TIP3   OH225344   2.665   2.102   6.595 -0.3684 -0.3177 -0.1288
 1310TIP3    H125345   2.718   2.042   6.647 -0.6728  0.4417  1.0985
 1310TIP3    H225346   2.654   2.179   6.651 -2.2222 -0.1974 -0.6016
 1311TIP3   OH225347   2.648   3.382  13.617  0.0642  0.2947  0.5489
 1311TIP3    H125348   2.717   3.335  13.570 -0.3211 -0.0170  0.2866
 1311TIP3    H225349   2.677   3.384  13.708  0.4776  0.2783  0.4194
 1312TIP3   OH225350   4.724   4.644  14.395 -0.2667  0.2003  0.0847
 1312TIP3    H125351   4.692   4.734  14.406  0.2701  0.5920 -1.3067
 1312TIP3    H225352   4.645   4.590  14.394 -0.5699  0.5928  1.3754
 1313TIP3   OH225353   5.788   5.560  10.540  0.3906  0.4621  0.0492
 1313TIP3    H125354   5.818   5.510  10.464  1.4792  2.2319 -0.7472
 1313TIP3    H225355   5.701   5.525  10.559 -0.0317  0.1601 -2.2080
 1314TIP3   OH225356   4.692   2.827  13.727  0.2293  0.9223 -0.5629
 1314TIP3    H125357   4.672   2.734  13.719  2.8024  0.2146  0.3872
 1314TIP3    H225358   4.667   2.864  13.642 -1.1460 -0.5283 -0.8452
 1315TIP3   OH225359   2.044   2.265  11.534 -0.0619 -0.0098 -0.4301
 1315TIP3    H125360   1.985   2.193  11.554 -0.8852  0.7101 -0.1606
 1315TIP3    H225361   2.117   2.254  11.595  0.2938 -1.1417 -1.0423
 1316TIP3   OH225362   3.482   4.959   4.642 -0.3163 -0.1160 -0.0172
 1316TIP3    H125363   3.499   5.033   4.584  0.6974 -0.0987  0.2952
 1316TIP3    H225364   3.391   4.936   4.624  0.0932 -0.3888 -1.9234
 1317TIP3   OH225365   1.494   2.061  13.518 -0.3819  0.2101  0.3315
 1317TIP3    H125366   1.535   2.027  13.438 -2.1359  1.8428 -1.3836
 1317TIP3    H225367   1.446   2.139  13.488 -2.0652  0.2143  2.7820
 1318TIP3   OH225368   3.110   1.467   4.284 -0.4004 -0.4586  0.5903
 1318TIP3    H125369   3.059   1.518   4.221 -0.0810 -0.8731 -0.0128
 1318TIP3    H225370   3.184   1.522   4.306 -0.4604 -0.3530  0.5273
 1319TIP3   OH225371   0.713   6.631   3.255  0.8060  0.0898 -0.4046
 1319TIP3    H125372   0.701   6.642   3.349 -0.3781  0.9677 -0.6350
 1319TIP3    H225373   0.788   6.687   3.234 -0.1804  1.5054 -0.2785
 1320TIP3   OH225374   3.843   3.694   2.435  0.7332  0.1574  0.2890
 1320TIP3    H125375   3.901   3.750   2.384  1.8145 -0.9701  0.2217
 1320TIP3    H225376   3.773   3.752   2.465  0.0385  0.8697 -2.4545
 1321TIP3   OH225377   1.622   4.683   5.559 -0.0792  0.2906 -0.1692
 1321TIP3    H125378   1.588   4.616   5.618  2.5509 -1.7222 -0.7078
 1321TIP3    H225379   1.687   4.731   5.612 -0.3195  0.9138 -0.4288
 1322TIP3   OH225380   4.770   3.765  11.723  0.0800 -0.4726 -0.2517
 1322TIP3    H125381   4.712   3.821  11.672 -1.0781  0.9635  2.4581
 1322TIP3    H225382   4.853   3.813  11.726  0.5747 -1.1637 -1.7195
 1323TIP3   OH225383   4.384   1.870   0.513 -0.1133  0.0266  0.5256
 1323TIP3    H125384   4.443   1.805   0.550 -0.3019  0.8181  2.2829
 1323TIP3    H225385   4.329   1.821   0.451  0.4106 -1.2673  1.0709
 1324TIP3   OH225386   2.707   5.327   5.739 -0.3465  0.0092 -0.1838
 1324TIP3    H125387   2.712   5.309   5.833  2.8105  0.3841 -0.1752
 1324TIP3    H225388   2.741   5.247   5.698 -0.9523  0.1572 -0.9885
 1325TIP3   OH225389   6.593   0.067   5.618  0.6627 -0.2554 -0.6974
 1325TIP3    H125390   6.583   0.077   5.713 -2.4199  0.9048 -1.0224
 1325TIP3    H225391   6.585   0.156   5.584 -0.6213 -0.8834 -2.1480
 1326TIP3   OH225392   5.669   1.864  17.175 -0.0542 -0.7996  0.4984
 1326TIP3    H125393   5.608   1.806  17.129 -0.4714 -1.2524  1.5925
 1326TIP3    H225394   5.617   1.942  17.194  0.6135  0.1593 -1.3198
 1327TIP3   OH225395   3.389   3.255   5.098 -0.2461  0.5313  0.1170
 1327TIP3    H125396   3.473   3.250   5.054 -0.1493 -1.2365  0.4521
 1327TIP3    H225397   3.410   3.279   5.188  0.0073 -0.8897  0.4518
 1328TIP3   OH225398   5.537   4.444  12.174  0.3575 -0.1163 -0.0691
 1328TIP3    H125399   5.474   4.503  12.215 -0.5775  0.3829 -2.1280
 1328TIP3    H225400   5.593   4.502  12.122  0.4970 -0.8883 -0.7875
 1329TIP3   OH225401   2.172   3.554  14.480  0.3117  0.1606 -0.4101
 1329TIP3    H125402   2.105   3.561  14.412 -0.0836  1.1889  0.0528
 1329TIP3    H225403   2.124   3.522  14.557  0.7042 -0.7628 -0.5500
 1330TIP3   OH225404   1.173   5.782   2.749 -0.0157  0.2567  0.0936
 1330TIP3    H125405   1.134   5.837   2.680 -0.2055 -0.6995 -0.5807
 1330TIP3    H225406   1.184   5.696   2.708 -1.0403 -0.6091  1.5562
 1331TIP3   OH225407   0.268   1.211   0.156  0.6845  0.2596  0.2730
 1331TIP3    H125408   0.224   1.231   0.239  1.2897  0.8571  0.4643
 1331TIP3    H225409   0.202   1.228   0.089 -0.2707 -1.6175  0.6903
 1332TIP3   OH225410   5.901   0.594   0.383 -0.2892 -0.2692  0.7818
 1332TIP3    H125411   5.977   0.638   0.423 -0.9121 -0.4045  2.1761
 1332TIP3    H225412   5.939   0.524   0.330  0.5662 -0.8223  2.0697
 1333TIP3   OH225413   3.443   1.779  14.883 -0.5787 -0.3614 -0.0707
 1333TIP3    H125414   3.531   1.811  14.904 -0.7731  0.5443 -0.5641
 1333TIP3    H225415   3.399   1.772  14.967 -0.7959  1.5340  0.0121
 1334TIP3   OH225416   5.405   1.351  14.863  0.5208  0.3327  0.3109
 1334TIP3    H125417   5.407   1.256  14.853 -0.6416  0.1527  1.4379
 1334TIP3    H225418   5.321   1.368  14.906  0.3740  1.9492 -0.5545
 1335TIP3   OH225419   2.272   1.036  13.051 -0.3169  0.0899  0.0038
 1335TIP3    H125420   2.227   1.057  13.133  1.1412  2.1687  0.3497
 1335TIP3    H225421   2.307   0.949  13.065 -1.9360 -0.4908  0.7207
 1336TIP3   OH225422   6.336   6.294   2.474  0.2783 -0.1659 -0.3542
 1336TIP3    H125423   6.367   6.211   2.438  0.3632 -0.2489 -0.0925
 1336TIP3    H225424   6.307   6.273   2.563 -3.9302 -0.8757 -1.6658
 1337TIP3   OH225425   2.834   1.575   1.270 -1.0306  0.4261 -0.3315
 1337TIP3    H125426   2.870   1.530   1.194  0.6706  2.2933 -0.7021
 1337TIP3    H225427   2.876   1.660   1.270 -1.2182  0.6209  2.5397
 1338TIP3   OH225428   6.555   0.851   3.928  0.0656  0.0205  0.3432
 1338TIP3    H125429   6.611   0.831   3.853  0.5365  2.0106  0.1158
 1338TIP3    H225430   6.572   0.943   3.947 -0.1021 -0.3994  2.8653
 1339TIP3   OH225431   6.094   6.635   5.685  0.1359 -0.1088  0.1167
 1339TIP3    H125432   6.077   6.708   5.625  0.6259 -1.4234 -1.7280
 1339TIP3    H225433   6.028   6.644   5.753  0.9406  2.7407  0.6890
 1340TIP3   OH225434   2.789   5.389   1.755 -0.2123 -0.3334 -0.8168
 1340TIP3    H125435   2.838   5.469   1.772  1.3003 -1.3885  0.0947
 1340TIP3    H225436   2.785   5.344   1.839 -0.8301 -1.3098 -1.3395
 1341TIP3   OH225437   5.985   4.517  11.959 -0.2318 -0.4365 -0.7411
 1341TIP3    H125438   5.980   4.427  11.927 -3.2539 -0.5704 -0.2078
 1341TIP3    H225439   6.000   4.509  12.053 -2.3252 -0.5310 -0.3710
 1342TIP3   OH225440   4.002   6.273  12.080 -0.1439  1.1313  0.0687
 1342TIP3    H125441   3.929   6.213  12.092 -0.0865  1.3244  1.6324
 1342TIP3    H225442   3.967   6.341  12.022 -1.0827  1.0090  0.4609
 1343TIP3   OH225443   0.111   3.668   5.586  0.1393 -0.6313  0.0161
 1343TIP3    H125444   0.068   3.583   5.577  0.1836 -0.5317 -1.3938
 1343TIP3    H225445   0.044   3.726   5.623 -0.5807 -0.7743 -1.0191
 1344TIP3   OH225446   2.917   4.625  13.134  0.4803  0.0581  0.5644
 1344TIP3    H125447   2.844   4.564  13.145  0.4322 -0.3393 -1.4514
 1344TIP3    H225448   2.905   4.660  13.045  3.6297 -1.2733 -0.5271
 1345TIP3   OH225449   1.252   3.298  14.419  0.3367 -0.5206  0.5771
 1345TIP3    H125450   1.188   3.320  14.487 -0.3434 -0.6236 -0.0223
 1345TIP3    H225451   1.331   3.346  14.444 -0.3956  0.7245  0.5761
 1346TIP3   OH225452   5.286   5.956  11.006  0.0193 -0.4056 -0.0845
 1346TIP3    H125453   5.191   5.963  10.996  0.0434  1.8533  0.7528
 1346TIP3    H225454   5.316   6.046  11.017  2.3307 -1.0217 -0.7403
 1347TIP3   OH225455   5.791   5.025  17.053 -0.8981  0.0117  0.4411
 1347TIP3    H125456   5.857   5.059  16.992 -1.2221 -0.7553 -0.3669
 1347TIP3    H225457   5.828   5.038  17.140 -0.5329  1.3670  0.0957
 1348TIP3   OH225458   3.753   2.185   3.337 -0.0213 -0.9030  0.2895
 1348TIP3    H125459   3.695   2.119   3.299 -0.6467 -0.7507  0.9625
 1348TIP3    H225460   3.695   2.259   3.358  0.4629 -0.6419  0.7249
 1349TIP3   OH225461   6.068   2.472  15.770  0.7835 -0.3287 -0.3964
 1349TIP3    H125462   6.030   2.385  15.755 -0.3973  0.1527 -0.3625
 1349TIP3    H225463   6.067   2.513  15.684  1.4987 -0.4029 -0.4422
 1350TIP3   OH225464   5.442   0.288   0.414 -0.6248  0.1144 -0.2010
 1350TIP3    H125465   5.452   0.239   0.495  2.0591  0.6464 -0.1221
 1350TIP3    H225466   5.443   0.222   0.345  0.4828 -0.1515  0.0464
 1351TIP3   OH225467   0.480   4.016  13.610 -0.2185 -0.1325 -0.5716
 1351TIP3    H125468   0.552   4.022  13.673 -0.9273  1.5854  0.1286
 1351TIP3    H225469   0.490   4.093  13.554 -1.2650 -0.0844 -0.7177
 1352TIP3   OH225470   4.402   6.457   1.477 -0.3614 -0.1289  0.2065
 1352TIP3    H125471   4.493   6.484   1.468  0.9344 -2.8507  3.2635
 1352TIP3    H225472   4.401   6.364   1.455 -1.7748 -0.7963  2.6578
 1353TIP3   OH225473   6.681   4.672  12.847  0.2835 -0.4796  0.2971
 1353TIP3    H125474   6.620   4.741  12.820  1.5937  0.9339  0.7777
 1353TIP3    H225475   6.759   4.686  12.793  0.5213 -1.7164  0.2807
 1354TIP3   OH225476   0.971   4.358  14.670  0.0274  0.0362 -0.2072
 1354TIP3    H125477   1.018   4.438  14.696 -0.4025  0.6810 -1.3247
 1354TIP3    H225478   0.946   4.317  14.753  0.4392  0.9571  0.3951
 1355TIP3   OH225479   3.533   1.677   5.955  0.5444 -0.6839 -0.3537
 1355TIP3    H125480   3.470   1.645   6.019 -0.8359 -0.0172 -1.3371
 1355TIP3    H225481   3.549   1.603   5.897 -0.6030 -0.3861 -1.0646
 1356TIP3   OH225482   4.148   1.217   3.955  0.4262  0.3150  0.1311
 1356TIP3    H125483   4.214   1.219   3.886 -0.8138 -2.0967 -1.2556
 1356TIP3    H225484   4.167   1.138   4.005 -0.6370  0.2818  0.5193
 1357TIP3   OH225485   1.335   5.686   0.417  0.2594  0.4158 -0.2033
 1357TIP3    H125486   1.365   5.629   0.346  0.3807  0.5355 -0.2504
 1357TIP3    H225487   1.377   5.770   0.399  2.4606 -0.2196  1.4330
 1358TIP3   OH225488   2.654   2.713  12.397 -0.2408  0.2347 -1.0152
 1358TIP3    H125489   2.670   2.667  12.479 -0.8547  1.5218 -0.1493
 1358TIP3    H225490   2.603   2.651  12.344  0.5424 -0.7699 -0.6185
 1359TIP3   OH225491   0.939   4.306   5.853  0.1747  0.1602 -0.3673
 1359TIP3    H125492   0.994   4.378   5.884 -0.0433 -0.6826  2.1666
 1359TIP3    H225493   0.850   4.342   5.852  0.4405  0.9492 -2.6578
 1360TIP3   OH225494   5.797   5.442   2.905 -0.0980  0.3381  0.0155
 1360TIP3    H125495   5.864   5.498   2.865  0.3754  1.0898  1.7527
 1360TIP3    H225496   5.714   5.484   2.881 -0.1824 -1.4409 -3.4487
 1361TIP3   OH225497   5.605   2.321   5.387  0.0717  0.1335 -0.3383
 1361TIP3    H125498   5.616   2.225   5.392 -1.2250 -0.0482 -0.7295
 1361TIP3    H225499   5.655   2.346   5.309 -0.3774 -0.3651 -0.7957
 1362TIP3   OH225500   0.812   1.405   4.795  0.1928 -0.1718 -0.3310
 1362TIP3    H125501   0.728   1.403   4.749 -1.3996 -1.3332  2.3254
 1362TIP3    H225502   0.805   1.481   4.853  1.2689  0.1021 -0.5489
 1363TIP3   OH225503   3.347   6.666  16.404 -0.5150  0.4058  0.4116
 1363TIP3    H125504   3.397   6.599  16.358 -0.3408  0.4143  0.5903
 1363TIP3    H225505   3.404   6.743  16.404  0.4637 -0.2587  2.6833
 1364TIP3   OH225506   3.585   1.777  10.669  0.5770 -0.2181  0.4053
 1364TIP3    H125507   3.580   1.685  10.695  1.3458 -0.1541  0.8168
 1364TIP3    H225508   3.657   1.781  10.607  0.9984  0.2106  0.9038
 1365TIP3   OH225509   1.319   2.686  13.564 -0.3304  0.1851 -0.2591
 1365TIP3    H125510   1.382   2.634  13.613  1.1574 -0.1125 -2.3260
 1365TIP3    H225511   1.261   2.724  13.630  1.3375 -0.4280  1.6427
 1366TIP3   OH225512   6.358   3.690  15.946 -0.0659 -0.4624  0.1994
 1366TIP3    H125513   6.294   3.652  15.885  0.8038  0.0389 -1.0543
 1366TIP3    H225514   6.366   3.625  16.015 -1.2972 -0.9170 -0.0519
 1367TIP3   OH225515   2.100   2.655   2.509 -0.3567 -0.5337 -0.4199
 1367TIP3    H125516   2.084   2.585   2.571  0.6265  0.3543  0.9011
 1367TIP3    H225517   2.018   2.666   2.462 -1.1031 -1.2912  0.6789
 1368TIP3   OH225518   1.261   2.022   2.020  0.0001  0.0358  0.6494
 1368TIP3    H125519   1.337   2.022   1.963  0.6338 -0.7897  1.4653
 1368TIP3    H225520   1.297   2.014   2.109 -1.0560 -1.9901  0.9594
 1369TIP3   OH225521   3.639   0.769  15.708 -0.4081  0.2267  0.8008
 1369TIP3    H125522   3.709   0.777  15.644 -0.3319 -0.8162  0.7346
 1369TIP3    H225523   3.629   0.857  15.745  0.5259  0.5109  0.3907
 1370TIP3   OH225524   2.763   3.978   0.444 -0.2029 -0.7700 -0.7478
 1370TIP3    H125525   2.717   3.967   0.527  0.4884  1.5480  0.0079
 1370TIP3    H225526   2.697   3.958   0.377 -1.6713  0.2798  0.3320
 1371TIP3   OH225527   3.449   6.022   2.464 -0.0060 -0.0861 -0.3944
 1371TIP3    H125528   3.457   6.032   2.369 -1.7327 -1.6592 -0.7657
 1371TIP3    H225529   3.405   6.102   2.493  0.1641  0.2280 -0.9870
 1372TIP3   OH225530   6.534   6.451   4.594  0.5785 -0.4947 -0.7284
 1372TIP3    H125531   6.527   6.397   4.673  1.9352  1.0526  0.5260
 1372TIP3    H225532   6.618   6.426   4.555  0.8836  0.1643 -0.5214
 1373TIP3   OH225533   5.997   5.471   1.554 -0.2051 -0.3133  0.0264
 1373TIP3    H125534   6.026   5.512   1.473  0.1519 -0.7726 -0.0802
 1373TIP3    H225535   5.908   5.503   1.566  0.1963  0.8271  0.1618
 1374TIP3   OH225536   2.892   1.844   3.752  0.5703  0.0715 -0.2218
 1374TIP3    H125537   2.895   1.938   3.769  1.1116  0.3265 -1.6503
 1374TIP3    H225538   2.856   1.836   3.664 -1.2106 -1.1571  0.5389
 1375TIP3   OH225539   2.074   5.334   0.978  0.2274 -0.2288 -0.4291
 1375TIP3    H125540   2.166   5.360   0.980  0.7350 -1.8912  1.1107
 1375TIP3    H225541   2.027   5.412   1.008  1.3756 -0.0618  1.1043
 1376TIP3   OH225542   0.988   5.465  15.580 -0.3524 -0.6208 -0.3612
 1376TIP3    H125543   1.038   5.461  15.498  0.7058  3.2909 -0.0965
 1376TIP3    H225544   0.898   5.482  15.552 -0.1715 -0.2697 -0.7431
 1377TIP3   OH225545   3.948   3.196  14.387  0.5150  0.2391 -0.0264
 1377TIP3    H125546   3.939   3.216  14.294 -0.3196  0.5372  0.1094
 1377TIP3    H225547   3.909   3.272  14.432  1.1178  0.2077  0.5713
 1378TIP3   OH225548   2.311   5.969  11.994  0.2889 -0.6518 -0.4305
 1378TIP3    H125549   2.231   6.019  11.976  1.3724  1.4685  0.3150
 1378TIP3    H225550   2.279   5.888  12.036 -1.4478  0.5114  0.6566
 1379TIP3   OH225551   0.902   5.221  12.457 -0.2343  0.2346  0.1842
 1379TIP3    H125552   0.956   5.225  12.536 -0.5233  0.8626  0.3554
 1379TIP3    H225553   0.950   5.163  12.399 -0.0266 -0.2590  0.8302
 1380TIP3   OH225554   6.575   2.349  14.909 -0.9704  0.3232  0.4427
 1380TIP3    H125555   6.616   2.275  14.864 -0.5205  1.6117 -1.3759
 1380TIP3    H225556   6.647   2.393  14.954 -1.0397  0.3131  0.5637
 1381TIP3   OH225557   1.522   0.958  16.212  0.0863 -0.1429  0.6928
 1381TIP3    H125558   1.554   0.896  16.147  0.1791  3.1669 -2.7650
 1381TIP3    H225559   1.429   0.936  16.223  0.1099 -0.8967 -0.4194
 1382TIP3   OH225560   4.053   3.848  14.381 -0.0544  0.5198 -0.7934
 1382TIP3    H125561   4.134   3.825  14.336 -0.0989 -0.8555 -0.2269
 1382TIP3    H225562   3.984   3.810  14.327 -0.4333  2.4882 -1.7829
 1383TIP3   OH225563   5.638   1.350  15.714  0.2851  0.1601 -0.2327
 1383TIP3    H125564   5.669   1.424  15.661 -0.8810 -0.7514 -2.3206
 1383TIP3    H225565   5.546   1.369  15.731  0.5381  0.2223  1.1292
 1384TIP3   OH225566   1.985   6.559   1.685 -0.0783  0.0746  0.0688
 1384TIP3    H125567   2.063   6.537   1.633 -0.5031 -0.9631 -0.1543
 1384TIP3    H225568   2.012   6.541   1.775  0.5469  1.5493  0.2072
 1385TIP3   OH225569   3.686   5.075  16.302 -0.4562  0.3235 -0.0071
 1385TIP3    H125570   3.636   5.031  16.233  0.8771  0.2711 -0.9848
 1385TIP3    H225571   3.620   5.105  16.365 -1.4870 -2.1628  0.1855
 1386TIP3   OH225572   6.323   5.213   4.803  0.6967 -0.0587 -0.5497
 1386TIP3    H125573   6.379   5.135   4.798 -1.1615 -1.4422 -1.1244
 1386TIP3    H225574   6.349   5.265   4.727  1.3506 -0.5800 -0.6956
 1387TIP3   OH225575   0.762   2.732  14.868  0.1669 -0.9056 -0.5271
 1387TIP3    H125576   0.734   2.771  14.951 -3.5199 -0.9668 -1.5911
 1387TIP3    H225577   0.819   2.659  14.894 -1.8190 -1.6834  2.0585
 1388TIP3   OH225578   5.530   1.951   0.253  0.2795 -0.5884  0.0607
 1388TIP3    H125579   5.465   1.936   0.322  0.5353 -3.6185 -0.2545
 1388TIP3    H225580   5.490   2.019   0.198 -0.3807  1.1724  2.5286
 1389TIP3   OH225581   6.237   2.782   1.630 -0.6948  0.0819  0.1591
 1389TIP3    H125582   6.305   2.775   1.697  0.4329 -0.4399 -1.0014
 1389TIP3    H225583   6.285   2.797   1.548 -2.0272  0.6047 -0.5588
 1390TIP3   OH225584   1.231   6.026  15.024 -0.1014 -0.1166 -0.0517
 1390TIP3    H125585   1.245   5.950  15.080  0.2124  0.4210  0.6256
 1390TIP3    H225586   1.266   6.099  15.075 -1.2525  0.6149 -0.2731
 1391TIP3   OH225587   4.233   4.390   5.416  0.2372 -0.6686 -0.0420
 1391TIP3    H125588   4.248   4.427   5.329  0.6549 -0.6888  0.0223
 1391TIP3    H225589   4.192   4.462   5.465  2.4771  0.2703  0.5604
 1392TIP3   OH225590   0.207   0.793   0.240 -0.8362  0.2029 -0.1126
 1392TIP3    H125591   0.222   0.728   0.172 -0.3800  2.1660 -1.9678
 1392TIP3    H225592   0.162   0.745   0.310 -1.6556 -1.8008 -1.9273
 1393TIP3   OH225593   4.925   4.977   2.827  0.3734 -0.3088  0.3800
 1393TIP3    H125594   4.832   4.998   2.829  0.3071 -0.4274 -0.7926
 1393TIP3    H225595   4.966   5.044   2.881 -0.2097  0.7896 -0.4989
 1394TIP3   OH225596   1.504   0.295   2.209 -0.1879 -0.1548 -0.4173
 1394TIP3    H125597   1.562   0.232   2.253  2.0611  1.3331 -1.1212
 1394TIP3    H225598   1.492   0.365   2.274  0.2850  0.3763 -0.8889
 1395TIP3   OH225599   2.238   6.040  16.401 -0.5032  0.3136 -0.0974
 1395TIP3    H125600   2.155   6.000  16.428  0.4059 -0.9427  0.9824
 1395TIP3    H225601   2.299   5.967  16.396 -0.3191  0.4705 -5.0296
 1396TIP3   OH225602   2.583   4.739   4.457 -0.1013  0.0557  0.0362
 1396TIP3    H125603   2.568   4.688   4.378 -1.4433  2.4840 -1.3990
 1396TIP3    H225604   2.558   4.681   4.529 -1.2155 -1.4157 -1.4743
 1397TIP3   OH225605   0.709   2.909   0.266  0.1717 -0.0096 -0.3287
 1397TIP3    H125606   0.704   2.830   0.212 -0.0619  0.6339 -1.2691
 1397TIP3    H225607   0.667   2.977   0.213 -0.4164  0.5545  0.8366
 1398TIP3   OH225608   4.851   0.905  13.245  0.1877  0.6076  0.0944
 1398TIP3    H125609   4.778   0.876  13.190 -0.4451  2.9739 -0.4347
 1398TIP3    H225610   4.843   0.853  13.325 -1.1285 -0.2708 -0.5659
 1399TIP3   OH225611   6.417   6.390  13.153  0.3353 -0.0806  0.2983
 1399TIP3    H125612   6.397   6.369  13.062 -1.5724 -0.6545  0.8009
 1399TIP3    H225613   6.429   6.304  13.195  0.8479  0.1665  0.6649
 1400TIP3   OH225614   2.036   5.337   0.394  0.1259  0.0947  0.8715
 1400TIP3    H125615   2.022   5.306   0.305  1.6859 -1.7278  1.1930
 1400TIP3    H225616   1.960   5.307   0.443  0.1853 -0.6104  0.5408
 1401TIP3   OH225617   2.794   1.941   4.479  0.7277  0.0115  0.6980
 1401TIP3    H125618   2.870   1.994   4.454 -0.9554  2.0804 -0.3552
 1401TIP3    H225619   2.761   1.906   4.396 -1.6543  2.3702  0.4987
 1402TIP3   OH225620   1.171   2.649  15.280 -0.0388 -0.0770 -0.0663
 1402TIP3    H125621   1.211   2.566  15.254  0.8680  0.9821 -2.2902
 1402TIP3    H225622   1.122   2.677  15.203 -3.2621 -0.1638  1.7709
 1403TIP3   OH225623   1.195   2.351   0.586  0.0615 -0.3419 -0.3864
 1403TIP3    H125624   1.189   2.440   0.552  0.3369 -0.2639 -0.2318
 1403TIP3    H225625   1.244   2.359   0.668  1.0544 -0.7787 -0.9262
 1404TIP3   OH225626   5.282   6.089  15.273 -0.7107  0.5419 -0.3544
 1404TIP3    H125627   5.192   6.121  15.268 -0.3188  1.9677  0.9112
 1404TIP3    H225628   5.322   6.140  15.343  0.8537 -0.6692 -0.2974
 1405TIP3   OH225629   4.074   5.509   1.247  0.3715  0.3961  0.6939
 1405TIP3    H125630   4.111   5.571   1.311 -2.2014  0.7382  1.9824
 1405TIP3    H225631   4.056   5.430   1.298 -0.5810  0.2317  0.1331
 1406TIP3   OH225632   4.928   3.432   1.789 -0.3863  0.1168  0.5313
 1406TIP3    H125633   4.870   3.365   1.826  0.3619 -0.4384  0.7319
 1406TIP3    H225634   5.014   3.389   1.785  0.6578  1.7442  2.8316
 1407TIP3   OH225635   3.095   1.132  13.891 -0.2501 -0.2713  0.7582
 1407TIP3    H125636   3.175   1.086  13.917  0.2911  0.3910  0.3015
 1407TIP3    H225637   3.125   1.217  13.860 -1.1191 -0.0807  0.4022
 1408TIP3   OH225638   3.899   5.817   0.540  0.0346  0.7761 -0.0016
 1408TIP3    H125639   3.964   5.840   0.474  1.4313 -1.1777  0.5947
 1408TIP3    H225640   3.827   5.778   0.491  1.0297 -0.5977 -0.4306
 1409TIP3   OH225641   4.485   0.246  11.588 -0.5838  0.5479 -0.0360
 1409TIP3    H125642   4.581   0.252  11.590 -0.2867 -2.3874 -1.3499
 1409TIP3    H225643   4.461   0.280  11.501 -0.3037 -2.0702 -1.2270
 1410TIP3   OH225644   5.408   5.499  15.773  0.1234  0.6033 -0.3672
 1410TIP3    H125645   5.401   5.567  15.706 -0.5792  0.5411 -0.3688
 1410TIP3    H225646   5.390   5.545  15.855 -1.2334  0.2757 -0.4540
 1411TIP3   OH225647   2.374   3.897  16.754 -0.7411 -0.1658 -0.1890
 1411TIP3    H125648   2.395   3.903  16.661 -1.1837 -0.1429 -0.2898
 1411TIP3    H225649   2.336   3.983  16.775  1.0574  0.5233  0.4523
 1412TIP3   OH225650   1.998   1.731  17.233  0.2112 -0.2276  0.9650
 1412TIP3    H125651   2.075   1.674  17.237  0.1034 -0.3309  1.9857
 1412TIP3    H225652   1.958   1.722  17.320  1.5244  3.2126  2.1082
 1413TIP3   OH225653   3.668   2.089   4.793  0.2721  0.0138 -0.2342
 1413TIP3    H125654   3.600   2.082   4.861  1.2072 -0.6314  0.6727
 1413TIP3    H225655   3.620   2.111   4.713 -0.7704  1.6737  0.7991
 1414TIP3   OH225656   1.525   2.612   5.726  0.8623  0.3200 -0.6008
 1414TIP3    H125657   1.501   2.693   5.771 -0.1441  0.1344 -0.7738
 1414TIP3    H225658   1.590   2.571   5.782 -1.4350 -0.6565  1.5271
 1415TIP3   OH225659   3.001   3.320  16.458 -0.6189  0.1745  0.2442
 1415TIP3    H125660   2.920   3.284  16.421 -0.8449  0.8250  0.0899
 1415TIP3    H225661   3.049   3.243  16.490 -1.6541 -0.1633  1.0625
 1416TIP3   OH225662   0.834   6.212   5.714 -0.2682  0.1162  0.6392
 1416TIP3    H125663   0.882   6.175   5.640  1.6601  1.1544  1.2898
 1416TIP3    H225664   0.870   6.168   5.791 -2.5857 -1.3006  1.0193
 1417TIP3   OH225665   1.053   0.979  14.367 -0.6186 -0.8384 -0.0517
 1417TIP3    H125666   1.107   1.007  14.294 -0.6793  0.6094  0.4212
 1417TIP3    H225667   0.965   0.971  14.330 -0.9785  1.4841  0.1347
 1418TIP3   OH225668   3.838   5.849  13.070  0.0598 -0.0436  0.6536
 1418TIP3    H125669   3.748   5.819  13.055  0.3540 -1.2152  1.1024
 1418TIP3    H225670   3.873   5.786  13.133  1.1385  0.5162  0.6255
 1419TIP3   OH225671   1.004   5.361   0.695 -0.2386  0.3826 -0.1146
 1419TIP3    H125672   0.987   5.453   0.716 -1.0929 -0.0814  1.3550
 1419TIP3    H225673   0.976   5.313   0.773  2.1600 -0.9884 -0.0300
 1420TIP3   OH225674   6.153   5.619  16.992  0.3530  0.0621  0.2681
 1420TIP3    H125675   6.202   5.554  17.043  0.9266  2.0512  2.4313
 1420TIP3    H225676   6.063   5.612  17.023  0.6703  1.1556  1.5262
 1421TIP3   OH225677   5.512   2.945  16.569  0.2619  0.2433  0.4689
 1421TIP3    H125678   5.445   2.962  16.502  0.3883 -1.3822 -0.1193
 1421TIP3    H225679   5.588   2.916  16.519  0.9923  0.8035  1.2261
 1422TIP3   OH225680   4.617   5.216  14.221  0.1715  0.1675  0.2217
 1422TIP3    H125681   4.693   5.272  14.238  0.2007  0.0860  0.3659
 1422TIP3    H225682   4.567   5.220  14.302 -0.0935  0.4020  0.0440
 1423TIP3   OH225683   1.277   1.141  16.918  0.1134 -0.4503  0.2093
 1423TIP3    H125684   1.279   1.223  16.869 -1.8418 -0.4307  0.1052
 1423TIP3    H225685   1.369   1.122  16.937  0.5879  1.8317  0.3816
 1424TIP3   OH225686   0.505   5.738   4.903  0.0577  0.6418 -0.0718
 1424TIP3    H125687   0.483   5.799   4.832 -1.2219 -0.1257 -0.3632
 1424TIP3    H225688   0.500   5.790   4.983 -0.8115  0.9665 -0.3373
 1425TIP3   OH225689   2.361   5.670  13.044  0.4816  0.5375 -0.0833
 1425TIP3    H125690   2.271   5.637  13.043  0.9588 -0.8312  0.4085
 1425TIP3    H225691   2.361   5.740  12.979 -0.6319 -0.2720 -0.9960
 1426TIP3   OH225692   2.045   6.595   2.373  0.5940 -0.2860  0.5082
 1426TIP3    H125693   2.069   6.534   2.442  2.0059 -0.2088  0.1231
 1426TIP3    H225694   2.018   6.674   2.419  3.1007  0.3567  1.0415
 1427TIP3   OH225695   1.725   5.463  14.783 -0.4184  0.0495 -1.4012
 1427TIP3    H125696   1.780   5.541  14.785  0.0738 -0.2960 -0.9026
 1427TIP3    H225697   1.665   5.477  14.710 -1.7586  1.8401 -0.0510
 1428TIP3   OH225698   3.703   6.718   5.254 -0.1065 -0.0095 -0.2043
 1428TIP3    H125699   3.632   6.700   5.192 -3.1452  2.4585  2.1825
 1428TIP3    H225700   3.696   6.650   5.320 -1.2069  0.9272  0.6903
 1429TIP3   OH225701   3.979   6.314  13.331 -0.0712 -0.3994 -0.4336
 1429TIP3    H125702   3.966   6.233  13.282 -0.7958  0.4151 -1.6506
 1429TIP3    H225703   3.987   6.286  13.422 -1.1386 -1.7787 -0.7211
 1430TIP3   OH225704   0.665   3.968   5.856  0.0039  0.1805  0.5850
 1430TIP3    H125705   0.760   3.975   5.842  0.3387 -1.2656  1.9024
 1430TIP3    H225706   0.631   4.053   5.827  1.4832  0.1431 -1.4666
 1431TIP3   OH225707   1.738   5.801   2.463  0.2549  0.0887 -0.1304
 1431TIP3    H125708   1.775   5.715   2.481  1.4115  0.7887  1.0513
 1431TIP3    H225709   1.663   5.808   2.523  0.0605 -0.1548 -0.3443
 1432TIP3   OH225710   0.257   5.678   0.673  0.6166 -0.4098  0.0406
 1432TIP3    H125711   0.330   5.706   0.618  0.5286  0.6868  0.4572
 1432TIP3    H225712   0.235   5.755   0.726  1.2667 -1.6518  2.2532
 1433TIP3   OH225713   4.732   1.306  11.315  0.2486 -0.0295  0.3705
 1433TIP3    H125714   4.810   1.334  11.267  1.0887 -1.2162  0.9722
 1433TIP3    H225715   4.758   1.222  11.354 -1.4967 -0.6705  0.2015
 1434TIP3   OH225716   5.925   6.565   2.349  0.1051  0.5091  0.3797
 1434TIP3    H125717   5.843   6.586   2.393  0.0785  2.3433 -0.4599
 1434TIP3    H225718   5.973   6.512   2.413 -0.5255  1.8606  2.0535
 1435TIP3   OH225719   0.509   1.825  13.602  0.2576  0.3256 -0.1373
 1435TIP3    H125720   0.570   1.861  13.536 -0.4524  1.3219 -0.2715
 1435TIP3    H225721   0.424   1.827  13.559  0.3117 -2.5760 -0.5470
 1436TIP3   OH225722   1.207   4.150   4.602 -0.3212  0.3615  0.5852
 1436TIP3    H125723   1.118   4.126   4.575 -0.2127 -0.0785  0.6111
 1436TIP3    H225724   1.204   4.148   4.698  0.1948 -1.5109  0.6009
 1437TIP3   OH225725   0.212   4.411   4.125 -0.4445 -0.6490 -0.5798
 1437TIP3    H125726   0.161   4.346   4.076 -0.0484 -0.6978 -0.9399
 1437TIP3    H225727   0.185   4.495   4.088 -0.7311 -0.6304 -0.3275
 1438TIP3   OH225728   3.735   2.865   3.523 -0.2400  0.1421  1.0637
 1438TIP3    H125729   3.686   2.937   3.483  0.4394  1.5536  2.6257
 1438TIP3    H225730   3.702   2.863   3.613  1.1936 -0.1471  1.5963
 1439TIP3   OH225731   3.270   6.472   5.190  0.1440 -0.1764  0.4893
 1439TIP3    H125732   3.240   6.421   5.115  1.8033 -1.0359  0.3783
 1439TIP3    H225733   3.198   6.533   5.208 -0.2032  0.1785 -1.8869
 1440TIP3   OH225734   1.372   3.543  13.225 -0.5666  0.4364 -0.0267
 1440TIP3    H125735   1.314   3.616  13.245  1.7014  2.1858  0.6679
 1440TIP3    H225736   1.405   3.514  13.310  1.2237  1.0082 -0.4725
 1441TIP3   OH225737   2.545   1.293  13.332  0.1237 -0.6852  0.2106
 1441TIP3    H125738   2.452   1.307  13.353  0.0163  0.3350 -0.8556
 1441TIP3    H225739   2.587   1.377  13.352  0.4766 -0.5372 -1.0696
 1442TIP3   OH225740   1.676   0.546  11.522 -0.7747 -0.1200 -0.0885
 1442TIP3    H125741   1.642   0.579  11.605 -2.9815 -0.7024 -0.6934
 1442TIP3    H225742   1.607   0.565  11.459  0.7846  0.1362 -1.7725
 1443TIP3   OH225743   5.481   5.565  16.877 -0.6265 -0.5969 -0.0539
 1443TIP3    H125744   5.476   5.583  16.971 -0.3322  0.5166 -0.2352
 1443TIP3    H225745   5.514   5.476  16.871  0.0749 -0.4185  0.9007
 1444TIP3   OH225746   5.607   0.855  14.176  0.0794  0.7741 -0.3691
 1444TIP3    H125747   5.615   0.875  14.083  1.1823  1.3664 -0.1613
 1444TIP3    H225748   5.577   0.764  14.178 -0.4281  0.9017 -1.2949
 1445TIP3   OH225749   1.152   1.214   0.692 -0.1065 -0.4231 -0.1202
 1445TIP3    H125750   1.093   1.272   0.644  1.1801  0.2318 -0.9746
 1445TIP3    H225751   1.239   1.250   0.676  0.5734 -1.6010  0.7641
 1446TIP3   OH225752   4.056   0.352  13.432 -0.3072  0.0249  0.0254
 1446TIP3    H125753   4.088   0.359  13.522  3.5053  1.6024 -1.2429
 1446TIP3    H225754   4.091   0.269  13.400 -1.3430 -0.3551 -0.1748
 1447TIP3   OH225755   0.819   6.034   4.052 -0.1239  0.1530 -0.4474
 1447TIP3    H125756   0.831   6.123   4.019  0.7579 -0.5430 -2.1724
 1447TIP3    H225757   0.908   5.998   4.055 -0.4582 -0.6393  0.2840
 1448TIP3   OH225758   6.405   3.199   0.671  0.0406 -0.3542  0.2469
 1448TIP3    H125759   6.417   3.140   0.597 -2.1905  0.0492 -0.4911
 1448TIP3    H225760   6.362   3.276   0.634 -1.6162 -0.3597  2.0373
 1449TIP3   OH225761   0.218   2.641  14.786 -0.7699  0.2431  0.7702
 1449TIP3    H125762   0.136   2.609  14.748 -1.4046  1.9788  0.6181
 1449TIP3    H225763   0.247   2.709  14.725  1.5262 -1.2366  0.0870
 1450TIP3   OH225764   2.364   2.487  12.479 -0.0057 -0.2423 -0.0476
 1450TIP3    H125765   2.310   2.562  12.506 -0.5181 -0.3224 -0.8162
 1450TIP3    H225766   2.304   2.413  12.481 -0.2028 -0.1881 -1.7714
 1451TIP3   OH225767   3.397   5.450   2.298  0.0683 -0.5350 -0.2391
 1451TIP3    H125768   3.488   5.480   2.287  0.4666 -1.3413  0.6925
 1451TIP3    H225769   3.401   5.390   2.372 -1.7732  1.8455  1.9758
 1452TIP3   OH225770   5.295   4.983   1.900  0.0185  0.5868 -0.4450
 1452TIP3    H125771   5.332   5.071   1.897 -1.2387  1.1279 -0.5025
 1452TIP3    H225772   5.201   4.996   1.893 -0.1702 -0.7832 -0.7667
 1453TIP3   OH225773   1.989   5.423  10.816  0.0288 -0.0449  0.5481
 1453TIP3    H125774   2.033   5.340  10.834  0.2300  0.1630  1.0305
 1453TIP3    H225775   2.058   5.489  10.824 -0.3869  0.3036  1.4626
 1454TIP3   OH225776   6.647   4.518   5.073  0.1938  0.3346 -0.1609
 1454TIP3    H125777   6.634   4.430   5.109  0.5999  0.1036 -0.5623
 1454TIP3    H225778   6.738   4.519   5.045 -0.0788  0.5341 -1.0876
 1455TIP3   OH225779   6.123   5.896   2.476  0.6481 -0.2587 -0.0793
 1455TIP3    H125780   6.092   5.823   2.422  0.0506  1.1384 -1.6876
 1455TIP3    H225781   6.219   5.886   2.476  0.8487  0.7489 -3.0531
 1456TIP3   OH225782   3.923   4.370  13.150 -1.1720 -0.0928  0.0293
 1456TIP3    H125783   3.943   4.448  13.099  0.6030 -0.2677  0.3949
 1456TIP3    H225784   4.005   4.320  13.151 -1.8065 -1.1824  1.1523
 1457TIP3   OH225785   2.382   1.004  12.202 -0.1249 -0.1285 -0.2804
 1457TIP3    H125786   2.324   0.961  12.264 -0.4136  1.5364  0.6723
 1457TIP3    H225787   2.458   1.030  12.254 -0.3180  1.1974 -0.6075
 1458TIP3   OH225788   4.651   2.544   4.546  0.4235 -0.6698  0.1481
 1458TIP3    H125789   4.592   2.483   4.589 -0.4714 -0.4231 -0.6685
 1458TIP3    H225790   4.679   2.499   4.466 -1.1073  0.3434 -1.0228
 1459TIP3   OH225791   6.738   4.490  11.197 -0.3749 -0.2337 -0.3403
 1459TIP3    H125792   6.663   4.439  11.166  0.4253 -1.4164 -0.4032
 1459TIP3    H225793   6.753   4.459  11.286 -2.3959  2.8466  1.2703
 1460TIP3   OH225794   5.808   4.776   1.555  0.2624 -0.2208  0.3174
 1460TIP3    H125795   5.777   4.740   1.638  0.5374  0.0815  0.5551
 1460TIP3    H225796   5.904   4.777   1.563  0.2773  0.1371  0.1370
 1461TIP3   OH225797   1.450   2.197   4.910  0.2142 -0.3753  1.0314
 1461TIP3    H125798   1.516   2.145   4.956 -1.8523  0.1516  5.0355
 1461TIP3    H225799   1.439   2.275   4.964 -2.4750  0.3420 -0.3654
 1462TIP3   OH225800   3.251   3.771  11.616  0.1299 -0.7368 -0.2171
 1462TIP3    H125801   3.294   3.829  11.553 -0.4294 -0.1459 -0.0671
 1462TIP3    H225802   3.174   3.738  11.570  0.2465 -1.0704 -0.1746
 1463TIP3   OH225803   4.388   2.735   1.712  0.2343  0.1540  0.4557
 1463TIP3    H125804   4.329   2.659   1.714  1.2436 -0.7144 -0.9245
 1463TIP3    H225805   4.402   2.757   1.804  0.1994 -1.5720  0.9053
 1464TIP3   OH225806   6.736   0.495   4.023 -0.1702 -0.3551  0.3243
 1464TIP3    H125807   6.786   0.567   4.064  0.6401 -1.5757  1.6006
 1464TIP3    H225808   6.761   0.418   4.074 -0.9266 -1.5701 -1.0833
 1465TIP3   OH225809   0.168   3.266  11.291  0.4371 -0.3177 -0.1800
 1465TIP3    H125810   0.167   3.345  11.345  0.8207 -2.3921  3.1707
 1465TIP3    H225811   0.077   3.251  11.267  0.0405  0.0397  1.0245
 1466TIP3   OH225812   3.713   0.735  11.474 -0.0038 -0.2306  0.3189
 1466TIP3    H125813   3.648   0.798  11.442  0.4023  0.9280  1.7028
 1466TIP3    H225814   3.661   0.666  11.515 -0.4109 -0.1679 -0.0784
 1467TIP3   OH225815   3.261   2.732  11.392  0.0239  1.0288 -0.6394
 1467TIP3    H125816   3.316   2.699  11.464 -0.5778  0.6516 -0.3450
 1467TIP3    H225817   3.315   2.798  11.349  0.3355  1.3799  0.2631
 1468TIP3   OH225818   4.629   4.108   5.498 -0.0026 -0.4536 -0.5153
 1468TIP3    H125819   4.713   4.148   5.521 -0.4624  0.3292 -0.1723
 1468TIP3    H225820   4.565   4.179   5.507 -0.9300 -1.4092  0.6892
 1469TIP3   OH225821   5.778   4.435   3.493  0.2192  0.3945  0.2016
 1469TIP3    H125822   5.695   4.412   3.534 -0.7358  0.1787 -1.7703
 1469TIP3    H225823   5.844   4.416   3.561 -1.2159 -0.5628  1.3855
 1470TIP3   OH225824   1.769   6.543  12.070  0.7169  0.9358 -0.4589
 1470TIP3    H125825   1.783   6.544  12.164  1.6918  3.3020 -0.5646
 1470TIP3    H225826   1.828   6.475  12.038 -1.0222 -1.2707  0.7325
 1471TIP3   OH225827   0.822   0.891  13.792 -0.0678  0.4432  0.3425
 1471TIP3    H125828   0.741   0.842  13.775 -0.6851  1.5535 -0.0720
 1471TIP3    H225829   0.792   0.980  13.808  1.1119  0.9529 -0.1575
 1472TIP3   OH225830   2.343   6.677  15.815 -0.2750  0.6219  0.3776
 1472TIP3    H125831   2.385   6.735  15.751 -1.4971  0.4366 -0.6457
 1472TIP3    H225832   2.272   6.730  15.851 -2.1220 -0.5271 -1.3962
 1473TIP3   OH225833   5.273   2.474   1.805 -0.1909  0.7285  0.1195
 1473TIP3    H125834   5.325   2.408   1.760 -1.1506 -0.9028  1.2817
 1473TIP3    H225835   5.189   2.476   1.759 -0.8629 -0.3234  1.2229
 1474TIP3   OH225836   5.842   6.401  15.211 -0.4315 -0.2363  0.1949
 1474TIP3    H125837   5.926   6.447  15.224 -1.1085  1.4114 -0.8793
 1474TIP3    H225838   5.849   6.365  15.122 -0.3588 -1.2652  0.6091
 1475TIP3   OH225839   0.839   3.994  11.698 -0.0745  0.2113 -0.1806
 1475TIP3    H125840   0.852   4.049  11.620 -0.0339  0.3540 -0.0717
 1475TIP3    H225841   0.813   3.909  11.662  1.7624 -0.2772 -0.4282
 1476TIP3   OH225842   0.362   3.861   2.851  0.7490  0.5384  0.0079
 1476TIP3    H125843   0.443   3.900   2.884  1.6587  0.3279 -1.8516
 1476TIP3    H225844   0.298   3.932   2.854  1.4617  1.1966 -0.0663
 1477TIP3   OH225845   1.118   4.001   1.543 -0.5117  0.1897  0.6736
 1477TIP3    H125846   1.044   4.015   1.484 -0.2766  2.0361  0.7769
 1477TIP3    H225847   1.086   3.938   1.607 -1.8081  0.5292  0.3816
 1478TIP3   OH225848   4.303   0.475   4.701  0.7900  0.1330 -0.0435
 1478TIP3    H125849   4.283   0.392   4.744  0.7158  0.0883 -0.1657
 1478TIP3    H225850   4.274   0.464   4.611 -1.1053  0.9731  0.4104
 1479TIP3   OH225851   3.090   5.263  17.005 -1.0981  0.2574  0.3192
 1479TIP3    H125852   3.145   5.315  17.063  0.7034  0.0612 -1.1078
 1479TIP3    H225853   3.039   5.208  17.064 -0.2255  0.8981  1.7443
 1480TIP3   OH225854   1.190   0.388   3.700  0.1583  0.0385 -0.2567
 1480TIP3    H125855   1.095   0.398   3.701  0.1433 -0.1214 -0.1118
 1480TIP3    H225856   1.210   0.335   3.777  0.3942  0.3233 -0.1178
 1481TIP3   OH225857   6.023   5.159  16.982 -0.0142  0.4738 -0.1751
 1481TIP3    H125858   6.103   5.207  16.960 -0.7994  1.7766 -0.3252
 1481TIP3    H225859   6.001   5.112  16.903  0.7650 -0.1626 -0.0328
 1482TIP3   OH225860   2.082   1.961  13.124  0.0331 -0.2657  0.2697
 1482TIP3    H125861   2.109   2.034  13.180 -2.4412  0.4431  0.6774
 1482TIP3    H225862   2.085   1.885  13.182  3.5118 -0.8082 -0.3928
 1483TIP3   OH225863   5.665   2.910  13.408 -0.2434  0.2684  0.1041
 1483TIP3    H125864   5.597   2.855  13.369 -1.4089  0.2478  2.0421
 1483TIP3    H225865   5.707   2.855  13.473  0.4590  0.8355  0.1467
 1484TIP3   OH225866   2.958   3.836  12.444  0.3861  0.3660 -0.5732
 1484TIP3    H125867   2.997   3.799  12.524  0.9339 -0.4323 -1.1962
 1484TIP3    H225868   3.033   3.874  12.397  0.2758 -0.3666 -1.3453
 1485TIP3   OH225869   5.434   5.748  10.813  0.4233  0.5374  0.0549
 1485TIP3    H125870   5.433   5.788  10.900 -0.5707 -0.2527  0.4205
 1485TIP3    H225871   5.354   5.780  10.771  0.8429  0.8271 -0.5402
 1486TIP3   OH225872   2.659   1.328   3.594 -0.4664  0.2246  0.5900
 1486TIP3    H125873   2.692   1.341   3.683  0.1715 -2.3968  0.8103
 1486TIP3    H225874   2.598   1.254   3.602  0.0310 -0.4195 -1.2194
 1487TIP3   OH225875   4.337   2.811  13.560  0.8650 -0.8690  0.2382
 1487TIP3    H125876   4.406   2.873  13.536  1.0353 -1.0222  0.3319
 1487TIP3    H225877   4.317   2.832  13.651 -1.4474  1.3172 -0.6450
 1488TIP3   OH225878   3.935   2.881  15.689 -0.1881  0.6959  0.0880
 1488TIP3    H125879   3.978   2.933  15.757  1.3634 -0.7384  0.2512
 1488TIP3    H225880   3.877   2.822  15.737  0.8641 -0.2768  0.1988
 1489TIP3   OH225881   6.762   2.764  14.378  0.2273  0.4856 -0.2544
 1489TIP3    H125882   6.813   2.844  14.371  1.4795 -0.2993 -0.5260
 1489TIP3    H225883   6.819   2.696  14.341  0.6505 -1.1535  3.0215
 1490TIP3   OH225884   3.998   5.157   4.837 -0.2089  0.1789  0.4024
 1490TIP3    H125885   4.042   5.221   4.893  0.0008  0.1788  0.2416
 1490TIP3    H225886   4.067   5.094   4.816 -0.3050  0.1419  0.2021
 1491TIP3   OH225887   5.677   6.304  11.943 -0.3629 -0.4987 -0.6414
 1491TIP3    H125888   5.772   6.292  11.947 -0.1825  1.0262  0.5315
 1491TIP3    H225889   5.642   6.219  11.971  0.7058 -0.5197  0.7930
 1492TIP3   OH225890   6.540   3.741  14.593  0.0100 -0.2337  0.3113
 1492TIP3    H125891   6.616   3.697  14.555 -0.0816 -0.5652  0.5114
 1492TIP3    H225892   6.533   3.705  14.681 -1.1283 -1.1546 -0.1281
 1493TIP3   OH225893   6.549   0.622   5.274 -0.0570 -0.5884  0.2007
 1493TIP3    H125894   6.474   0.575   5.310  0.1810 -0.4589  0.8615
 1493TIP3    H225895   6.568   0.576   5.192  0.0055 -1.4816  0.7069
 1494TIP3   OH225896   3.715   3.781   1.361 -0.2343  0.3592  0.0976
 1494TIP3    H125897   3.729   3.812   1.451 -0.8989  1.7612 -0.2516
 1494TIP3    H225898   3.667   3.699   1.372  2.0791 -0.9581  1.0724
 1495TIP3   OH225899   5.134   1.692   4.351  0.2722  0.8839 -0.1425
 1495TIP3    H125900   5.173   1.690   4.263 -2.0044 -0.3148 -1.2097
 1495TIP3    H225901   5.060   1.632   4.346  0.5495  0.1399  2.8860
 1496TIP3   OH225902   3.276   1.002  17.200 -0.0285  0.1289 -0.3901
 1496TIP3    H125903   3.249   0.923  17.245 -1.4421  0.3670 -0.7633
 1496TIP3    H225904   3.269   0.980  17.107  1.6491  0.0323 -0.5160
 1497TIP3   OH225905   6.137   5.901   4.937  0.1016 -0.0315  0.6293
 1497TIP3    H125906   6.103   5.955   5.008  0.1535  1.2192 -0.2711
 1497TIP3    H225907   6.079   5.919   4.863  0.8924 -0.2132 -0.0510
 1498TIP3   OH225908   4.451   3.102  16.672  0.6378  0.1184  0.0220
 1498TIP3    H125909   4.456   3.114  16.767 -1.0152 -1.3866  0.3462
 1498TIP3    H225910   4.496   3.019  16.655  0.2309 -0.0264 -0.3934
 1499TIP3   OH225911   1.064   5.584   5.306 -0.3401 -0.4628 -0.3384
 1499TIP3    H125912   1.024   5.516   5.360 -1.5932 -0.9456 -1.7848
 1499TIP3    H225913   0.989   5.637   5.277  0.4879  0.7983 -0.2396
 1500TIP3   OH225914   0.890   2.764   3.436  0.5438 -0.0459  0.2038
 1500TIP3    H125915   0.873   2.734   3.347 -1.1711 -1.5927  0.9777
 1500TIP3    H225916   0.806   2.756   3.481  0.9472  2.2967  1.5540
 1501TIP3   OH225917   2.012   5.182  15.105 -0.0432 -0.1917  0.0705
 1501TIP3    H125918   1.969   5.223  15.030  0.5997 -0.8370 -0.6611
 1501TIP3    H225919   2.101   5.218  15.104 -0.2345  0.3377  0.9536
 1502TIP3   OH225920   6.296   4.489  14.091  0.1956  0.2330  0.6309
 1502TIP3    H125921   6.204   4.469  14.073  0.3444 -1.2963  1.4209
 1502TIP3    H225922   6.343   4.453  14.016  0.0501  2.9587 -0.9076
 1503TIP3   OH225923   1.036   0.910  14.050 -0.2930  0.2782 -0.5213
 1503TIP3    H125924   0.950   0.914  14.092 -0.3563 -1.8097 -0.3424
 1503TIP3    H225925   1.019   0.868  13.965  0.6438 -1.1389 -0.0532
 1504TIP3   OH225926   3.939   3.257  11.437 -0.0464 -0.1029 -0.0708
 1504TIP3    H125927   3.976   3.338  11.403  0.7173 -0.3694  0.1023
 1504TIP3    H225928   3.905   3.211  11.360 -2.0734  1.1416  0.0169
 1505TIP3   OH225929   4.761   2.363   6.269  0.1370  0.0737 -0.3925
 1505TIP3    H125930   4.748   2.437   6.328 -0.0305  0.5503 -1.0213
 1505TIP3    H225931   4.700   2.296   6.301 -0.4187  0.5609 -0.4105
 1506TIP3   OH225932   4.084   5.752   3.449 -0.5289 -0.3142  0.6437
 1506TIP3    H125933   4.089   5.657   3.460 -0.6336 -0.2004  1.8639
 1506TIP3    H225934   4.081   5.766   3.355  1.7987 -1.4105  0.3355
 1507TIP3   OH225935   5.737   0.667   0.576 -0.4897 -0.0816 -0.7650
 1507TIP3    H125936   5.664   0.607   0.585 -2.3556  1.8076 -2.2707
 1507TIP3    H225937   5.794   0.626   0.510  0.1153 -1.7597  0.7194
 1508TIP3   OH225938   2.188   6.493   3.998  0.0683  0.5823 -0.2908
 1508TIP3    H125939   2.167   6.518   3.908 -0.7725  2.7485  0.4392
 1508TIP3    H225940   2.104   6.487   4.042  0.5031  0.2363  0.5249
 1509TIP3   OH225941   0.216   5.404   3.920 -0.1207  0.1000  0.1086
 1509TIP3    H125942   0.234   5.480   3.864  2.1226  0.3856  1.1266
 1509TIP3    H225943   0.131   5.372   3.890 -0.2113  1.8275 -1.6642
 1510TIP3   OH225944   3.955   5.992   4.238  0.9551  0.8034  0.1191
 1510TIP3    H125945   3.874   6.000   4.188  0.7627  0.4568  0.3714
 1510TIP3    H225946   4.023   6.029   4.181  0.9436 -0.6606 -0.8875
 1511TIP3   OH225947   5.469   4.564  14.776  0.5143 -0.3472  0.0857
 1511TIP3    H125948   5.442   4.550  14.867 -0.4746  0.2160 -0.1053
 1511TIP3    H225949   5.540   4.628  14.782  0.7799 -0.6722  0.4890
 1512TIP3   OH225950   2.995   0.089  17.237 -0.0043  0.3800 -0.4021
 1512TIP3    H125951   3.023   0.084  17.328  1.4865  0.4158 -0.8312
 1512TIP3    H225952   2.979  -0.002  17.211 -1.1295  0.4226  0.0754
 1513TIP3   OH225953   0.388   2.143  16.733  0.3859 -0.1863 -0.4839
 1513TIP3    H125954   0.345   2.169  16.652  0.6601 -0.8526 -0.8576
 1513TIP3    H225955   0.319   2.102  16.784  0.1564  0.4559 -0.2691
 1514TIP3   OH225956   4.951   4.806  13.958  0.6706  0.1164 -0.4264
 1514TIP3    H125957   4.943   4.893  13.919 -1.4993  1.2457  2.2175
 1514TIP3    H225958   4.920   4.747  13.890  2.3134  1.3162 -2.3429
 1515TIP3   OH225959   2.620   3.067  15.220  0.3446 -0.6837  0.4447
 1515TIP3    H125960   2.662   3.150  15.197 -0.9691 -0.0400  0.2828
 1515TIP3    H225961   2.544   3.062  15.163 -0.1073 -1.5609  1.1029
 1516TIP3   OH225962   3.354   0.178  16.695 -0.1488 -0.2500  0.4090
 1516TIP3    H125963   3.276   0.190  16.748  0.2821  0.8061  0.8414
 1516TIP3    H225964   3.387   0.091  16.719  1.3193  1.0439  3.7152
 1517TIP3   OH225965   1.533   4.900  11.138  0.4563 -0.1773 -0.1331
 1517TIP3    H125966   1.571   4.987  11.137 -1.6362  0.7836 -0.2554
 1517TIP3    H225967   1.494   4.891  11.224  1.0575 -1.2065  0.0518
 1518TIP3   OH225968   0.193   4.019   3.151 -0.7563  0.0398  0.0642
 1518TIP3    H125969   0.174   4.022   3.057 -0.9713 -0.3569  0.0906
 1518TIP3    H225970   0.205   3.925   3.169  2.0230  0.2538 -0.1186
 1519TIP3   OH225971   1.308   1.748   3.861  0.4713  0.2867  0.2072
 1519TIP3    H125972   1.328   1.678   3.799  0.4301  0.4553  0.0023
 1519TIP3    H225973   1.316   1.707   3.947 -1.0392 -0.3741  0.0588
 1520TIP3   OH225974   5.987   3.238   4.727  0.2133  0.4369  0.1202
 1520TIP3    H125975   6.073   3.250   4.768  0.7098 -0.6598 -0.5659
 1520TIP3    H225976   6.007   3.212   4.637 -0.8459  0.1413 -0.0367
 1521TIP3   OH225977   3.493   2.873   2.200  0.0758  0.0625 -0.2278
 1521TIP3    H125978   3.529   2.942   2.145 -0.2422 -0.3550 -0.9681
 1521TIP3    H225979   3.569   2.817   2.221 -0.0142 -0.4953 -1.3107
 1522TIP3   OH225980   2.594   5.058   2.974  0.0231 -0.5786 -0.3271
 1522TIP3    H125981   2.525   4.994   2.959  0.3877 -1.1165  0.2470
 1522TIP3    H225982   2.674   5.005   2.979  0.0125 -0.5075  3.3192
 1523TIP3   OH225983   0.888   3.317   2.802 -0.2320 -0.1639 -0.6737
 1523TIP3    H125984   0.842   3.235   2.819  1.7566 -1.4116 -0.9667
 1523TIP3    H225985   0.948   3.296   2.730  0.1861  1.6097 -0.8932
 1524TIP3   OH225986   1.682   1.620   3.962 -0.1427 -0.2497 -0.1290
 1524TIP3    H125987   1.748   1.688   3.950 -0.2429 -0.0762  0.2877
 1524TIP3    H225988   1.607   1.666   4.000 -1.8530  0.2939 -3.6615
 1525TIP3   OH225989   1.201   5.750  11.512 -0.2586 -0.2412  0.3274
 1525TIP3    H125990   1.111   5.774  11.488 -0.5727 -0.5440  1.1404
 1525TIP3    H225991   1.224   5.814  11.580  1.2442  1.7159 -1.8599
 1526TIP3   OH225992   5.878   5.640   0.522  0.0434 -0.3882  0.3536
 1526TIP3    H125993   5.946   5.625   0.587  0.0140 -1.1262  0.2206
 1526TIP3    H225994   5.899   5.725   0.485 -0.7513  0.7503  2.3249
 1527TIP3   OH225995   1.184   3.660   2.319 -0.0268  0.1673 -0.1993
 1527TIP3    H125996   1.089   3.664   2.316 -0.0475 -0.6835 -1.2639
 1527TIP3    H225997   1.210   3.736   2.371 -1.1994  1.3074 -1.2303
 1528TIP3   OH225998   2.137   3.596   4.885  0.3834 -0.5771 -0.7292
 1528TIP3    H125999   2.211   3.619   4.941 -0.0321 -0.0065 -0.4043
 1528TIP3    H226000   2.126   3.672   4.827  0.8196 -1.1642 -1.6060
 1529TIP3   OH226001   6.780   6.113  12.270 -0.1648 -0.3729  0.0491
 1529TIP3    H126002   6.810   6.203  12.282  0.5041 -0.3616 -1.4598
 1529TIP3    H226003   6.854   6.069  12.228 -0.7461 -1.4432  0.1238
 1530TIP3   OH226004   4.318   4.389   0.865 -0.1837 -0.2053 -0.3604
 1530TIP3    H126005   4.413   4.382   0.862 -0.3212 -2.6676 -2.3492
 1530TIP3    H226006   4.300   4.481   0.847  1.7901  0.4523  0.7209
 1531TIP3   OH226007   5.746   2.020   5.519 -0.6071  0.1306 -0.1773
 1531TIP3    H126008   5.816   2.081   5.540 -0.1327 -0.2947 -0.4905
 1531TIP3    H226009   5.783   1.964   5.451 -0.9624 -0.6296  0.2437
 1532TIP3   OH226010   2.935   1.574   3.280  0.7032  0.4322 -0.2049
 1532TIP3    H126011   2.970   1.513   3.216  1.5914 -2.3181  2.6883
 1532TIP3    H226012   3.008   1.632   3.301  0.3858  1.4029 -1.6004
 1533TIP3   OH226013   1.276   6.393  11.904  0.4576  0.4141  0.0032
 1533TIP3    H126014   1.250   6.417  11.815  0.9140  0.8920 -0.0036
 1533TIP3    H226015   1.362   6.433  11.916  0.4735  0.2134  0.6012
 1534TIP3   OH226016   2.558   4.090  13.605 -0.3158  0.2617 -0.0551
 1534TIP3    H126017   2.549   4.185  13.602  1.8949  0.5180  0.1015
 1534TIP3    H226018   2.549   4.063  13.514  0.1076  0.7455 -0.2461
 1535TIP3   OH226019   0.652   5.305  12.139  0.3555  0.5137 -0.2537
 1535TIP3    H126020   0.648   5.329  12.232  2.8385 -0.5928  0.2434
 1535TIP3    H226021   0.635   5.211  12.138  0.8717  0.4213 -0.8362
 1536TIP3   OH226022   3.002   1.979  11.016  0.2112  0.1779 -0.2571
 1536TIP3    H126023   2.964   1.923  11.084 -2.0860  1.0189 -0.7404
 1536TIP3    H226024   3.057   2.040  11.064 -0.1164 -0.2390  0.6806
 1537TIP3   OH226025   3.188   1.627  15.563  0.3230  0.7854  0.4867
 1537TIP3    H126026   3.258   1.584  15.611  0.0139 -1.6143 -1.0573
 1537TIP3    H226027   3.152   1.559  15.506 -0.6244  2.9536 -1.6827
 1538TIP3   OH226028   4.656   1.636   3.292 -0.6156 -0.0634 -0.6103
 1538TIP3    H126029   4.744   1.609   3.318 -0.5391 -0.8694 -1.6791
 1538TIP3    H226030   4.606   1.633   3.373  0.6280  1.7659  0.3230
 1539TIP3   OH226031   6.767   5.211   2.874 -0.4278 -0.4597 -0.2653
 1539TIP3    H126032   6.687   5.241   2.830  0.3172 -2.5786 -3.3403
 1539TIP3    H226033   6.802   5.290   2.915 -3.5553  0.7311  0.4728
 1540TIP3   OH226034   1.912   1.314   5.335 -0.3164 -0.1608  0.5049
 1540TIP3    H126035   1.959   1.230   5.336 -1.3415 -0.7592 -0.0978
 1540TIP3    H226036   1.913   1.341   5.243  0.7876  0.9646  0.8169
 1541TIP3   OH226037   3.707   4.635  11.689 -0.1005  0.3277 -0.0574
 1541TIP3    H126038   3.656   4.643  11.609  0.4042  1.0240 -0.3187
 1541TIP3    H226039   3.642   4.636  11.759 -0.6379 -1.3916 -0.4788
 1542TIP3   OH226040   2.383   4.107   6.072 -0.0639  0.5615  0.3882
 1542TIP3    H126041   2.296   4.099   6.110 -0.3459 -0.8110 -0.4650
 1542TIP3    H226042   2.426   4.175   6.124 -1.6780  1.3740  0.7392
 1543TIP3   OH226043   0.410   2.129  13.418  0.1188 -0.1545 -0.4706
 1543TIP3    H126044   0.491   2.179  13.431 -0.1668  0.2723 -0.2840
 1543TIP3    H226045   0.347   2.171  13.477 -0.7232  0.6665 -1.9095
 1544TIP3   OH226046   1.896   0.815   2.266  0.2850  0.2538 -0.0727
 1544TIP3    H126047   1.869   0.846   2.353  0.6727  0.6667 -0.0977
 1544TIP3    H226048   1.940   0.731   2.284  1.3280  0.8573  0.2523
 1545TIP3   OH226049   4.814   1.238   4.037 -0.2514  0.1735 -0.0110
 1545TIP3    H126050   4.870   1.281   4.102  3.1729  0.5857 -2.8660
 1545TIP3    H226051   4.826   1.145   4.053  2.6019  0.1948 -1.3424
 1546TIP3   OH226052   5.293   2.477  14.170 -0.5906  0.6862  0.4853
 1546TIP3    H126053   5.374   2.527  14.180 -0.0902  0.6505 -2.5022
 1546TIP3    H226054   5.240   2.502  14.245  1.2914  2.4480  1.3297
 1547TIP3   OH226055   2.632   1.141  13.588 -0.0842 -0.2919  0.3934
 1547TIP3    H126056   2.561   1.199  13.619 -1.2140 -2.3269  1.8365
 1547TIP3    H226057   2.609   1.055  13.622  1.5533 -1.6321 -1.6547
 1548TIP3   OH226058   1.000   0.348  17.003 -0.1604  0.1890  0.2689
 1548TIP3    H126059   0.937   0.365  17.073  0.2077  0.4123  0.5558
 1548TIP3    H226060   1.009   0.253  17.002  0.1284  0.2051  0.8025
 1549TIP3   OH226061   3.081   2.090   1.962 -0.1434  0.0388  0.4025
 1549TIP3    H126062   3.065   2.119   2.052 -0.0750 -1.3417  0.8783
 1549TIP3    H226063   3.016   2.022   1.946 -1.1221  1.2711 -1.1335
 1550TIP3   OH226064   3.894   5.457  13.175  0.1597  0.6005 -0.3466
 1550TIP3    H126065   3.955   5.531  13.175 -0.7153  1.3333 -0.4905
 1550TIP3    H226066   3.854   5.459  13.088 -1.2996  1.1748  0.3100
 1551TIP3   OH226067   4.377   3.867  16.096  0.3436  0.4568 -0.6434
 1551TIP3    H126068   4.437   3.884  16.023  0.8492  1.7561  0.0439
 1551TIP3    H226069   4.293   3.848  16.054  1.1379 -1.1281 -1.6153
 1552TIP3   OH226070   0.138   3.339  16.684 -0.4212  0.2721 -0.3916
 1552TIP3    H126071   0.132   3.294  16.768  0.4169  0.6901 -0.0974
 1552TIP3    H226072   0.062   3.396  16.681 -0.5357  0.1391  0.0110
 1553TIP3   OH226073   4.473   4.796  12.134  0.2920 -0.2425 -0.0457
 1553TIP3    H126074   4.564   4.803  12.165 -0.0198  0.1942  0.8112
 1553TIP3    H226075   4.475   4.832  12.045  1.0283 -0.5948 -0.1764
 1554TIP3   OH226076   4.323   4.655   5.298  0.2502 -0.1537 -0.4341
 1554TIP3    H126077   4.264   4.696   5.361 -0.4624 -1.2140 -0.3899
 1554TIP3    H226078   4.268   4.640   5.220  0.1804 -2.0002 -0.0666
 1555TIP3   OH226079   2.824   2.356  17.244 -0.5175 -0.0304 -0.1742
 1555TIP3    H126080   2.852   2.288  17.306  0.7290  0.7851  0.1997
 1555TIP3    H226081   2.899   2.367  17.185 -1.6459 -0.6972 -1.7610
 1556TIP3   OH226082   5.748   1.693   5.932  0.4947 -1.0512  0.3652
 1556TIP3    H126083   5.762   1.720   6.023  0.0142 -1.8062  0.6639
 1556TIP3    H226084   5.737   1.598   5.936 -3.0553 -0.7840 -0.0202
 1557TIP3   OH226085   1.603   2.883  13.920 -0.0845  0.1347  0.2882
 1557TIP3    H126086   1.644   2.808  13.875  0.0362  1.0797 -1.2536
 1557TIP3    H226087   1.510   2.875  13.900 -0.0844  0.3218  0.2063
 1558TIP3   OH226088   6.165   6.092  12.388  0.0471  0.4729 -0.2287
 1558TIP3    H126089   6.088   6.035  12.383  0.6475 -0.4272  0.4088
 1558TIP3    H226090   6.130   6.181  12.386 -0.8379  0.1682 -3.2000
 1559TIP3   OH226091   5.082   6.062   1.831 -0.1888 -0.5805  0.1212
 1559TIP3    H126092   5.026   5.991   1.862 -0.6703 -0.2395  0.0458
 1559TIP3    H226093   5.028   6.108   1.767  0.7719 -1.2359 -1.1866
 1560TIP3   OH226094   6.464   4.621   5.271 -0.1831  0.0128  0.0692
 1560TIP3    H126095   6.499   4.708   5.290 -1.6563  0.8888 -1.0034
 1560TIP3    H226096   6.506   4.596   5.188 -0.6878  0.2582 -0.2652
 1561TIP3   OH226097   2.665   6.305   2.217  0.1189  0.2147  0.1138
 1561TIP3    H126098   2.572   6.300   2.196  0.1101  1.3579 -0.2185
 1561TIP3    H226099   2.708   6.302   2.131  0.3127  0.8642  0.1846
 1562TIP3   OH226100   3.477   1.083  16.050  0.3673  0.4797  0.6720
 1562TIP3    H126101   3.431   0.999  16.046  0.2338  0.5566  0.5708
 1562TIP3    H226102   3.408   1.147  16.070  0.4619  0.5710  0.7077
 1563TIP3   OH226103   5.917   5.396  15.837 -0.4763 -0.4236  0.3178
 1563TIP3    H126104   5.835   5.397  15.786  0.6464 -0.6614 -1.5883
 1563TIP3    H226105   5.979   5.350  15.781  1.3408  0.9451  1.1114
 1564TIP3   OH226106   3.347   2.778   0.913 -0.0370 -0.5231 -0.4430
 1564TIP3    H126107   3.339   2.839   0.987 -1.0901 -0.2918 -0.7248
 1564TIP3    H226108   3.421   2.810   0.863 -1.1178  1.0978 -1.0837
 1565TIP3   OH226109   6.551   0.953   0.030 -0.5960 -0.3911 -0.4668
 1565TIP3    H126110   6.501   1.020   0.077 -0.5550 -0.1690 -0.7405
 1565TIP3    H226111   6.559   0.881   0.093 -0.3936 -0.0290 -0.0684
 1566TIP3   OH226112   4.835   2.757  15.720  0.0680 -0.0282  0.0915
 1566TIP3    H126113   4.838   2.849  15.745  3.5384  0.3661 -1.2977
 1566TIP3    H226114   4.906   2.716  15.769  0.9482 -1.1457 -1.9949
 1567TIP3   OH226115   4.512   5.587   1.460  0.7330 -0.3218  0.3291
 1567TIP3    H126116   4.543   5.600   1.550  0.3838 -0.7888  0.5244
 1567TIP3    H226117   4.588   5.555   1.413  0.8219 -0.4602  0.5611
 1568TIP3   OH226118   3.790   5.119  11.110  0.1466 -0.1511 -0.6491
 1568TIP3    H126119   3.697   5.141  11.120 -0.0664 -0.9854 -0.6986
 1568TIP3    H226120   3.833   5.165  11.182 -0.1855  0.9056 -1.1109
 1569TIP3   OH226121   1.823   3.764   6.825  0.0735  0.4731 -0.5136
 1569TIP3    H126122   1.845   3.680   6.785  0.2776  0.4951 -0.4483
 1569TIP3    H226123   1.886   3.825   6.787 -0.6781  0.7824 -1.2783
 1570TIP3   OH226124   1.173   2.768   0.258 -0.5143 -0.0697  0.1988
 1570TIP3    H126125   1.104   2.798   0.317 -2.4775 -1.4335 -1.2655
 1570TIP3    H226126   1.231   2.716   0.314 -0.7842  0.9225  1.4296
 1571TIP3   OH226127   1.888   0.594   1.661  0.3107  0.2788 -0.2639
 1571TIP3    H126128   1.870   0.634   1.746  1.3003 -1.5466  0.8734
 1571TIP3    H226129   1.877   0.500   1.676  0.0778 -0.0597 -2.2815
 1572TIP3   OH226130   1.836   6.495   3.243 -0.8193 -0.0424 -0.3713
 1572TIP3    H126131   1.815   6.460   3.329 -1.4491  0.9835 -0.0885
 1572TIP3    H226132   1.751   6.515   3.204 -0.5053  2.1807 -0.0673
 1573TIP3   OH226133   2.582   0.629   0.563 -0.3176  0.0971  0.0618
 1573TIP3    H126134   2.635   0.549   0.557  0.9040  0.9606 -2.6363
 1573TIP3    H226135   2.492   0.597   0.574  0.1287 -1.6752 -0.9526
 1574TIP3   OH226136   3.707   4.948  11.785  0.3756 -0.2113 -0.1442
 1574TIP3    H126137   3.782   4.999  11.815 -1.2547  2.2830 -0.0206
 1574TIP3    H226138   3.694   4.882  11.853  1.1510  0.6866  0.9089
 1575TIP3   OH226139   6.347   1.866  12.347 -0.4055  0.4389 -0.0372
 1575TIP3    H126140   6.298   1.865  12.429 -0.3322 -1.0550  0.0160
 1575TIP3    H226141   6.285   1.901  12.283 -0.5238  1.4418  0.5940
 1576TIP3   OH226142   4.935   6.168  14.551 -0.1601  0.4105 -0.2334
 1576TIP3    H126143   4.847   6.135  14.566 -0.0508  0.3354  0.2959
 1576TIP3    H226144   4.930   6.218  14.470  0.0736 -2.4202 -2.1044
 1577TIP3   OH226145   2.061   0.935   4.418  0.5638  0.5162 -0.2716
 1577TIP3    H126146   2.058   0.862   4.357  1.5522  1.1192 -1.0752
 1577TIP3    H226147   2.039   0.897   4.503 -1.8963 -0.1510 -1.1321
 1578TIP3   OH226148   3.664   2.152  12.013 -0.5627 -0.2470 -0.1148
 1578TIP3    H126149   3.645   2.061  12.036  0.6129 -0.8718 -1.4870
 1578TIP3    H226150   3.728   2.180  12.078 -0.6876 -0.4994  0.1212
 1579TIP3   OH226151   4.881   4.967  12.400  0.4211  0.7531 -0.1651
 1579TIP3    H126152   4.950   4.916  12.442  0.5070  1.3377  0.4329
 1579TIP3    H226153   4.799   4.930  12.433  0.4884  1.2581  0.6051
 1580TIP3   OH226154   4.747   2.013   0.670  0.5405 -0.4487  0.2219
 1580TIP3    H126155   4.799   2.075   0.722  0.3698 -1.6474  1.8839
 1580TIP3    H226156   4.667   2.000   0.720  0.2359 -1.4120 -0.4824
 1581TIP3   OH226157   0.602   5.870  14.284 -0.1163 -0.0575  0.4301
 1581TIP3    H126158   0.694   5.860  14.310 -0.1212 -1.4795 -0.0125
 1581TIP3    H226159   0.601   5.947  14.227  0.7066  0.2608  0.8322
 1582TIP3   OH226160   3.361   4.148   5.473  0.0662 -0.4804 -0.5181
 1582TIP3    H126161   3.294   4.107   5.527  0.9949 -1.6427 -0.2139
 1582TIP3    H226162   3.312   4.191   5.403 -1.0821  0.1114  0.6078
 1583TIP3   OH226163   6.598   2.869   0.201 -0.3403  0.1153 -0.0881
 1583TIP3    H126164   6.669   2.849   0.141  0.9560  1.7335  0.8325
 1583TIP3    H226165   6.641   2.888   0.285 -1.5758  3.4397 -0.0511
 1584TIP3   OH226166   0.795   3.515   2.993  0.0898 -0.1724  0.0617
 1584TIP3    H126167   0.812   3.435   2.942  0.0021 -0.1908  0.0621
 1584TIP3    H226168   0.748   3.485   3.070  2.3015 -0.4886  1.3782
 1585TIP3   OH226169   2.059   2.043  16.964 -0.1395 -0.1482 -0.6442
 1585TIP3    H126170   2.057   2.039  17.060  0.3759  2.1062 -0.4931
 1585TIP3    H226171   2.071   2.136  16.944  1.9583 -0.7795 -2.8395
 1586TIP3   OH226172   2.527   3.682  14.606 -0.1347  0.3661  0.2035
 1586TIP3    H126173   2.492   3.745  14.669  0.0032 -0.4434  1.1040
 1586TIP3    H226174   2.566   3.737  14.537 -0.4897  1.2618  0.6936
 1587TIP3   OH226175   3.946   2.170   0.143 -0.4201  0.0465  0.0062
 1587TIP3    H126176   3.967   2.077   0.134  0.2489 -0.0511  1.9636
 1587TIP3    H226177   3.929   2.200   0.054  0.6518 -1.6510 -0.8186
 1588TIP3   OH226178   5.565   6.328  14.981 -0.2105  0.6560 -0.5940
 1588TIP3    H126179   5.497   6.395  14.977 -0.5089  0.3173 -1.2875
 1588TIP3    H226180   5.519   6.246  14.969  0.0961  0.2748  0.6999
 1589TIP3   OH226181   1.351   0.371  14.206 -0.1505 -0.0653  0.0631
 1589TIP3    H126182   1.330   0.332  14.292  0.6639  0.5445  0.5481
 1589TIP3    H226183   1.392   0.300  14.157 -1.5304 -0.7171 -0.2103
 1590TIP3   OH226184   2.507   0.489  17.120  0.5343 -0.6722  0.1265
 1590TIP3    H126185   2.474   0.461  17.034  0.8998 -2.3688  0.4975
 1590TIP3    H226186   2.592   0.446  17.128  1.0741  0.4898  0.8217
 1591TIP3   OH226187   4.111   3.442  12.994  0.4383 -0.3251 -0.0256
 1591TIP3    H126188   4.172   3.385  13.040  0.9395  0.3518  0.1480
 1591TIP3    H226189   4.156   3.466  12.913 -0.3041 -1.2405 -0.7480
 1592TIP3   OH226190   4.001   2.517   3.362  0.5926 -0.2670 -0.1816
 1592TIP3    H126191   4.003   2.581   3.291 -1.8995 -0.6545 -0.7140
 1592TIP3    H226192   3.960   2.563   3.435  1.2645 -0.4827  0.3485
 1593TIP3   OH226193   6.196   2.834  15.293 -0.0207  0.0205 -0.6569
 1593TIP3    H126194   6.190   2.792  15.207 -1.1982 -1.4668  0.1174
 1593TIP3    H226195   6.134   2.907  15.288  0.2252  0.1987 -1.1999
 1594TIP3   OH226196   5.505   3.648   1.108  0.1673 -0.7222  0.1845
 1594TIP3    H126197   5.437   3.585   1.130  1.0684 -1.6748  0.3071
 1594TIP3    H226198   5.457   3.726   1.079 -0.9721 -1.7072 -0.7000
 1595TIP3   OH226199   0.388   6.737   0.491 -0.1251 -0.0070  1.1364
 1595TIP3    H126200   0.413   6.821   0.531 -0.4612  0.6367  0.0269
 1595TIP3    H226201   0.349   6.761   0.407  1.5245 -1.3916 -0.0800
 1596TIP3   OH226202   5.672   0.585   2.015  0.2853  0.2588  0.0835
 1596TIP3    H126203   5.584   0.617   2.035 -0.2648 -0.1882 -1.4535
 1596TIP3    H226204   5.697   0.632   1.935  0.6846 -0.9341 -0.5243
 1597TIP3   OH226205   1.155   5.669   1.923 -0.5112 -0.5301 -0.4896
 1597TIP3    H126206   1.244   5.664   1.887 -0.2639 -1.8685  0.2465
 1597TIP3    H226207   1.166   5.666   2.018 -1.3478 -1.1450 -0.3932
 1598TIP3   OH226208   5.024   2.369   4.207 -0.4435 -0.5897 -0.3325
 1598TIP3    H126209   5.045   2.275   4.202 -0.9534 -0.7592  0.5017
 1598TIP3    H226210   4.950   2.380   4.148  0.4273 -0.4574 -1.4207
 1599TIP3   OH226211   5.419   4.523   0.006 -0.2771 -0.6940  0.2066
 1599TIP3    H126212   5.361   4.533   0.082 -0.1545 -1.0736  0.3514
 1599TIP3    H226213   5.478   4.598   0.011  0.1611 -1.0696  0.8639
 1600TIP3   OH226214   5.467   3.806   6.607  0.1041  0.3536 -0.2668
 1600TIP3    H126215   5.489   3.889   6.564 -0.3282 -0.0765 -1.3617
 1600TIP3    H226216   5.521   3.741   6.562 -0.9629 -0.2285 -0.7332
 1601TIP3   OH226217   1.359   2.046  12.487 -0.2042 -0.3975  0.0302
 1601TIP3    H126218   1.444   2.080  12.459  1.2164 -2.0532  2.0009
 1601TIP3    H226219   1.300   2.122  12.485  1.8788  1.3168  0.6955
 1602TIP3   OH226220   6.150   5.325  14.170 -0.4274 -0.2959  0.1871
 1602TIP3    H126221   6.216   5.372  14.221  0.0846  0.2037 -0.8854
 1602TIP3    H226222   6.108   5.266  14.232 -0.9010  1.3777  1.5364
 1603TIP3   OH226223   2.674   0.860  15.594  0.1735  0.6088  0.3614
 1603TIP3    H126224   2.694   0.945  15.634  3.9732 -0.0319  0.2205
 1603TIP3    H226225   2.679   0.876  15.500  2.1215  0.1251  0.3254
 1604TIP3   OH226226   0.144   5.531  16.427 -0.8947  0.9723 -0.1394
 1604TIP3    H126227   0.106   5.445  16.447 -0.5603  1.2243  1.7751
 1604TIP3    H226228   0.102   5.590  16.489  2.0774  1.3666  1.7146
 1605TIP3   OH226229   3.189   6.723   3.327 -0.1071 -0.0390 -0.0429
 1605TIP3    H126230   3.196   6.629   3.346  1.6214  0.4843  2.3099
 1605TIP3    H226231   3.103   6.748   3.362 -1.3402 -0.9570 -2.1755
 1606TIP3   OH226232   1.675   1.895   4.015 -0.1299 -0.1332 -0.1569
 1606TIP3    H126233   1.668   1.953   3.938 -0.8959  1.1786  0.8585
 1606TIP3    H226234   1.765   1.905   4.044  0.0307 -0.2594 -0.6047
 1607TIP3   OH226235   0.341   4.611   2.364  0.1557 -0.3379  0.0772
 1607TIP3    H126236   0.332   4.651   2.451  0.2276 -1.1895  0.4854
 1607TIP3    H226237   0.364   4.520   2.382 -0.4758 -0.6878 -0.8331
 1608TIP3   OH226238   6.108   6.493  14.658 -0.4347 -0.0270 -0.4585
 1608TIP3    H126239   6.092   6.434  14.731 -1.4317  1.2555  0.4233
 1608TIP3    H226240   6.156   6.441  14.594  0.1694 -1.2826  0.9669
 1609TIP3   OH226241   0.413   5.538   0.116 -0.0209  0.0125 -0.1803
 1609TIP3    H126242   0.482   5.512   0.177 -0.2310  1.5652  0.7656
 1609TIP3    H226243   0.335   5.547   0.172 -0.8773 -1.1549 -1.1337
 1610TIP3   OH226244   0.030   0.568  13.780 -0.1609  0.3607  0.2707
 1610TIP3    H126245  -0.037   0.528  13.724 -0.3829  0.7624  0.2356
 1610TIP3    H226246   0.001   0.659  13.788  0.5529  0.6149  0.0038
 1611TIP3   OH226247   3.567   3.678   0.800  0.2205 -0.2838  0.4871
 1611TIP3    H126248   3.616   3.721   0.729  1.6586 -0.3945  1.3623
 1611TIP3    H226249   3.478   3.670   0.766  0.6795  0.3919 -0.9871
 1612TIP3   OH226250   2.463   4.731   3.176  0.1156 -0.4513  0.0998
 1612TIP3    H126251   2.500   4.686   3.100  0.2128 -0.1437 -0.0377
 1612TIP3    H226252   2.389   4.677   3.202  0.3762 -0.8214  0.0874
 1613TIP3   OH226253   3.809   5.983   5.808  0.2072 -0.3406  0.2495
 1613TIP3    H126254   3.885   6.037   5.831  1.0729  0.8290 -4.2593
 1613TIP3    H226255   3.843   5.894   5.806  0.5909 -0.2279  1.3557
 1614TIP3   OH226256   0.704   5.094  10.653 -0.8109  0.0573  0.0047
 1614TIP3    H126257   0.721   5.012  10.607 -1.1508 -0.2217  0.3766
 1614TIP3    H226258   0.787   5.142  10.647 -0.2574 -0.7696  0.7194
 1615TIP3   OH226259   6.325   4.415  11.371  0.3670  0.5494  0.0634
 1615TIP3    H126260   6.315   4.410  11.276  1.7254 -0.8900 -0.0465
 1615TIP3    H226261   6.397   4.477  11.385  0.8554 -0.0122  0.0824
 1616TIP3   OH226262   4.358   1.095   5.191  0.3654  0.0509  0.4428
 1616TIP3    H126263   4.299   1.168   5.171  1.9042  0.7716 -1.9869
 1616TIP3    H226264   4.321   1.020   5.145 -0.1652 -0.2132  1.2950
 1617TIP3   OH226265   5.987   5.926  14.244  0.0855 -0.7532  0.4270
 1617TIP3    H126266   6.054   5.947  14.179  0.8760 -0.4752  1.3214
 1617TIP3    H226267   5.917   5.990  14.227 -0.0336 -1.1222 -0.5791
 1618TIP3   OH226268   2.840   2.962  12.947 -0.2351  0.8841 -0.0419
 1618TIP3    H126269   2.850   3.057  12.939  2.0181  0.6661 -0.6098
 1618TIP3    H226270   2.794   2.936  12.867 -1.7740  1.5536  0.5746
 1619TIP3   OH226271   4.564   5.403  12.076 -0.1194  0.2984 -0.4909
 1619TIP3    H126272   4.593   5.488  12.044  0.2620 -0.4222 -2.1609
 1619TIP3    H226273   4.473   5.418  12.104  0.2901  1.4816  0.2777
 1620TIP3   OH226274   1.111   2.552  15.837 -0.3643  0.8156  0.7684
 1620TIP3    H126275   1.093   2.557  15.743 -0.6585 -0.1730  0.7607
 1620TIP3    H226276   1.162   2.631  15.856 -0.2000  0.9664 -0.2401
 1621TIP3   OH226277   1.480   3.053  16.750 -0.0961 -0.0807 -0.4809
 1621TIP3    H126278   1.464   3.044  16.844 -0.5294 -0.8619 -0.6207
 1621TIP3    H226279   1.571   3.025  16.739  0.5028  1.5949 -0.0815
 1622TIP3   OH226280   0.194   3.384  12.940  0.2156  0.5407 -0.1471
 1622TIP3    H126281   0.119   3.388  12.880 -2.3832 -0.6739  2.7633
 1622TIP3    H226282   0.248   3.313  12.906 -0.4936  0.7089 -1.7182
 1623TIP3   OH226283   1.220   3.952   3.154  0.1236  0.1390  0.3277
 1623TIP3    H126284   1.270   3.943   3.073  0.6069 -0.1519  0.6527
 1623TIP3    H226285   1.286   3.949   3.223 -0.3323 -0.0990  0.7598
 1624TIP3   OH226286   4.019   6.431  16.457 -0.0462  0.1185 -0.6440
 1624TIP3    H126287   4.024   6.336  16.455  1.4321  0.0936  1.1379
 1624TIP3    H226288   4.110   6.460  16.455 -0.4553  1.4719 -0.5435
 1625TIP3   OH226289   3.990   0.297   2.839  0.6790  0.3079  0.2047
 1625TIP3    H126290   3.898   0.306   2.863 -0.0352 -3.6254 -0.3360
 1625TIP3    H226291   3.990   0.291   2.744  1.7262  1.6547  0.0912
 1626TIP3   OH226292   6.171   6.049  15.652 -0.7328  0.1552 -0.2248
 1626TIP3    H126293   6.105   6.068  15.719 -1.3993 -2.4244 -0.0671
 1626TIP3    H226294   6.128   5.990  15.591  0.3554  1.2398 -2.1302
 1627TIP3   OH226295   0.614   3.784   6.396 -0.1551  0.3859  0.3923
 1627TIP3    H126296   0.576   3.716   6.451 -0.7568 -0.3258 -0.8666
 1627TIP3    H226297   0.566   3.863   6.420 -0.0836  0.1905  1.2123
 1628TIP3   OH226298   3.589   2.085   4.310 -0.5198 -0.0348  0.1214
 1628TIP3    H126299   3.680   2.064   4.290 -0.7966 -0.3738 -0.8468
 1628TIP3    H226300   3.591   2.118   4.400  0.6785  0.8608 -0.2161
 1629TIP3   OH226301   5.163   4.410  13.995 -0.3791  0.5488 -0.6741
 1629TIP3    H126302   5.164   4.499  14.030 -0.5007  0.0259  0.7160
 1629TIP3    H226303   5.145   4.421  13.902  2.0155  2.1255 -1.0448
 1630TIP3   OH226304   6.611   0.990   2.264 -0.1605  0.4132 -0.7412
 1630TIP3    H126305   6.563   0.938   2.329  1.4516  0.4318  0.5295
 1630TIP3    H226306   6.645   0.925   2.202  0.9171  0.0125  0.2236
 1631TIP3   OH226307   6.554   4.064   4.695  0.5582  0.0188  0.4818
 1631TIP3    H126308   6.478   4.119   4.716 -1.2426 -1.9670 -0.4098
 1631TIP3    H226309   6.580   4.091   4.607 -0.2425 -0.4432  0.0954
 1632TIP3   OH226310   5.562   6.518  15.629 -0.5849 -0.0470 -0.2466
 1632TIP3    H126311   5.651   6.549  15.645 -0.8429  1.0887 -0.9383
 1632TIP3    H226312   5.551   6.521  15.534 -0.8181 -1.7886 -0.3170
 1633TIP3   OH226313   4.334   3.848   2.076  0.1421  0.2128 -0.3020
 1633TIP3    H126314   4.367   3.926   2.031  1.5645 -1.3747 -2.1727
 1633TIP3    H226315   4.261   3.818   2.021  0.2526 -0.3254 -0.1568
 1634TIP3   OH226316   3.548   2.837   1.413  0.2720  0.2482  0.0810
 1634TIP3    H126317   3.605   2.886   1.472 -0.8034  0.0428  1.3581
 1634TIP3    H226318   3.596   2.758   1.392  1.5018  1.2340 -0.9730
 1635TIP3   OH226319   4.638   3.593  13.828  0.1761  0.0803  0.1261
 1635TIP3    H126320   4.680   3.677  13.811  0.7575 -0.5016 -1.4749
 1635TIP3    H226321   4.635   3.587  13.924 -0.1311  2.0199  0.2772
 1636TIP3   OH226322   6.127   5.986  16.124 -0.1689  0.2786  0.9961
 1636TIP3    H126323   6.035   5.971  16.102  0.5070 -0.4730 -1.5657
 1636TIP3    H226324   6.165   5.899  16.130  0.4096  0.5851  2.0610
 1637TIP3   OH226325   5.488   6.348  13.874 -0.0839  0.3628 -0.4161
 1637TIP3    H126326   5.504   6.384  13.787 -1.6748  1.9311 -0.1243
 1637TIP3    H226327   5.474   6.425  13.929 -1.2445 -0.6479  0.7714
 1638TIP3   OH226328   2.749   4.710   3.284  0.0969  0.0742 -0.5210
 1638TIP3    H126329   2.748   4.710   3.380  1.7724  0.8065 -0.4691
 1638TIP3    H226330   2.656   4.704   3.259 -0.5764  2.0842  1.1660
 1639TIP3   OH226331   2.597   2.870   3.478  0.7064 -0.6869 -0.4285
 1639TIP3    H126332   2.524   2.915   3.436  0.5404 -0.7590 -0.2204
 1639TIP3    H226333   2.626   2.806   3.414  0.2260 -1.0401 -0.3058
 1640TIP3   OH226334   0.889   0.206   5.970 -0.3935  0.0878  0.6479
 1640TIP3    H126335   0.853   0.175   5.887 -0.3543 -0.6964  0.9136
 1640TIP3    H226336   0.914   0.297   5.954  1.0588 -0.5047 -0.6637
 1641TIP3   OH226337   3.662   0.014  11.126  0.1043 -0.1807  0.4548
 1641TIP3    H126338   3.583   0.003  11.178  0.5639 -0.2572  1.1466
 1641TIP3    H226339   3.641  -0.025  11.041 -0.3975 -0.7218  0.8261
 1642TIP3   OH226340   3.733   1.882  16.045  0.2170 -0.4883 -0.1078
 1642TIP3    H126341   3.804   1.882  15.982  0.6605 -1.5915  0.3605
 1642TIP3    H226342   3.767   1.930  16.121 -0.2144  0.5899 -0.5837
 1643TIP3   OH226343   5.754   6.161   4.382 -0.2056  0.1885 -0.2080
 1643TIP3    H126344   5.705   6.087   4.348 -0.4408  0.0669  0.3724
 1643TIP3    H226345   5.842   6.128   4.397 -0.0569  0.2867 -0.8365
 1644TIP3   OH226346   3.392   1.826   4.714 -0.3968 -0.1213 -0.0220
 1644TIP3    H126347   3.478   1.786   4.728 -1.0161 -1.3926  0.3030
 1644TIP3    H226348   3.390   1.848   4.621  0.4653  0.3898  0.0714
 1645TIP3   OH226349   6.698   1.084  13.920  0.1900 -0.0099  0.4287
 1645TIP3    H126350   6.689   1.094  14.015 -0.3261  1.0833  0.2815
 1645TIP3    H226351   6.782   1.126  13.899  0.8558 -1.2409  0.5225
 1646TIP3   OH226352   4.483   4.769   3.112 -0.0346  0.4797 -0.1609
 1646TIP3    H126353   4.399   4.752   3.154  0.3260  0.9297  0.7548
 1646TIP3    H226354   4.482   4.862   3.091 -0.2516  0.2452 -1.2666
 1647TIP3   OH226355   3.366   6.608  11.631  0.0997  0.6627 -0.6238
 1647TIP3    H126356   3.419   6.669  11.681 -0.3921  0.6172 -0.0417
 1647TIP3    H226357   3.429   6.560  11.577  0.6791  0.4175  0.2647
 1648TIP3   OH226358   5.902   4.474   2.810  0.2176 -0.1484 -0.9906
 1648TIP3    H126359   5.911   4.527   2.731 -0.7702  0.6425 -0.6001
 1648TIP3    H226360   5.827   4.417   2.791 -0.8577  0.9304 -0.1893
 1649TIP3   OH226361   5.945   4.048   4.218 -0.1175  0.1609  0.3820
 1649TIP3    H126362   5.896   4.130   4.225  0.5984  0.5651  0.8338
 1649TIP3    H226363   5.992   4.041   4.301 -0.5704 -0.9800  0.5578
 1650TIP3   OH226364   3.549   6.055  17.061  0.1530 -0.1707  0.8507
 1650TIP3    H126365   3.568   6.090  16.974 -2.0746  0.2425  0.4553
 1650TIP3    H226366   3.634   6.026  17.094  1.2521  0.7267 -0.9731
 1651TIP3   OH226367   6.411   5.939  11.378  0.4608  0.2240  0.4765
 1651TIP3    H126368   6.457   5.855  11.385  0.8793  0.4699  0.7315
 1651TIP3    H226369   6.431   5.984  11.460 -0.5876  0.1628  0.7807
 1652TIP3   OH226370   6.183   0.910  12.127  0.8015 -0.1026 -0.4818
 1652TIP3    H126371   6.204   0.945  12.040 -1.1670 -2.6294 -2.1314
 1652TIP3    H226372   6.089   0.922  12.136  1.1662  1.6483  2.1514
 1653TIP3   OH226373   5.726   3.044   2.220  0.3289  0.2699  0.8843
 1653TIP3    H126374   5.700   3.063   2.310  0.5508 -0.0881  1.0239
 1653TIP3    H226375   5.725   2.949   2.213  1.8994  0.2170  0.9916
 1654TIP3   OH226376   6.040   0.452  11.563 -0.0204 -0.2394 -0.8276
 1654TIP3    H126377   6.057   0.369  11.519  0.0506 -0.1877 -0.8980
 1654TIP3    H226378   6.001   0.507  11.496 -0.4104 -0.3344 -0.6862
 1655TIP3   OH226379   3.970   6.226   4.413  0.7321  0.2128 -0.3769
 1655TIP3    H126380   3.930   6.140   4.401  2.5665 -0.6669 -0.5363
 1655TIP3    H226381   3.928   6.282   4.348 -1.0240 -0.3432  0.2266
 1656TIP3   OH226382   4.477   2.133   3.970  0.2260 -0.1605 -0.4469
 1656TIP3    H126383   4.522   2.078   3.906  1.0491  0.5956 -0.5397
 1656TIP3    H226384   4.531   2.212   3.976 -1.4308  1.0802 -1.0406
 1657TIP3   OH226385   1.576   2.484   0.524  0.0418  0.0157 -0.1803
 1657TIP3    H126386   1.540   2.412   0.472  0.5214 -0.2601 -0.1352
 1657TIP3    H226387   1.668   2.463   0.533 -0.0486  0.0247  0.8537
 1658TIP3   OH226388   3.991   5.279   3.104  0.1548 -0.6062 -0.3682
 1658TIP3    H126389   3.998   5.355   3.046 -0.7359  0.2630  0.6192
 1658TIP3    H226390   3.951   5.211   3.050 -0.8026  0.2359 -0.7568
 1659TIP3   OH226391   2.837   6.012   3.669 -0.0566 -0.1286  0.8333
 1659TIP3    H126392   2.745   6.006   3.644  0.2259 -0.2587 -0.2179
 1659TIP3    H226393   2.860   5.923   3.695 -0.5628  0.1649  2.4011
 1660TIP3   OH226394   4.762   3.829  12.888  0.5619  0.1377  0.2231
 1660TIP3    H126395   4.749   3.870  12.803  0.5912 -0.6972 -0.1945
 1660TIP3    H226396   4.847   3.862  12.918  1.1777 -0.5728 -0.6768
 1661TIP3   OH226397   4.343   4.388  16.251  0.0397  0.7476  0.2097
 1661TIP3    H126398   4.324   4.372  16.158 -0.2164 -0.3236  0.4298
 1661TIP3    H226399   4.435   4.361  16.261 -0.2755 -0.2601  0.4997
 1662TIP3   OH226400   0.004   2.959   0.756  0.0349  0.3762  0.1499
 1662TIP3    H126401   0.078   2.958   0.695  0.5927  1.3419  0.7859
 1662TIP3    H226402  -0.010   3.051   0.776 -0.6614  0.1321  0.8633
 1663TIP3   OH226403   1.720   3.985  16.324 -0.2431  0.7016 -0.0233
 1663TIP3    H126404   1.795   3.936  16.359  0.0523  0.7556 -0.5665
 1663TIP3    H226405   1.736   4.075  16.352  0.2759  0.8420 -0.7402
 1664TIP3   OH226406   6.377   6.534   4.996 -0.1868 -0.0547 -0.0800
 1664TIP3    H126407   6.338   6.509   5.080 -0.5835  1.6360  0.2800
 1664TIP3    H226408   6.435   6.607   5.017  2.0064 -1.4901 -0.8676
 1665TIP3   OH226409   3.440   4.828   2.049  0.2722  0.0293  0.2717
 1665TIP3    H126410   3.535   4.816   2.042  0.0810 -0.9115 -0.8465
 1665TIP3    H226411   3.406   4.802   1.964 -1.0085  0.3005  0.6849
 1666TIP3   OH226412   1.901   1.567   4.827  0.2636 -0.2661 -0.4918
 1666TIP3    H126413   1.926   1.596   4.740 -1.1180 -0.9200 -1.1309
 1666TIP3    H226414   1.885   1.648   4.876  1.2586  0.1071 -0.7594
 1667TIP3   OH226415   5.265   6.063  16.668  0.7311  0.1067  0.1362
 1667TIP3    H126416   5.243   6.154  16.648 -1.5646  0.1338  2.3122
 1667TIP3    H226417   5.226   6.013  16.596 -0.2440  0.7040  0.2242
 1668TIP3   OH226418   4.749   1.999  15.342 -0.0871  0.3842 -0.4179
 1668TIP3    H126419   4.760   2.048  15.260  0.8309 -0.6638 -0.9549
 1668TIP3    H226420   4.654   1.992  15.353 -0.2327  1.6543 -0.6923
 1669TIP3   OH226421   4.665   3.013   3.618  0.4382  1.1581  1.1617
 1669TIP3    H126422   4.617   2.930   3.613  1.7159  0.3830  1.3020
 1669TIP3    H226423   4.679   3.038   3.527  0.4346  0.9860  1.1134
 1670TIP3   OH226424   1.316   3.033  14.038  0.5099 -0.0495  0.0946
 1670TIP3    H126425   1.343   2.943  14.022 -3.4008 -1.4787  0.5525
 1670TIP3    H226426   1.294   3.036  14.131 -0.9988  0.8521 -0.2632
 1671TIP3   OH226427   6.137   4.180   0.078 -0.3417  0.6190  0.0257
 1671TIP3    H126428   6.223   4.220   0.072 -1.1143  2.4706  0.6677
 1671TIP3    H226429   6.103   4.183  -0.011  0.6722 -1.2142 -0.4767
 1672TIP3   OH226430   3.349   5.023   5.317 -0.0984  0.0188 -0.2200
 1672TIP3    H126431   3.421   4.960   5.312 -0.8650 -1.1444  2.0555
 1672TIP3    H226432   3.276   4.981   5.273 -0.8515 -1.1482  2.0036
 1673TIP3   OH226433   3.331   1.565   2.169  0.5120 -0.1863 -0.1364
 1673TIP3    H126434   3.364   1.576   2.259  0.4685 -0.7225 -0.0529
 1673TIP3    H226435   3.409   1.557   2.115  0.5772  1.2404 -0.3120
 1674TIP3   OH226436   0.771   2.610   4.434 -0.5158  0.0135  0.0788
 1674TIP3    H126437   0.792   2.634   4.525  0.6071  0.0276 -0.1640
 1674TIP3    H226438   0.685   2.570   4.439 -0.0235 -0.9457  1.3159
 1675TIP3   OH226439   4.821   4.388   4.065  0.1298 -0.0109  0.3730
 1675TIP3    H126440   4.758   4.429   4.006  1.0774  0.9469 -0.0038
 1675TIP3    H226441   4.898   4.445   4.061  0.2702 -0.0103  2.4460
 1676TIP3   OH226442   1.830   3.397   2.816  0.4699 -0.1040  0.4837
 1676TIP3    H126443   1.740   3.366   2.814  0.6108 -0.6887  1.8975
 1676TIP3    H226444   1.825   3.489   2.787 -0.7381  0.2270  1.6547
 1677TIP3   OH226445   3.514   5.734   5.514  0.1338  0.0266 -0.4326
 1677TIP3    H126446   3.530   5.681   5.436  1.0458 -1.2890  0.5994
 1677TIP3    H226447   3.543   5.679   5.587 -0.3655  1.3497  0.8158
 1678TIP3   OH226448   3.106   6.510  16.434  0.0112  0.1277  0.0653
 1678TIP3    H126449   3.199   6.533  16.428  0.2763 -0.7829  0.5919
 1678TIP3    H226450   3.085   6.473  16.348  0.5256 -1.0457  0.4309
 1679TIP3   OH226451   3.123   3.674  13.995  0.1107 -0.4543  0.3374
 1679TIP3    H126452   3.124   3.635  13.908 -0.0048  0.1165  0.0754
 1679TIP3    H226453   3.183   3.749  13.989  0.0321 -0.3578  0.7210
 1680TIP3   OH226454   4.786   0.472  13.426 -1.1020 -0.2781  0.5161
 1680TIP3    H126455   4.747   0.422  13.355 -0.9874 -1.7429  1.4628
 1680TIP3    H226456   4.872   0.432  13.440 -1.1196 -0.0104  1.4810
 1681TIP3   OH226457   1.160   4.584  11.910 -0.1290  0.0795 -0.9013
 1681TIP3    H126458   1.160   4.678  11.890  0.9108  0.2201 -0.3588
 1681TIP3    H226459   1.121   4.542  11.834 -1.9075  1.0525 -0.5724
 1682TIP3   OH226460   4.779   6.521   2.018 -0.1349  0.4996  0.4152
 1682TIP3    H126461   4.862   6.539   2.061  0.3315  0.0450 -0.2666
 1682TIP3    H226462   4.802   6.507   1.926 -1.1777  2.0691 -0.1169
 1683TIP3   OH226463   2.305   1.416  13.330 -0.3146  0.1396 -0.6279
 1683TIP3    H126464   2.301   1.494  13.385 -2.3765 -2.1356  2.8571
 1683TIP3    H226465   2.216   1.407  13.296 -1.1454 -2.2672  1.7836
 1684TIP3   OH226466   6.152   3.149   3.694  0.2635  0.6783 -0.1160
 1684TIP3    H126467   6.065   3.187   3.699 -0.4800 -1.0010  0.5962
 1684TIP3    H226468   6.191   3.188   3.615 -1.5973  0.5578 -1.1557
 1685TIP3   OH226469   5.628   3.538  15.263 -0.4288 -0.3156 -0.5354
 1685TIP3    H126470   5.650   3.499  15.348 -0.7896 -0.9464 -0.7252
 1685TIP3    H226471   5.691   3.500  15.202  1.2227  1.7166 -0.2297
 1686TIP3   OH226472   1.081   1.819   3.574  0.3565  0.6745  0.3352
 1686TIP3    H126473   1.012   1.872   3.614  0.3508  0.6162  0.4018
 1686TIP3    H226474   1.083   1.739   3.626  0.3813  0.6188  0.2479
 1687TIP3   OH226475   3.399   2.426  17.186 -0.2974 -0.1523 -0.9035
 1687TIP3    H126476   3.389   2.375  17.267  0.4238 -1.5431 -1.6491
 1687TIP3    H226477   3.321   2.403  17.134 -1.2267  1.4408 -0.2709
 1688TIP3   OH226478   6.417   0.036  16.035 -0.0453  0.4046  0.5387
 1688TIP3    H126479   6.451  -0.030  15.974 -0.2730  0.7812 -0.0036
 1688TIP3    H226480   6.344   0.076  15.989  0.3872  1.3689  0.6628
 1689TIP3   OH226481   0.792   0.068   4.989 -0.1047  0.4237  0.2640
 1689TIP3    H126482   0.805   0.089   5.082 -0.2385 -0.0524  0.3952
 1689TIP3    H226483   0.698   0.078   4.976 -0.1522  0.0467  0.2972
 1690TIP3   OH226484   2.131   6.618   4.817  0.2178 -0.2079 -0.6684
 1690TIP3    H126485   2.114   6.660   4.901  1.0961 -0.7717 -0.1927
 1690TIP3    H226486   2.180   6.684   4.767 -1.3041  0.5650 -1.1949
 1691TIP3   OH226487   5.150   1.044   5.007 -0.2160 -0.4292  0.3153
 1691TIP3    H126488   5.093   1.119   5.027  0.6639  1.3959 -3.2197
 1691TIP3    H226489   5.092   0.968   5.012 -2.2519  0.9990 -0.1122
 1692TIP3   OH226490   1.217   2.886  17.204  0.0641  0.7395  0.0330
 1692TIP3    H126491   1.149   2.818  17.198  0.4781  0.4762 -2.2721
 1692TIP3    H226492   1.200   2.928  17.289  0.5725 -3.0148  2.2423
 1693TIP3   OH226493   5.578   2.770   1.358 -0.0112  0.0152 -0.2686
 1693TIP3    H126494   5.614   2.702   1.414 -0.8425 -2.0445 -2.0853
 1693TIP3    H226495   5.622   2.851   1.386  0.4615 -1.0959  2.4535
 1694TIP3   OH226496   3.736   2.990   2.742 -0.0480 -0.1507 -0.2873
 1694TIP3    H126497   3.665   3.022   2.686 -0.9515  0.7428  1.3032
 1694TIP3    H226498   3.716   2.898   2.755 -0.1197 -0.2428 -0.9865
 1695TIP3   OH226499   0.641   3.353  10.558 -0.0118  0.2242 -0.2167
 1695TIP3    H126500   0.668   3.268  10.521 -1.0153 -0.4532  0.5514
 1695TIP3    H226501   0.718   3.382  10.607 -0.1224 -0.9627  0.7167
 1696TIP3   OH226502   4.003   2.352  15.153 -0.2136 -0.6998  0.6089
 1696TIP3    H126503   3.916   2.339  15.192  0.0988 -0.2418  1.4775
 1696TIP3    H226504   3.985   2.370  15.061 -0.8924 -3.2816  0.1580
 1697TIP3   OH226505   6.143   2.589   1.021 -0.2560 -0.2135 -0.1644
 1697TIP3    H126506   6.153   2.494   1.027 -1.7362 -0.3148  1.3439
 1697TIP3    H226507   6.118   2.604   0.930  0.6753 -1.1653 -0.6164
 1698TIP3   OH226508   0.494   1.203  15.492  0.2672  0.0951  0.5752
 1698TIP3    H126509   0.548   1.278  15.516  0.9080  0.6266 -2.2454
 1698TIP3    H226510   0.405   1.237  15.486 -0.2139 -0.4002  3.4901
 1699TIP3   OH226511   4.173   3.290   0.084  0.0248  0.2822 -0.5135
 1699TIP3    H126512   4.255   3.244   0.099 -0.2737 -0.6141 -1.5008
 1699TIP3    H226513   4.106   3.222   0.090 -0.5932  0.8859 -0.3756
 1700TIP3   OH226514   0.061   1.921   1.499 -0.1516 -0.7085 -0.7799
 1700TIP3    H126515   0.039   2.011   1.478 -0.6239 -1.1727 -2.3805
 1700TIP3    H226516  -0.018   1.887   1.543  0.8784  0.2908  2.1156
 1701TIP3   OH226517   4.088   0.289   5.889 -0.7275 -0.1908  0.0933
 1701TIP3    H126518   4.151   0.221   5.865 -0.2720  0.1054  0.4384
 1701TIP3    H226519   4.060   0.265   5.978 -0.3269  0.2482  0.3399
 1702TIP3   OH226520   4.082   4.903   4.635 -0.7231  0.0530  0.1156
 1702TIP3    H126521   4.111   4.816   4.663  2.5943 -0.0543 -2.9328
 1702TIP3    H226522   4.155   4.961   4.658 -1.0141  1.1918 -1.6850
 1703TIP3   OH226523   1.436   1.686   5.321 -0.1092  0.1237  0.2266
 1703TIP3    H126524   1.524   1.652   5.338 -0.2375  0.6453  2.1714
 1703TIP3    H226525   1.378   1.611   5.338 -0.1220  0.1712  0.3992
 1704TIP3   OH226526   4.596   3.914   4.406 -0.1635  0.2055  0.7631
 1704TIP3    H126527   4.634   3.928   4.319  0.3873 -2.6993  0.4377
 1704TIP3    H226528   4.504   3.937   4.396  0.2738  1.7946 -0.0066
 1705TIP3   OH226529   3.625   1.350  14.713 -0.4405 -0.0105 -0.3882
 1705TIP3    H126530   3.642   1.275  14.770  0.1361  0.8047  0.5501
 1705TIP3    H226531   3.538   1.334  14.677  0.1266 -1.6640 -1.0764
 1706TIP3   OH226532   6.284   5.489  11.334  0.2142  0.1692  0.3171
 1706TIP3    H126533   6.268   5.560  11.396 -1.3152 -0.5773  0.8113
 1706TIP3    H226534   6.211   5.493  11.273 -0.0443 -1.1459  0.5196
 1707TIP3   OH226535   4.100   6.032   4.775 -0.1994  0.1391 -0.4477
 1707TIP3    H126536   4.056   6.092   4.834 -0.8047  0.6124 -1.3544
 1707TIP3    H226537   4.154   6.088   4.719  3.7484 -0.5433  2.2492
 1708TIP3   OH226538   1.343   4.091  16.514  0.3203  0.0789 -0.8512
 1708TIP3    H126539   1.336   4.108  16.608 -0.1121 -0.1314 -0.8414
 1708TIP3    H226540   1.287   4.159  16.474 -1.5235 -1.3297 -0.8090
 1709TIP3   OH226541   6.256   0.967  12.565  0.2811 -0.0506 -0.2281
 1709TIP3    H126542   6.166   0.936  12.560  0.2469 -0.1720  0.9511
 1709TIP3    H226543   6.306   0.891  12.595  0.8816 -0.1497 -1.4092
 1710TIP3   OH226544   6.138   0.925   0.891 -0.9277  0.3281  0.0317
 1710TIP3    H126545   6.221   0.955   0.854 -0.6772 -0.2918  0.0927
 1710TIP3    H226546   6.073   0.982   0.850 -0.5605  0.2514 -0.6882
 1711TIP3   OH226547   5.351   4.239   3.840 -0.6128  0.2802  0.3414
 1711TIP3    H126548   5.404   4.170   3.799 -2.5826 -1.4149  0.4607
 1711TIP3    H226549   5.347   4.308   3.774 -0.0051 -0.4501 -0.4866
 1712TIP3   OH226550   0.191   2.418  16.348 -0.5199 -0.1253 -0.0814
 1712TIP3    H126551   0.208   2.507  16.379  0.4422 -0.6500  0.9645
 1712TIP3    H226552   0.100   2.402  16.371  0.3604 -0.8031  3.4286
 1713TIP3   OH226553   3.225   6.430   0.544 -0.4084  0.1525  0.0176
 1713TIP3    H126554   3.310   6.443   0.586 -1.2237  0.5064  1.6233
 1713TIP3    H226555   3.170   6.392   0.612 -1.2910 -0.9886 -1.2782
 1714TIP3   OH226556   6.108   5.749  13.614 -0.0991 -0.0062 -0.1722
 1714TIP3    H126557   6.109   5.820  13.550  2.3653  1.0545  0.9246
 1714TIP3    H226558   6.060   5.678  13.570  2.1469  0.3435 -3.5958
 1715TIP3   OH226559   2.077   0.694   1.496  0.0247 -0.1928  0.0915
 1715TIP3    H126560   2.005   0.693   1.559 -0.3929 -1.6785 -0.3730
 1715TIP3    H226561   2.152   0.661   1.544  0.0428 -0.0186  0.1831
 1716TIP3   OH226562   1.392   4.892  12.589 -0.1562  0.0047  0.0437
 1716TIP3    H126563   1.474   4.924  12.627 -0.4837  0.0382  0.7392
 1716TIP3    H226564   1.406   4.798  12.579  0.6624  0.2734 -1.6371
 1717TIP3   OH226565   6.112   4.745   0.507 -0.1592 -0.5268  0.0373
 1717TIP3    H126566   6.118   4.766   0.414  0.5643  1.0246  0.3962
 1717TIP3    H226567   6.118   4.650   0.511 -0.3819 -0.6361 -1.5063
 1718TIP3   OH226568   4.284   3.191   3.639  0.1726 -0.3552  0.6200
 1718TIP3    H126569   4.360   3.191   3.581  0.1609 -0.8382  0.6005
 1718TIP3    H226570   4.302   3.261   3.702  0.2256  0.1103  0.0889
 1719TIP3   OH226571   1.159   5.731   2.193  0.0455 -0.3263  0.2555
 1719TIP3    H126572   1.232   5.786   2.222  0.5507 -0.9896  0.2881
 1719TIP3    H226573   1.081   5.774   2.227  0.5482 -0.5610  1.7836
 1720TIP3   OH226574   1.131   0.789   1.586  0.3702 -0.2414  0.4390
 1720TIP3    H126575   1.128   0.701   1.551 -1.4432 -0.4998  1.1377
 1720TIP3    H226576   1.224   0.811   1.589  0.7770 -1.6419 -0.8817
 1721TIP3   OH226577   0.218   1.150  14.521 -0.3602  0.0450 -0.2361
 1721TIP3    H126578   0.228   1.200  14.440 -3.0659 -1.2281 -1.5066
 1721TIP3    H226579   0.209   1.216  14.589  1.0364  1.1612 -1.0805
 1722TIP3   OH226580   4.730   6.499  12.867  0.1631 -0.0215  0.2664
 1722TIP3    H126581   4.655   6.537  12.912  0.1624 -0.2361  0.4457
 1722TIP3    H226582   4.703   6.410  12.846  0.6852 -0.3784  1.0942
 1723TIP3   OH226583   5.384   2.085   4.353 -0.1118  0.2323  0.3502
 1723TIP3    H126584   5.420   1.999   4.374 -0.3291  0.4970  1.9149
 1723TIP3    H226585   5.451   2.126   4.298  1.1434  0.0172  1.6741
 1724TIP3   OH226586   1.099   6.686   5.639 -0.0243  0.1754  0.2285
 1724TIP3    H126587   1.040   6.612   5.650  0.5299 -0.0863  1.7207
 1724TIP3    H226588   1.058   6.757   5.689  0.2713  0.3737  0.1918
 1725TIP3   OH226589   0.899   6.409  17.232  0.5953 -0.2943  0.5074
 1725TIP3    H126590   0.984   6.368  17.246  1.0386  0.0778 -0.9543
 1725TIP3    H226591   0.893   6.422  17.137 -0.2833  1.3903  0.7457
 1726TIP3   OH226592   1.623   0.985  13.893  0.1712 -0.4155 -0.0788
 1726TIP3    H126593   1.636   0.890  13.887 -0.0485 -0.5982  1.6872
 1726TIP3    H226594   1.712   1.020  13.896  0.2536 -0.5815 -0.4738
 1727TIP3   OH226595   2.514   2.267  16.795 -0.8488 -0.5719 -0.2219
 1727TIP3    H126596   2.527   2.192  16.737  1.1222 -1.7285  1.5692
 1727TIP3    H226597   2.581   2.330  16.769 -1.6529  0.0470 -0.8593
 1728TIP3   OH226598   6.003   0.369   4.090  0.0996 -0.3842 -0.2568
 1728TIP3    H126599   6.024   0.307   4.160  0.9310 -1.7552 -1.6501
 1728TIP3    H226600   6.057   0.341   4.016 -2.9923 -0.9339 -2.4865
 1729TIP3   OH226601   1.068   2.782  15.064  0.3516 -0.2793  0.8857
 1729TIP3    H126602   1.116   2.850  15.017 -1.0301  1.6541  2.1270
 1729TIP3    H226603   0.980   2.784  15.027  0.0326 -0.7282  1.5875
 1730TIP3   OH226604   3.060   6.241   2.092 -0.7107 -0.4030 -0.3186
 1730TIP3    H126605   3.010   6.318   2.065  0.9548  0.9697  0.3212
 1730TIP3    H226606   3.120   6.273   2.159 -0.5726 -2.4676  0.6274
 1731TIP3   OH226607   4.943   4.147  12.107 -0.2932  0.2299  0.1572
 1731TIP3    H126608   4.984   4.152  12.194 -0.8691  2.3320  0.3681
 1731TIP3    H226609   4.853   4.175  12.121 -0.4114  0.5585 -1.1101
 1732TIP3   OH226610   2.084   2.040  14.740  0.0889  0.1599 -0.0730
 1732TIP3    H126611   2.147   1.986  14.691 -0.5188  0.1854 -0.9126
 1732TIP3    H226612   2.129   2.062  14.821  1.3149  0.4911 -0.8123
 1733TIP3   OH226613   5.700   1.151  14.094 -0.1699 -0.1887  0.1110
 1733TIP3    H126614   5.711   1.136  14.188  0.3112 -2.1093 -0.2144
 1733TIP3    H226615   5.635   1.220  14.088 -1.7424 -1.4304  1.8535
 1734TIP3   OH226616   2.563   4.998   4.465 -0.0199  0.2120  0.0354
 1734TIP3    H126617   2.560   5.007   4.560 -1.2859 -0.5790  0.0911
 1734TIP3    H226618   2.577   4.905   4.450  1.8006  0.5324 -0.5776
 1735TIP3   OH226619   3.731   2.243  13.243 -0.4839  0.1059 -0.4529
 1735TIP3    H126620   3.749   2.178  13.175  1.1615 -0.0267  0.0735
 1735TIP3    H226621   3.666   2.201  13.299 -1.6996  0.1291 -1.7911
 1736TIP3   OH226622   1.899   1.399   5.055  0.0747 -0.9298 -0.3480
 1736TIP3    H126623   1.805   1.386   5.057 -0.1624 -0.0302 -2.9237
 1736TIP3    H226624   1.916   1.449   4.976  2.6646 -0.4069  0.4213
 1737TIP3   OH226625   5.970   5.556  13.475 -0.6355  0.3084  0.4945
 1737TIP3    H126626   5.997   5.465  13.483  1.6464  1.1068  3.7795
 1737TIP3    H226627   5.893   5.553  13.418 -0.0055 -3.4829 -0.4101
 1738TIP3   OH226628   4.652   2.808   0.137  0.4879 -0.3365 -0.2802
 1738TIP3    H126629   4.568   2.794   0.093  0.7431 -0.2019 -0.8181
 1738TIP3    H226630   4.672   2.900   0.123  0.4527 -0.2268  0.3472
 1739TIP3   OH226631   0.334   3.161   4.424  0.5759  0.1158 -0.2161
 1739TIP3    H126632   0.357   3.253   4.410  0.4183  0.2447  0.3287
 1739TIP3    H226633   0.417   3.117   4.444  0.4770  0.4308  0.9857
 1740TIP3   OH226634   5.790   3.230   5.310  0.4177 -0.1134  0.4199
 1740TIP3    H126635   5.774   3.302   5.249 -0.2079 -0.7807 -0.2242
 1740TIP3    H226636   5.885   3.229   5.321  0.4779  0.4744  0.0176
 1741TIP3   OH226637   0.543   4.421  16.085  0.2081 -0.1574 -0.3205
 1741TIP3    H126638   0.536   4.479  16.010 -0.7860 -0.2397 -0.3042
 1741TIP3    H226639   0.456   4.422  16.125  0.2448 -1.4347 -0.1544
 1742TIP3   OH226640   1.161   0.935  17.036  0.5340 -0.0435 -0.2553
 1742TIP3    H126641   1.217   1.007  17.006  0.3221  1.1021  1.8757
 1742TIP3    H226642   1.102   0.918  16.963  1.2926  1.2266 -1.2002
 1743TIP3   OH226643   2.518   3.404  14.108  0.7595 -0.3225 -0.2580
 1743TIP3    H126644   2.473   3.319  14.104 -0.4487  0.2682 -4.2352
 1743TIP3    H226645   2.460   3.463  14.059  3.8150  1.5575 -1.9169
 1744TIP3   OH226646   0.874   2.282  17.070  0.0315 -0.1536 -0.0288
 1744TIP3    H126647   0.786   2.279  17.107 -0.1331 -0.7572 -0.4389
 1744TIP3    H226648   0.869   2.346  17.000  0.0756  0.2490  0.3371
 1745TIP3   OH226649   2.172   2.880  11.378 -0.2514 -0.0036 -0.1105
 1745TIP3    H126650   2.160   2.879  11.283  0.5760 -3.9749 -0.3539
 1745TIP3    H226651   2.264   2.900  11.390 -0.1946 -0.2118 -0.1952
 1746TIP3   OH226652   1.111   3.024   6.271  0.9733 -0.3763 -0.0659
 1746TIP3    H126653   1.066   2.949   6.309  2.7611 -0.6874  1.5954
 1746TIP3    H226654   1.045   3.094   6.272  0.0427 -1.2234  0.7721
 1747TIP3   OH226655   6.635   5.047  10.612  0.2270  0.3935 -0.4962
 1747TIP3    H126656   6.697   5.110  10.577  1.0938 -1.2680 -2.1460
 1747TIP3    H226657   6.551   5.072  10.575  0.6612  0.3081 -1.5902
 1748TIP3   OH226658   5.223   2.904  17.082  0.2279  0.3880 -1.3970
 1748TIP3    H126659   5.297   2.953  17.045 -0.2353  0.5920 -2.0686
 1748TIP3    H226660   5.149   2.964  17.076  0.1240  0.4238 -0.1318
 1749TIP3   OH226661   1.945   2.347  15.029 -0.1564  0.2556 -0.2373
 1749TIP3    H126662   1.886   2.351  14.953 -1.4008 -0.7447  0.6191
 1749TIP3    H226663   1.909   2.411  15.091  0.7435  0.9336 -0.4021
 1750TIP3   OH226664   4.054   5.881  14.628  0.4294  0.2544 -0.1413
 1750TIP3    H126665   4.114   5.949  14.659  2.4036 -0.6168 -1.8130
 1750TIP3    H226666   4.012   5.848  14.708  3.0178  0.1623  1.2853
 1751TIP3   OH226667   2.575   0.787  14.996 -0.2767  0.3571  0.5692
 1751TIP3    H126668   2.639   0.748  14.937  0.5352  1.4600  0.6948
 1751TIP3    H226669   2.523   0.712  15.027  0.2329 -0.4205 -0.3760
 1752TIP3   OH226670   3.962   6.362   3.704 -0.2035  0.1313 -0.2548
 1752TIP3    H126671   3.978   6.270   3.724 -1.0687  0.1590  0.6524
 1752TIP3    H226672   3.870   6.366   3.679  0.0675  0.6096 -1.2131
 1753TIP3   OH226673   3.842   2.995   0.330  0.8707 -0.5978  0.0786
 1753TIP3    H126674   3.784   2.963   0.399 -1.1499 -1.5958 -1.9211
 1753TIP3    H226675   3.880   2.916   0.292 -0.9113 -0.4609 -2.2192
 1754TIP3   OH226676   4.656   3.298  15.819 -0.2346 -0.2738 -0.2719
 1754TIP3    H126677   4.733   3.286  15.763 -0.1005 -0.0008 -0.1520
 1754TIP3    H226678   4.597   3.227  15.794  0.4726 -1.0991  0.3361
 1755TIP3   OH226679   5.976   2.029   6.204  0.1633  0.3267  0.3232
 1755TIP3    H126680   5.954   1.997   6.292  1.5395 -0.5063  0.3868
 1755TIP3    H226681   5.998   2.121   6.218  0.4450  0.1847  0.8728
 1756TIP3   OH226682   5.759   2.051   2.020  0.4134 -0.6262  0.2381
 1756TIP3    H126683   5.832   2.003   1.983  1.4175  0.4713  0.7273
 1756TIP3    H226684   5.689   1.986   2.028  0.5549 -1.2036 -2.3111
 1757TIP3   OH226685   1.613   5.179  12.881  0.1774 -0.4443  0.4794
 1757TIP3    H126686   1.523   5.210  12.866  0.3301 -0.5532 -0.7686
 1757TIP3    H226687   1.667   5.257  12.871  0.1961 -0.2676  1.7821
 1758TIP3   OH226688   5.566   5.202   3.285  0.3411 -0.0169  0.0399
 1758TIP3    H126689   5.568   5.159   3.199 -1.2279  1.0721 -0.5972
 1758TIP3    H226690   5.555   5.295   3.265  0.0018  0.2632  1.4195
 1759TIP3   OH226691   2.705   2.979  14.529  0.3529 -0.3408  0.0550
 1759TIP3    H126692   2.663   3.038  14.467 -0.0173  0.2588  0.8421
 1759TIP3    H226693   2.740   3.038  14.597  0.3649 -0.9954  0.6275
 1760TIP3   OH226694   5.284   3.004   5.308 -0.0950  0.3123  0.5715
 1760TIP3    H126695   5.350   3.030   5.371 -0.2714 -0.0888  0.9294
 1760TIP3    H226696   5.210   2.973   5.361 -0.8795  1.4755  0.1879
 1761TIP3   OH226697   6.019   5.591  15.574  0.2816 -0.2492 -0.0264
 1761TIP3    H126698   5.929   5.558  15.585  0.4237 -0.5402  0.2898
 1761TIP3    H226699   6.073   5.512  15.574  0.4972 -0.1071 -0.6851
 1762TIP3   OH226700   3.982   0.940   1.387 -0.6076 -0.1357 -0.0750
 1762TIP3    H126701   3.909   0.982   1.340 -0.0755 -1.6729 -2.4943
 1762TIP3    H226702   4.060   0.966   1.338  0.3574  0.4182  1.6947
 1763TIP3   OH226703   2.879   6.336  13.149  0.4729 -1.0950 -0.0241
 1763TIP3    H126704   2.802   6.352  13.204 -0.1694  0.4643 -1.3294
 1763TIP3    H226705   2.954   6.359  13.205 -0.0380 -1.4758  0.8431
 1764TIP3   OH226706   0.418   1.640  13.234 -0.0820 -0.2734 -0.8690
 1764TIP3    H126707   0.474   1.623  13.310  0.2305  1.7552 -0.5753
 1764TIP3    H226708   0.460   1.592  13.162  1.0088 -0.2794 -0.2582
 1765TIP3   OH226709   0.272   4.661  11.225 -0.0659  0.1775 -0.3251
 1765TIP3    H126710   0.263   4.593  11.158 -1.6784 -0.1005  0.1375
 1765TIP3    H226711   0.365   4.658  11.249  0.1094 -1.1633 -1.0317
 1766TIP3   OH226712   0.228   1.733  15.009  0.3167 -0.3670 -0.5081
 1766TIP3    H126713   0.220   1.737  15.104  1.9448 -1.5028 -0.2908
 1766TIP3    H226714   0.234   1.640  14.989  0.9915 -0.1035 -1.6253
 1767TIP3   OH226715   6.604   1.181  11.254  0.1711 -0.2258  0.0756
 1767TIP3    H126716   6.678   1.129  11.223 -0.8767 -2.5726  1.2322
 1767TIP3    H226717   6.534   1.163  11.192 -0.0594  0.2601  0.1902
 1768TIP3   OH226718   6.546   0.721  11.887  0.0733  0.1192 -0.1153
 1768TIP3    H126719   6.519   0.797  11.938 -0.5841  0.0377 -0.3289
 1768TIP3    H226720   6.549   0.650  11.950  1.2710  0.4292  0.2034
 1769TIP3   OH226721   3.477   4.101  13.201  0.2463 -0.2638 -0.3892
 1769TIP3    H126722   3.569   4.123  13.214  0.7657 -1.0632 -2.3146
 1769TIP3    H226723   3.478   4.008  13.178 -0.8167  0.1584 -2.3448
 1770TIP3   OH226724   2.803   0.543  13.358 -0.2146 -0.0055  0.3522
 1770TIP3    H126725   2.807   0.450  13.339  1.0250  0.1516 -0.2742
 1770TIP3    H226726   2.891   0.565  13.388 -0.3744  1.0389  0.0935
 1771TIP3   OH226727   1.011   0.622  13.354  0.1721 -0.1655  0.0649
 1771TIP3    H126728   0.929   0.650  13.392 -0.6156 -0.8402 -1.0740
 1771TIP3    H226729   1.045   0.557  13.416 -0.3986 -0.2426  0.3025
 1772TIP3   OH226730   6.275   6.284  11.430  0.2923  0.0861  0.7481
 1772TIP3    H126731   6.302   6.329  11.351 -0.1523  2.6606  1.9552
 1772TIP3    H226732   6.179   6.291  11.430  0.0930 -1.9483  0.4256
 1773TIP3   OH226733   0.034   1.247   5.567 -0.0979  0.0976 -0.1647
 1773TIP3    H126734   0.027   1.167   5.514 -0.4480 -0.4936  0.7591
 1773TIP3    H226735  -0.011   1.314   5.515 -2.1258 -0.9059  0.2267
 1774TIP3   OH226736   2.139   0.800   0.884  0.2471 -1.0239 -0.1932
 1774TIP3    H126737   2.072   0.840   0.939  2.2413  2.1696  0.1563
 1774TIP3    H226738   2.149   0.711   0.919 -0.5009 -0.0266  2.8101
 1775TIP3   OH226739   6.022   4.009  16.285  0.1637  0.6352  0.3170
 1775TIP3    H126740   6.037   4.010  16.380  1.1222  1.8916  0.1728
 1775TIP3    H226741   6.083   3.944  16.251  0.1471  0.5159  0.5181
 1776TIP3   OH226742   3.897   4.831   5.599 -0.5112 -0.1559  0.8840
 1776TIP3    H126743   3.965   4.861   5.660  1.5940  0.1621 -1.4578
 1776TIP3    H226744   3.872   4.909   5.550 -0.8275 -0.7230  0.1177
 1777TIP3   OH226745   4.544   6.299   4.371 -0.0882  0.1269 -1.1549
 1777TIP3    H126746   4.457   6.260   4.377  0.0949 -0.2201 -0.7067
 1777TIP3    H226747   4.586   6.255   4.297 -0.0588 -0.1777 -0.9585
 1778TIP3   OH226748   6.544   3.692   1.806 -0.1970 -0.7872 -0.6740
 1778TIP3    H126749   6.479   3.663   1.871 -0.6947  0.9893 -0.3092
 1778TIP3    H226750   6.608   3.622   1.803 -0.2122 -0.9877  1.6887
 1779TIP3   OH226751   0.549   6.655  12.552 -0.2883 -0.4395  0.3948
 1779TIP3    H126752   0.618   6.715  12.582 -0.4421 -0.6537  1.1944
 1779TIP3    H226753   0.469   6.707  12.556 -0.3592 -0.5668  0.6943
 1780TIP3   OH226754   1.524   0.753   5.217 -0.2641 -0.0232 -0.1450
 1780TIP3    H126755   1.469   0.693   5.167  0.0969 -2.1879  1.8598
 1780TIP3    H226756   1.609   0.750   5.173 -0.1475 -1.3249  0.1215
 1781TIP3   OH226757   6.372   4.522   2.125  0.3065 -0.0318 -0.1036
 1781TIP3    H126758   6.441   4.573   2.168 -2.6530  2.7320  1.8002
 1781TIP3    H226759   6.347   4.457   2.191 -2.5029  2.5748  1.6284
 1782TIP3   OH226760   2.126   0.977   4.681 -0.2603 -0.1294 -0.3625
 1782TIP3    H126761   2.215   0.958   4.712 -0.9467 -3.9928 -0.2972
 1782TIP3    H226762   2.140   1.027   4.601  1.9351  0.2563  0.1723
 1783TIP3   OH226763   1.918   3.334   4.614 -0.6992 -0.3174 -0.3930
 1783TIP3    H126764   1.826   3.328   4.591 -0.8848  0.7406  0.0075
 1783TIP3    H226765   1.919   3.376   4.700  0.1628  0.1631 -0.6178
 1784TIP3   OH226766   0.315   1.848  13.414 -0.2245  0.0580 -0.7909
 1784TIP3    H126767   0.338   1.786  13.346 -1.4186 -0.1669 -1.0091
 1784TIP3    H226768   0.294   1.929  13.368  0.7783  0.4732 -0.5463
 1785TIP3   OH226769   2.894   4.358  12.365  0.1159  0.3422  0.2580
 1785TIP3    H126770   2.831   4.291  12.339  0.5025  0.4766 -1.0863
 1785TIP3    H226771   2.848   4.441  12.353  0.7726  0.4862 -1.5040
 1786TIP3   OH226772   5.343   5.442   0.444  0.3257 -0.3384  0.5193
 1786TIP3    H126773   5.367   5.383   0.516 -2.3170 -0.6639  1.2228
 1786TIP3    H226774   5.425   5.486   0.422  1.5003 -1.1575  2.8575
 1787TIP3   OH226775   0.318   2.052   4.178 -0.4480 -0.9459  0.2455
 1787TIP3    H126776   0.399   2.045   4.128 -0.0507  0.2349  0.6786
 1787TIP3    H226777   0.346   2.051   4.270 -0.7014  1.2029  0.4031
 1788TIP3   OH226778   3.505   5.460  11.344 -0.2937  0.1330 -0.0210
 1788TIP3    H126779   3.420   5.416  11.348  0.1283 -0.6398  1.1463
 1788TIP3    H226780   3.504   5.520  11.419 -0.0711  0.6244 -0.4074
 1789TIP3   OH226781   4.461   5.020   3.366  0.1308  0.1742 -0.6386
 1789TIP3    H126782   4.451   4.986   3.277  1.0075  0.4767 -0.8584
 1789TIP3    H226783   4.485   5.112   3.354  0.3679  0.1857 -0.0870
 1790TIP3   OH226784   5.521   1.055  13.742  0.6636 -0.0341  0.4184
 1790TIP3    H126785   5.469   1.133  13.758 -0.4821 -0.8778  0.9116
 1790TIP3    H226786   5.612   1.085  13.748  0.2458  1.3121  0.2654
 1791TIP3   OH226787   2.714   5.733  10.674  0.1795 -0.0283  0.2588
 1791TIP3    H126788   2.746   5.791  10.605  0.8058  0.2117  0.7462
 1791TIP3    H226789   2.715   5.787  10.753 -0.3584 -0.3578  0.4979
 1792TIP3   OH226790   2.560   3.520  15.017 -0.1276 -0.4105  0.5057
 1792TIP3    H126791   2.508   3.480  14.947 -0.5081  1.8954 -0.6083
 1792TIP3    H226792   2.648   3.484  15.004  0.2603  1.3190 -2.4016
 1793TIP3   OH226793   4.988   1.984   1.147 -0.7487 -0.0789  0.3482
 1793TIP3    H126794   4.955   2.056   1.200 -1.8349 -0.7930  0.6572
 1793TIP3    H226795   5.078   1.972   1.178 -0.7140  0.8025  0.6387
 1794TIP3   OH226796   4.816   5.642   2.684  0.1508  0.6883  0.0568
 1794TIP3    H126797   4.892   5.696   2.666  1.4536 -0.8126  0.8587
 1794TIP3    H226798   4.742   5.692   2.649  1.3562  2.6657  0.2222
 1795TIP3   OH226799   1.780   3.649   2.762  0.0577 -0.2060 -0.1772
 1795TIP3    H126800   1.702   3.696   2.734  0.2278 -0.2051 -0.6731
 1795TIP3    H226801   1.848   3.678   2.701  1.0081  1.4781  1.5733
 1796TIP3   OH226802   1.280   3.260  13.121 -0.1852 -0.6704  0.3302
 1796TIP3    H126803   1.188   3.272  13.098  0.0278 -1.5967 -1.1449
 1796TIP3    H226804   1.299   3.331  13.183 -2.0138 -0.7826  1.0865
 1797TIP3   OH226805   5.211   1.978  11.717  0.3205  0.6007 -0.4425
 1797TIP3    H126806   5.226   1.885  11.733  0.8504  0.9336  1.2085
 1797TIP3    H226807   5.144   2.004  11.780  2.6682  2.0406  1.6761
 1798TIP3   OH226808   2.820   0.323   1.236  0.4682 -0.7703  0.1984
 1798TIP3    H126809   2.873   0.380   1.180  1.6929 -2.0109  0.0343
 1798TIP3    H226810   2.737   0.370   1.246  1.4887  1.1492  0.2759
 1799TIP3   OH226811   0.269   4.375  16.161 -0.4190 -0.2233 -1.0478
 1799TIP3    H126812   0.236   4.313  16.226  1.4033  0.6660  0.8394
 1799TIP3    H226813   0.226   4.458  16.183 -1.8331 -0.4241 -2.7383
 1800TIP3   OH226814   4.923   1.587   3.362  0.4390  0.0465  0.2082
 1800TIP3    H126815   4.943   1.642   3.438 -0.8298 -0.6344  1.0734
 1800TIP3    H226816   4.975   1.508   3.376  0.0967 -0.1376  0.4475
 1801TIP3   OH226817   2.631   2.496  13.384  0.5246  0.1963  0.0443
 1801TIP3    H126818   2.704   2.438  13.363  0.4530 -0.3383  1.1751
 1801TIP3    H226819   2.664   2.551  13.455 -0.2230 -0.2054  0.7238
 1802TIP3   OH226820   5.450   3.020   6.565 -0.4958 -0.0444 -0.4538
 1802TIP3    H126821   5.383   2.994   6.628  2.9221 -1.7589  2.9117
 1802TIP3    H226822   5.433   2.965   6.488 -2.5643 -0.7949  0.4690
 1803TIP3   OH226823   0.805   4.402  11.243  0.1382 -0.2328  0.5728
 1803TIP3    H126824   0.779   4.471  11.181  1.7163  0.4806  0.6591
 1803TIP3    H226825   0.828   4.328  11.188  2.4457  0.7030  0.1695
 1804TIP3   OH226826   5.008   3.098  10.686  0.3320 -0.0948 -0.1574
 1804TIP3    H126827   4.916   3.085  10.664  0.5112  2.2888 -2.9012
 1804TIP3    H226828   5.007   3.155  10.764 -0.4585 -0.9289  0.4611
 1805TIP3   OH226829   4.589   2.125  13.647  0.2204  0.4231 -0.2627
 1805TIP3    H126830   4.608   2.075  13.727 -1.4605  0.5965  0.2823
 1805TIP3    H226831   4.622   2.069  13.576  2.3801  0.5819  0.5387
 1806TIP3   OH226832   2.759   1.528  14.925 -0.4120 -0.4574 -0.2671
 1806TIP3    H126833   2.814   1.469  14.873 -0.7082 -2.2339  1.3347
 1806TIP3    H226834   2.671   1.491  14.917 -0.3782 -1.0803  1.8498
 1807TIP3   OH226835   1.708   6.292  14.445  0.8097 -0.8089 -0.4086
 1807TIP3    H126836   1.627   6.329  14.480 -0.3790 -1.8488 -1.8955
 1807TIP3    H226837   1.775   6.313  14.510 -0.6284  0.1720  0.8165
 1808TIP3   OH226838   3.212   5.312   4.731 -0.0783 -0.2084 -0.3178
 1808TIP3    H126839   3.224   5.243   4.666  0.1928 -0.4081 -0.0574
 1808TIP3    H226840   3.118   5.308   4.753  0.2585 -1.7631  1.0710
 1809TIP3   OH226841   4.842   4.290   2.489  0.2465  1.1184  0.4970
 1809TIP3    H126842   4.927   4.252   2.465 -0.0185  0.9963 -0.2915
 1809TIP3    H226843   4.837   4.370   2.437 -0.3895  0.7924  0.0328
 1810TIP3   OH226844   2.203   0.985  13.470 -0.5795 -0.5840  0.4884
 1810TIP3    H126845   2.190   0.911  13.411 -0.2209 -1.2289  1.2060
 1810TIP3    H226846   2.250   0.948  13.545  2.5667  0.9611 -0.5470
 1811TIP3   OH226847   0.284   2.862  15.815 -0.0888  0.5456  0.1443
 1811TIP3    H126848   0.270   2.771  15.843 -0.1597  0.5395  0.0898
 1811TIP3    H226849   0.276   2.913  15.895 -2.3957  0.7637 -0.1524
 1812TIP3   OH226850   0.570   2.682  13.823  0.0861 -0.0464  0.0926
 1812TIP3    H126851   0.607   2.762  13.786 -0.5699 -0.5038 -1.6337
 1812TIP3    H226852   0.622   2.612  13.785  0.7282 -0.4722  1.6827
 1813TIP3   OH226853   4.644   2.871  14.739 -0.4210  0.1926  0.5748
 1813TIP3    H126854   4.570   2.819  14.770 -0.6772  0.8471  1.0884
 1813TIP3    H226855   4.698   2.809  14.691 -2.7356  0.2188 -2.4131
 1814TIP3   OH226856   1.938   5.483  16.952 -0.4100 -0.8736  0.1345
 1814TIP3    H126857   2.023   5.519  16.928 -1.7113  1.1877 -1.7552
 1814TIP3    H226858   1.885   5.560  16.974 -1.8172 -2.1066  1.2908
 1815TIP3   OH226859   2.538   4.545   0.623 -0.0831 -0.2193 -0.4648
 1815TIP3    H126860   2.624   4.521   0.659 -1.0893 -0.9805  1.5719
 1815TIP3    H226861   2.526   4.486   0.549  0.8705 -0.5805 -0.3478
 1816TIP3   OH226862   0.240   5.218   6.055  0.3219  0.6391 -0.1478
 1816TIP3    H126863   0.225   5.133   6.095  0.4550  0.7830  0.2171
 1816TIP3    H226864   0.334   5.234   6.066  0.2951  0.8397 -0.2006
 1817TIP3   OH226865   1.624   1.171   5.935  0.0851 -0.0364 -0.4035
 1817TIP3    H126866   1.542   1.127   5.958  0.1209 -0.7410 -1.5712
 1817TIP3    H226867   1.652   1.129   5.854  1.5366  0.2882 -0.0936
 1818TIP3   OH226868   0.108   4.496   2.807 -0.3413  0.2002 -0.0136
 1818TIP3    H126869   0.136   4.419   2.856 -1.2432  0.0815  0.3257
 1818TIP3    H226870   0.032   4.529   2.854 -2.4244 -0.9840 -2.2904
 1819TIP3   OH226871   5.077   3.222  14.357 -0.5804 -0.1173  0.1397
 1819TIP3    H126872   5.070   3.298  14.298 -0.5432 -1.3509 -1.5177
 1819TIP3    H226873   5.053   3.257  14.443  3.5134  2.8520  0.4143
 1820TIP3   OH226874   1.553   0.861  13.111  0.3465  0.1409 -0.1405
 1820TIP3    H126875   1.501   0.790  13.148  0.1661  1.0950  1.5355
 1820TIP3    H226876   1.490   0.931  13.093  0.6226  0.1623 -1.0956
 1821TIP3   OH226877   0.420   0.896  16.155 -0.5039  0.7274  0.0042
 1821TIP3    H126878   0.448   0.817  16.201  0.7279  0.9960 -0.2411
 1821TIP3    H226879   0.501   0.930  16.115 -1.2014  1.5409 -0.7532
 1822TIP3   OH226880   2.439   5.587  15.406  0.5691  1.0212  0.3954
 1822TIP3    H126881   2.347   5.612  15.405 -0.0003 -0.9248 -1.1063
 1822TIP3    H226882   2.459   5.562  15.316  1.6471 -1.6327  1.2766
 1823TIP3   OH226883   3.780   3.603  16.569  0.7922 -0.2450 -0.1366
 1823TIP3    H126884   3.806   3.576  16.657 -0.5047 -1.6290 -0.1256
 1823TIP3    H226885   3.738   3.688  16.581  1.7422  0.1710  0.3768
 1824TIP3   OH226886   4.395   3.848   5.354  0.7855 -0.4565 -0.2411
 1824TIP3    H126887   4.356   3.911   5.414  0.7527 -0.0244 -0.7186
 1824TIP3    H226888   4.421   3.775   5.411 -1.1117 -0.9740  0.0389
 1825TIP3   OH226889   4.035   2.022   5.867 -0.0538 -0.2557 -0.1491
 1825TIP3    H126890   4.001   1.937   5.894  1.3388 -1.2500 -1.3582
 1825TIP3    H226891   4.056   2.011   5.774 -1.7760  2.0597 -0.9100
 1826TIP3   OH226892   6.699   3.803  11.568 -0.0346  0.3974 -0.1158
 1826TIP3    H126893   6.769   3.869  11.569  1.6001 -1.2352 -1.0247
 1826TIP3    H226894   6.698   3.771  11.478  0.6671 -2.2427  0.7181
 1827TIP3   OH226895   3.264   0.536   4.681 -0.2446 -0.4341 -0.7657
 1827TIP3    H126896   3.267   0.609   4.620  1.0613 -1.3310 -1.8446
 1827TIP3    H226897   3.171   0.519   4.694 -0.5650  1.1809 -0.7504
 1828TIP3   OH226898   2.613   6.394  15.194  0.1173 -0.1928 -0.0436
 1828TIP3    H126899   2.677   6.346  15.142  0.7022 -0.4642  0.9246
 1828TIP3    H226900   2.637   6.378  15.285 -1.0457  0.0793  0.3324
 1829TIP3   OH226901   3.243   1.090   5.389 -0.1450 -0.3019 -0.3360
 1829TIP3    H126902   3.220   1.027   5.458  0.5250  0.0350  0.1962
 1829TIP3    H226903   3.307   1.045   5.335 -0.6429 -0.5524 -0.7327
 1830TIP3   OH226904   3.144   2.841   1.422  0.2709 -0.8888 -0.0182
 1830TIP3    H126905   3.157   2.902   1.494 -1.3825  0.8817 -1.1025
 1830TIP3    H226906   3.158   2.754   1.460  1.3057  0.0865  1.9257
 1831TIP3   OH226907   2.421   2.890  15.410 -0.5116  0.3457 -0.1409
 1831TIP3    H126908   2.453   2.977  15.389  0.9662 -0.2937 -0.6662
 1831TIP3    H226909   2.378   2.900  15.496  0.4643  1.3983  0.2402
 1832TIP3   OH226910   5.158   5.027  12.213  0.2917 -0.5220 -0.0704
 1832TIP3    H126911   5.105   4.975  12.273  0.0656  0.0845  0.2684
 1832TIP3    H226912   5.098   5.052  12.143 -0.4803  1.8813  1.3313
 1833TIP3   OH226913   4.367   2.292   4.861  0.3330  0.1883 -0.8479
 1833TIP3    H126914   4.355   2.200   4.883  1.4444  0.0135 -0.9357
 1833TIP3    H226915   4.310   2.306   4.785 -0.7567 -0.1099 -0.0995
 1834TIP3   OH226916   0.984   2.765  11.765 -0.0382  0.0162 -0.3892
 1834TIP3    H126917   1.043   2.732  11.832 -0.9498  0.2752  0.5742
 1834TIP3    H226918   0.909   2.706  11.768 -0.6574  0.7960 -0.2686
 1835TIP3   OH226919   0.663   0.994   5.080  0.0115 -0.3654  0.0852
 1835TIP3    H126920   0.743   1.042   5.061  0.0625 -0.4315  0.1341
 1835TIP3    H226921   0.621   0.983   4.994 -0.6966  0.9914  0.2331
 1836TIP3   OH226922   2.487   3.028  16.405  0.3361 -0.7207  0.3900
 1836TIP3    H126923   2.421   2.983  16.458 -0.7344  0.2214 -0.1011
 1836TIP3    H226924   2.555   3.054  16.468  0.3516 -1.8599  0.8755
 1837TIP3   OH226925   3.377   0.674   2.990  0.4256  0.0469 -0.1584
 1837TIP3    H126926   3.347   0.750   3.039  1.0605  0.0084  0.2902
 1837TIP3    H226927   3.391   0.607   3.056  2.4374  0.3529 -0.2280
 1838TIP3   OH226928   1.719   2.273  15.279 -0.8231 -0.0127 -0.4510
 1838TIP3    H126929   1.638   2.252  15.233 -1.1308 -0.0257  0.0908
 1838TIP3    H226930   1.746   2.190  15.319 -0.6519  0.0416 -0.4523
 1839TIP3   OH226931   5.723   5.496   0.312 -0.0700 -0.0436  0.3815
 1839TIP3    H126932   5.652   5.556   0.334  0.6035  0.9929 -0.1835
 1839TIP3    H226933   5.801   5.536   0.351  0.2442 -1.0694  0.8377
 1840TIP3   OH226934   5.097   2.549  14.747  0.9090  0.4316 -0.2875
 1840TIP3    H126935   5.079   2.455  14.749  0.6841  0.4633 -0.7055
 1840TIP3    H226936   5.188   2.555  14.716  1.2498  0.3188  0.6682
 1841TIP3   OH226937   6.772   6.556  11.767 -0.2851 -0.5433 -1.0343
 1841TIP3    H126938   6.685   6.569  11.728 -0.4969 -1.4161 -0.8865
 1841TIP3    H226939   6.757   6.564  11.861 -0.4440 -1.7896 -0.9270
 1842TIP3   OH226940   5.122   3.798  14.693 -0.7081  0.5634 -0.1484
 1842TIP3    H126941   5.044   3.791  14.638 -1.9840  1.2708  1.4997
 1842TIP3    H226942   5.186   3.742  14.650 -2.9995 -2.3463 -0.0732
 1843TIP3   OH226943   1.572   5.440  11.103  0.4856 -0.1021 -0.7911
 1843TIP3    H126944   1.530   5.462  11.020 -0.7074 -1.2014 -0.5046
 1843TIP3    H226945   1.520   5.486  11.169  1.5497  0.9303 -0.6437
 1844TIP3   OH226946   0.043   6.084  15.975  0.7864 -0.1285 -0.0509
 1844TIP3    H126947  -0.028   6.020  15.970  1.6018 -1.0636 -0.0766
 1844TIP3    H226948   0.010   6.161  15.929 -0.4795 -0.2693  0.5680
 1845TIP3   OH226949   2.659   6.248   0.499  0.1534  0.3102  0.2948
 1845TIP3    H126950   2.624   6.337   0.488 -1.5290 -0.5375 -2.1915
 1845TIP3    H226951   2.695   6.226   0.414 -1.2497 -2.0567  0.2261
 1846TIP3   OH226952   5.578   5.128   0.877  0.7967 -0.3433 -0.3773
 1846TIP3    H126953   5.553   5.100   0.965 -2.3699  0.1575 -1.0097
 1846TIP3    H226954   5.656   5.181   0.890  0.9163 -0.9926  2.0078
 1847TIP3   OH226955   2.174   3.832   0.673  0.0291 -0.1210  0.2844
 1847TIP3    H126956   2.082   3.807   0.688  0.2717  0.3832  3.2440
 1847TIP3    H226957   2.224   3.756   0.704  0.6199  0.3691  0.5558
 1848TIP3   OH226958   6.343   3.787   1.622  0.8448  0.2923  0.3221
 1848TIP3    H126959   6.382   3.728   1.688  0.0262  0.1119  0.6589
 1848TIP3    H226960   6.365   3.875   1.653 -0.5379  0.2511  1.5092
 1849TIP3   OH226961   4.084   0.504  17.071  0.4523 -0.1832 -0.1326
 1849TIP3    H126962   4.126   0.575  17.023 -0.2170 -0.5296 -1.2762
 1849TIP3    H226963   4.096   0.527  17.163  1.8501  0.4576 -0.4446
 1850TIP3   OH226964   4.024   6.687  13.916  0.0388 -0.1204 -0.2804
 1850TIP3    H126965   4.024   6.603  13.870 -0.5852  0.2248 -0.9234
 1850TIP3    H226966   4.000   6.664  14.006  2.5573 -0.9642  0.2438
 1851TIP3   OH226967   2.744   4.259  15.128 -0.4015  0.0218 -0.0871
 1851TIP3    H126968   2.747   4.174  15.171 -1.4704 -0.5610 -1.1082
 1851TIP3    H226969   2.691   4.245  15.050  0.1028  1.4358 -0.7258
 1852TIP3   OH226970   5.238   4.624  16.347  0.4470 -0.2390 -0.2370
 1852TIP3    H126971   5.166   4.658  16.293  0.8109  0.1272 -0.4946
 1852TIP3    H226972   5.208   4.636  16.437 -0.2892 -1.1221 -0.3506
 1853TIP3   OH226973   5.377   0.054  14.845 -0.5629 -0.6254  0.2651
 1853TIP3    H126974   5.410   0.139  14.818 -0.2981 -0.5230  0.8967
 1853TIP3    H226975   5.436   0.026  14.915 -0.1032 -1.7275 -0.5250
 1854TIP3   OH226976   2.229   4.910  12.497 -0.3950 -0.2851  0.4922
 1854TIP3    H126977   2.287   4.878  12.428  0.1334  1.2733  0.1847
 1854TIP3    H226978   2.287   4.938  12.567 -0.8737 -0.4921  0.9844
 1855TIP3   OH226979   3.169   4.000  16.112 -0.4245  0.0432  0.4252
 1855TIP3    H126980   3.226   3.934  16.152  0.7452  0.2301 -0.8822
 1855TIP3    H226981   3.098   3.949  16.073 -1.0511 -0.2082  1.8299
 1856TIP3   OH226982   2.851   2.247   1.634 -0.3069 -0.1283 -0.6773
 1856TIP3    H126983   2.794   2.178   1.669 -0.0760  0.8056  1.6490
 1856TIP3    H226984   2.829   2.325   1.684  0.5244  1.1653 -2.2208
 1857TIP3   OH226985   2.913   1.989   0.588 -0.2605  0.6691  0.0492
 1857TIP3    H126986   2.854   2.061   0.609 -2.4103 -0.8372 -0.5229
 1857TIP3    H226987   2.875   1.948   0.511  0.7737 -1.2219  0.4781
 1858TIP3   OH226988   6.071   3.644   1.685 -0.1952 -0.6014  0.4146
 1858TIP3    H126989   6.080   3.671   1.593 -2.0922  1.0018  0.6619
 1858TIP3    H226990   6.089   3.723   1.735 -1.7741 -0.7745  1.3138
 1859TIP3   OH226991   5.061   1.028   1.857  1.0788  0.2819  0.0756
 1859TIP3    H126992   4.979   0.978   1.859  0.8778  0.4767 -1.7077
 1859TIP3    H226993   5.122   0.974   1.907 -0.0574  0.0349  1.2829
 1860TIP3   OH226994   1.940   5.592  12.533 -0.0735 -0.3904 -0.3011
 1860TIP3    H126995   1.868   5.530  12.523  0.0147 -0.2897 -1.8757
 1860TIP3    H226996   1.898   5.678  12.539 -0.1884 -0.5351  1.7391
 1861TIP3   OH226997   4.404   1.191   0.434 -0.5915 -0.1047 -0.1146
 1861TIP3    H126998   4.439   1.107   0.463  0.2087  0.0819 -0.5002
 1861TIP3    H226999   4.315   1.171   0.404  0.2601 -1.2453 -2.1037
 1862TIP3   OH227000   6.562   2.567   3.520  0.5689  0.4212 -0.2757
 1862TIP3    H127001   6.493   2.617   3.477 -1.0376 -0.4654  1.1270
 1862TIP3    H227002   6.545   2.476   3.496  1.3941  0.2089 -0.0949
 1863TIP3   OH227003   2.205   4.144   3.794 -0.0174  0.3376 -0.0058
 1863TIP3    H127004   2.283   4.089   3.798 -0.0106  0.4054  0.9343
 1863TIP3    H227005   2.132   4.083   3.804 -0.1218  0.2256 -1.2518
 1864TIP3   OH227006   5.673   4.615   1.377 -0.1247  0.4122  0.1522
 1864TIP3    H127007   5.733   4.632   1.450  0.1585  0.1892 -0.0263
 1864TIP3    H227008   5.731   4.598   1.303 -0.3242 -2.1577  0.4737
 1865TIP3   OH227009   2.645   1.955   0.042  0.3676 -0.2708  0.1784
 1865TIP3    H127010   2.644   2.045   0.074 -0.3145 -0.1608 -0.1429
 1865TIP3    H227011   2.664   1.902   0.120  3.2151  0.2781 -0.0133
 1866TIP3   OH227012   2.218   5.916  15.167  0.3375 -0.6777  0.2447
 1866TIP3    H127013   2.296   5.959  15.132 -0.2319  0.5473  0.4090
 1866TIP3    H227014   2.151   5.929  15.100 -0.2304 -0.0334  0.9206
 1867TIP3   OH227015   6.188   5.888  16.921  0.4752 -0.0113  0.1592
 1867TIP3    H127016   6.187   5.796  16.948  1.0254 -0.0787 -0.0327
 1867TIP3    H227017   6.277   5.918  16.942  0.8332  0.0159 -1.2788
 1868TIP3   OH227018   4.565   2.504  10.965  0.2383  0.1848 -0.7001
 1868TIP3    H127019   4.611   2.428  10.929 -0.1283  0.0020 -0.7807
 1868TIP3    H227020   4.477   2.497  10.930  0.0318  0.3015 -0.2035
 1869TIP3   OH227021   4.954   4.299  11.872  0.3070 -0.5223  0.2854
 1869TIP3    H127022   5.044   4.287  11.843 -0.1539  0.7434 -1.8776
 1869TIP3    H227023   4.944   4.238  11.945  2.6787 -1.2124  0.1126
 1870TIP3   OH227024   5.470   1.326  11.210 -0.4517 -0.3834  0.0145
 1870TIP3    H127025   5.438   1.322  11.120 -1.0649 -1.3620  0.2591
 1870TIP3    H227026   5.491   1.418  11.224 -3.8242  0.5243  0.0408
 1871TIP3   OH227027   1.757   2.494  12.930  0.4653  0.2166 -0.1280
 1871TIP3    H127028   1.751   2.460  12.841  0.7541  1.1126 -0.5007
 1871TIP3    H227029   1.842   2.463  12.962  1.5050  1.9517 -1.0754
 1872TIP3   OH227030   0.052   6.544   3.047 -0.4101 -0.7103 -0.1609
 1872TIP3    H127031   0.122   6.599   3.083  1.2508 -2.3427 -0.7318
 1872TIP3    H227032   0.009   6.600   2.983  1.1918  0.0075 -0.6804
 1873TIP3   OH227033   6.227   6.168  11.830  0.1002  0.4400  0.1221
 1873TIP3    H127034   6.226   6.209  11.916  1.1453 -0.7547  0.7290
 1873TIP3    H227035   6.167   6.094  11.838 -0.2683  0.6830 -0.3654
 1874TIP3   OH227036   4.686   2.812   5.100  0.6206  0.4399  0.1356
 1874TIP3    H127037   4.612   2.807   5.160 -0.3283  1.4333 -0.8932
 1874TIP3    H227038   4.666   2.746   5.033  1.5514 -0.4945  0.7431
 1875TIP3   OH227039   4.562   5.907  15.738  0.0673  0.0271 -0.2295
 1875TIP3    H127040   4.516   5.829  15.704  0.2809  0.2144 -0.9643
 1875TIP3    H227041   4.507   5.980  15.711  0.2447  0.1817 -0.1690
 1876TIP3   OH227042   6.606   2.117   2.293 -0.0891 -0.0440 -0.2359
 1876TIP3    H127043   6.621   2.057   2.366  0.8454 -0.3303 -0.6466
 1876TIP3    H227044   6.694   2.145   2.267 -0.4826  1.0094 -0.4625
 1877TIP3   OH227045   5.436   3.117   0.537  0.1676 -0.0432  0.4422
 1877TIP3    H127046   5.413   3.063   0.612  0.4300  0.0897  0.6227
 1877TIP3    H227047   5.357   3.168   0.519  0.0290 -0.2430  0.4845
 1878TIP3   OH227048   3.955   0.021   5.325  0.3885 -0.0248  0.3538
 1878TIP3    H127049   3.861   0.015   5.310  0.4618  0.0426 -0.1384
 1878TIP3    H227050   3.990  -0.064   5.296  0.7335  0.6823 -1.4492
 1879TIP3   OH227051   3.622   1.288  12.773  0.1447  0.3970 -0.4904
 1879TIP3    H127052   3.642   1.359  12.712  0.6177  0.6682 -0.0225
 1879TIP3    H227053   3.672   1.213  12.740  1.3167  0.8494  0.2074
 1880TIP3   OH227054   0.118   3.479   2.239 -0.4474 -0.0205 -0.5229
 1880TIP3    H127055   0.153   3.458   2.153 -0.9725  0.4015 -0.8520
 1880TIP3    H227056   0.040   3.532   2.220 -0.6084  0.0119  0.2086
 1881TIP3   OH227057   3.660   0.022  14.688  0.7467 -0.2884  0.2808
 1881TIP3    H127058   3.723  -0.042  14.654  0.6643 -0.1991 -0.0481
 1881TIP3    H227059   3.709   0.070  14.755  1.7431  1.2053 -1.4032
 1882TIP3   OH227060   0.617   5.223   4.574 -0.8113  0.4545 -0.0084
 1882TIP3    H127061   0.523   5.235   4.586 -0.8756 -0.0093 -0.0060
 1882TIP3    H227062   0.638   5.274   4.496 -0.8951  1.2850  0.5068
 1883TIP3   OH227063   6.197   3.673   0.731 -0.2957 -0.2287  0.2788
 1883TIP3    H127064   6.249   3.667   0.811 -1.9725  0.3492  1.4763
 1883TIP3    H227065   6.109   3.646   0.758 -1.4850  2.3180 -0.7167
 1884TIP3   OH227066   0.136   2.176  14.050 -0.0336 -0.0371  0.1384
 1884TIP3    H127067   0.184   2.145  13.973 -0.2556 -0.8340  0.3100
 1884TIP3    H227068   0.202   2.221  14.102  0.3772 -0.5124  0.0371
 1885TIP3   OH227069   3.564   5.010  15.264  0.1619  0.3286  0.3622
 1885TIP3    H127070   3.576   4.972  15.351 -0.0771  1.1701  0.7738
 1885TIP3    H227071   3.577   5.104  15.277  0.2300  0.4511 -0.5325
 1886TIP3   OH227072   3.954   2.257  16.081  0.8504  0.2722 -0.2149
 1886TIP3    H127073   4.047   2.267  16.102  0.7396 -1.4714  1.3791
 1886TIP3    H227074   3.953   2.194  16.008  0.9006 -2.5211  2.0191
 1887TIP3   OH227075   4.761   4.387   5.250  0.3310  0.1675 -0.6818
 1887TIP3    H127076   4.844   4.351   5.282  0.8436  1.6527 -0.2760
 1887TIP3    H227077   4.713   4.311   5.218  1.7734 -0.7417 -0.7614
 1888TIP3   OH227078   5.709   1.685   2.522 -0.0642  0.0608  0.3745
 1888TIP3    H127079   5.617   1.711   2.533 -0.8525 -2.3658  0.0832
 1888TIP3    H227080   5.755   1.768   2.508 -2.0494  1.4418  1.3604
 1889TIP3   OH227081   0.433   6.738   0.030  0.6034 -0.2742  0.0162
 1889TIP3    H127082   0.399   6.787   0.105  1.6401 -1.3064  1.2207
 1889TIP3    H227083   0.391   6.652   0.036 -2.3557  0.7602 -2.9371
 1890TIP3   OH227084   4.098   1.426  11.626 -0.0993  0.3041 -0.2699
 1890TIP3    H127085   4.035   1.493  11.601  0.7370  0.8973 -0.8511
 1890TIP3    H227086   4.125   1.451  11.715  1.3010  1.6205 -1.0303
 1891TIP3   OH227087   1.077   2.805   2.961  0.1051  0.2366  0.5102
 1891TIP3    H127088   1.125   2.879   2.998 -0.8079  0.6955  0.8104
 1891TIP3    H227089   1.088   2.735   3.026  1.5181 -0.1310 -0.0814
 1892TIP3   OH227090   0.960   5.124   6.056 -0.6549  0.3997  0.4736
 1892TIP3    H127091   0.975   5.177   5.977  0.4288 -2.5892 -1.4815
 1892TIP3    H227092   0.865   5.111   6.058 -0.8346  1.5756  0.4664
 1893TIP3   OH227093   4.689   0.462  11.195  0.9060 -0.2864  0.0431
 1893TIP3    H127094   4.596   0.442  11.199  0.8971 -0.0244  1.6530
 1893TIP3    H227095   4.705   0.482  11.102 -0.5454 -0.6943 -0.3178
 1894TIP3   OH227096   1.691   5.447   3.553 -0.5677 -0.2441 -0.2736
 1894TIP3    H127097   1.643   5.466   3.473  0.5930  0.2828 -0.8686
 1894TIP3    H227098   1.743   5.369   3.532  0.5255  0.4903 -0.4060
 1895TIP3   OH227099   5.979   2.615  13.918 -0.0268 -0.0314  0.1336
 1895TIP3    H127100   5.969   2.703  13.882 -0.2930 -1.0187 -2.4231
 1895TIP3    H227101   5.890   2.579  13.919  0.4493 -1.5718 -2.6760
 1896TIP3   OH227102   5.565   4.806  15.104 -0.5739 -0.1818  0.1350
 1896TIP3    H127103   5.531   4.772  15.186  0.5736 -2.0637 -0.1073
 1896TIP3    H227104   5.660   4.810  15.117 -0.2914 -1.3165 -1.3483
 1897TIP3   OH227105   5.078   2.965  14.086  0.9425  0.3203 -0.2939
 1897TIP3    H127106   5.100   2.872  14.090 -0.5191 -0.1243 -1.5027
 1897TIP3    H227107   4.983   2.967  14.098  0.9363  1.6551 -0.4304
 1898TIP3   OH227108   5.935   3.471  15.634 -0.3003 -0.1602  0.3679
 1898TIP3    H127109   6.008   3.411  15.626 -1.6453 -1.7705 -0.4256
 1898TIP3    H227110   5.928   3.490  15.727  1.2748  0.2784  0.4250
 1899TIP3   OH227111   4.713   1.073  14.452  0.7751 -0.0043 -0.0662
 1899TIP3    H127112   4.694   0.985  14.485 -0.9519 -0.0707 -1.1299
 1899TIP3    H227113   4.746   1.059  14.364  2.8487  0.3190  0.6118
 1900TIP3   OH227114   5.896   5.325  13.751  0.5306 -0.2813  0.4407
 1900TIP3    H127115   5.925   5.414  13.771 -1.5788  0.4350  0.5044
 1900TIP3    H227116   5.966   5.289  13.696  0.9893  1.7403 -0.3940
 1901TIP3   OH227117   4.523   6.134  13.803  0.2161 -0.0037  0.2280
 1901TIP3    H127118   4.571   6.155  13.723 -0.5025  0.7579 -0.0139
 1901TIP3    H227119   4.545   6.043  13.821  0.8016 -0.0243 -0.5410
 1902TIP3   OH227120   2.957   2.179  13.037 -0.0459 -0.0884  0.1012
 1902TIP3    H127121   3.049   2.205  13.038 -0.2841  0.7748  0.1880
 1902TIP3    H227122   2.921   2.219  12.958  0.1598 -2.3199 -1.2281
 1903TIP3   OH227123   2.790   4.357   6.446 -0.4570  0.0763  0.1761
 1903TIP3    H127124   2.885   4.352   6.435 -0.5472 -3.1530  0.0176
 1903TIP3    H227125   2.767   4.444   6.413  2.4856  1.2881  0.9678
 1904TIP3   OH227126   1.577   3.591  16.442 -0.7388  0.0794 -0.1226
 1904TIP3    H127127   1.664   3.559  16.468 -0.8754  1.2200  1.9329
 1904TIP3    H227128   1.594   3.648  16.367  0.0491 -1.0929 -0.8648
 1905TIP3   OH227129   2.547   2.441  14.081 -0.6060  0.2241 -0.1430
 1905TIP3    H127130   2.505   2.479  14.158  0.6713  1.1071  0.1581
 1905TIP3    H227131   2.539   2.347  14.092 -0.4215  0.3401  1.1047
 1906TIP3   OH227132   1.650   0.058   2.275  0.2082  0.2071 -0.0253
 1906TIP3    H127133   1.728   0.060   2.331  2.6686  1.5438 -3.2016
 1906TIP3    H227134   1.617  -0.031   2.285  1.6023 -0.1629  2.0682
 1907TIP3   OH227135   4.220   2.471   3.178  0.2379 -0.6973  0.6883
 1907TIP3    H127136   4.258   2.552   3.145 -0.3901 -0.6501  0.0767
 1907TIP3    H227137   4.150   2.499   3.236  0.7884 -0.7949  1.4211
 1908TIP3   OH227138   2.537   0.779   5.004 -0.5779 -0.0156 -0.5009
 1908TIP3    H127139   2.618   0.761   5.051  0.2578  0.4832 -1.6800
 1908TIP3    H227140   2.488   0.697   5.007  0.3809 -0.5997 -0.5403
 1909TIP3   OH227141   3.317   2.649   4.654  0.0741  0.1138 -0.1872
 1909TIP3    H127142   3.367   2.693   4.723  0.6215  0.4695 -0.8024
 1909TIP3    H227143   3.358   2.564   4.645 -0.4654 -0.2182  0.4325
 1910TIP3   OH227144   2.885   2.733  14.860  0.2607  0.0747  0.3833
 1910TIP3    H127145   2.798   2.752  14.826  0.7970  0.7531 -0.6667
 1910TIP3    H227146   2.876   2.648  14.902 -0.6923 -0.3061 -0.5441
 1911TIP3   OH227147   0.966   3.614   5.970 -0.2463 -0.3096 -0.1407
 1911TIP3    H127148   0.979   3.649   5.882 -0.2266 -0.2299 -0.1057
 1911TIP3    H227149   1.007   3.678   6.028 -1.8645  0.5958  0.0632
 1912TIP3   OH227150   1.949   3.088   4.787  0.1813  0.1383 -0.2234
 1912TIP3    H127151   2.006   3.123   4.719 -0.3467 -0.2812 -0.8951
 1912TIP3    H227152   1.921   3.002   4.754 -0.9786  0.4086 -0.0079
 1913TIP3   OH227153   4.052   2.266  11.582  0.4692 -0.5290 -0.0590
 1913TIP3    H127154   4.089   2.308  11.505 -0.5072 -1.6248 -1.1654
 1913TIP3    H227155   4.049   2.335  11.648  0.7312  0.6031 -1.1981
 1914TIP3   OH227156   4.795   2.698   2.880 -0.2418 -0.5023 -0.5356
 1914TIP3    H127157   4.818   2.790   2.867 -0.8922 -0.4046 -1.0457
 1914TIP3    H227158   4.842   2.651   2.811  0.3762 -0.6016 -0.0541
 1915TIP3   OH227159   4.130   2.529   5.931  0.2327  0.0567  0.4390
 1915TIP3    H127160   4.146   2.439   5.958  0.9739 -0.7627 -2.4269
 1915TIP3    H227161   4.209   2.555   5.885 -0.9325  1.2757 -0.9746
 1916TIP3   OH227162   0.259   5.500  12.949 -0.2148 -0.1417 -0.8921
 1916TIP3    H127163   0.346   5.535  12.933 -0.9296  0.7719 -3.3252
 1916TIP3    H227164   0.233   5.460  12.865 -1.6907 -1.4235  0.1063
 1917TIP3   OH227165   3.284   4.318  11.757  0.2041 -0.1797  0.2156
 1917TIP3    H127166   3.360   4.366  11.791  0.5205 -0.3319 -0.2697
 1917TIP3    H227167   3.253   4.372  11.684 -0.8674  0.4800  1.1408
 1918TIP3   OH227168   5.808   1.446   3.477  0.2731  0.4042 -0.3256
 1918TIP3    H127169   5.820   1.502   3.401  0.0794 -0.9171 -1.3774
 1918TIP3    H227170   5.734   1.390   3.453 -0.5443  0.7297  1.3245
 1919TIP3   OH227171   1.121   2.191   1.700 -0.9717  0.3693 -0.1498
 1919TIP3    H127172   1.114   2.285   1.690 -1.1866  0.2416 -1.2747
 1919TIP3    H227173   1.115   2.176   1.795  0.4306  1.5838  0.1628
 1920TIP3   OH227174   5.018   5.966  10.995  0.1610 -0.0105  0.1712
 1920TIP3    H127175   4.980   5.882  11.021 -1.8862  1.2537  1.5823
 1920TIP3    H227176   4.953   6.003  10.935  0.8886  0.7063 -0.1863
 1921TIP3   OH227177   1.807   2.477  14.505 -0.7872  0.3213 -0.5478
 1921TIP3    H127178   1.876   2.533  14.539 -1.1985  0.0148  0.8520
 1921TIP3    H227179   1.842   2.388  14.514 -0.9268  0.2321 -0.8729
 1922TIP3   OH227180   0.239   3.286  17.228 -0.2953  0.4717  0.6671
 1922TIP3    H127181   0.235   3.266  17.321  0.4497 -0.8990  0.4413
 1922TIP3    H227182   0.257   3.201  17.186 -1.4323  0.9018 -0.7968
 1923TIP3   OH227183   2.679   5.324   6.032 -0.1425  0.6221  0.2645
 1923TIP3    H127184   2.683   5.233   6.062  0.3897  0.2124 -0.9987
 1923TIP3    H227185   2.618   5.366   6.092 -0.7272 -0.6684  0.6046
 1924TIP3   OH227186   6.252   4.837  14.903 -0.0269 -0.0540 -0.3433
 1924TIP3    H127187   6.174   4.797  14.863  0.6896 -3.0714  0.9670
 1924TIP3    H227188   6.225   4.854  14.994  0.5277 -0.1334 -0.1646
 1925TIP3   OH227189   0.781   1.051   1.192 -0.4716 -0.3592  0.0586
 1925TIP3    H127190   0.708   1.080   1.247  2.2977  2.5661  2.5864
 1925TIP3    H227191   0.844   1.013   1.253  1.9709  1.3335 -1.2191
 1926TIP3   OH227192   0.903   6.640  12.891 -0.1481  0.3696 -0.0070
 1926TIP3    H127193   0.974   6.577  12.879 -1.2388 -1.1566  1.3165
 1926TIP3    H227194   0.887   6.674  12.803  1.1872 -0.3801 -0.5711
 1927TIP3   OH227195   1.712   0.989   5.404 -0.0844 -0.4177  0.4189
 1927TIP3    H127196   1.746   0.900   5.409 -0.3034 -0.5716 -0.5728
 1927TIP3    H227197   1.770   1.040   5.460  1.5463 -0.7527 -0.8821
 1928TIP3   OH227198   1.915   4.056   0.580  0.3614 -0.3701  0.3555
 1928TIP3    H127199   2.008   4.058   0.603 -0.1166 -1.4380  2.6704
 1928TIP3    H227200   1.888   3.966   0.596 -1.0762 -0.0875 -0.3198
 1929TIP3   OH227201   0.249   1.668  16.992  0.4276  0.4912  0.1387
 1929TIP3    H127202   0.196   1.598  17.031 -0.5223 -0.6866 -2.9572
 1929TIP3    H227203   0.329   1.670  17.045 -0.0683 -2.0700  1.1263
 1930TIP3   OH227204   0.337   0.856   5.121 -0.1889  0.2240  0.5068
 1930TIP3    H127205   0.305   0.812   5.043 -1.1893 -0.0916  1.0749
 1930TIP3    H227206   0.417   0.808   5.144  0.0069  0.1976 -0.2068
 1931TIP3   OH227207   4.161   1.732  11.908 -0.4673 -0.0872  0.0734
 1931TIP3    H127208   4.250   1.765  11.919 -0.1582 -1.0927  0.7382
 1931TIP3    H227209   4.158   1.701  11.817 -0.8477  1.9306 -0.6514
 1932TIP3   OH227210   3.418   3.605  13.105  0.2466 -0.2368  0.1444
 1932TIP3    H127211   3.347   3.591  13.167 -0.3140  0.1020 -0.4093
 1932TIP3    H227212   3.431   3.520  13.063 -0.4969 -0.0659 -0.4432
 1933TIP3   OH227213   1.703   6.247   2.282  0.2490  0.4840  0.4616
 1933TIP3    H127214   1.766   6.314   2.257  1.4020 -0.8235 -0.2732
 1933TIP3    H227215   1.754   6.166   2.285 -1.2178 -0.4695  0.7192
 1934TIP3   OH227216   3.454   5.475   4.652  0.1735  0.0003 -0.1328
 1934TIP3    H127217   3.420   5.555   4.694 -1.1723 -0.8697  0.5371
 1934TIP3    H227218   3.399   5.405   4.688  1.8033 -1.3259 -0.1429
 1935TIP3   OH227219   1.970   6.007   0.648 -0.6079 -0.4263  0.2585
 1935TIP3    H127220   1.971   6.085   0.702 -0.0796 -0.6398  0.5703
 1935TIP3    H227221   2.061   5.996   0.620 -1.1744  0.8407 -2.3881
 1936TIP3   OH227222   4.249   4.673   2.225 -0.0239 -0.1293  0.7317
 1936TIP3    H127223   4.299   4.734   2.280 -0.3295 -0.3289  1.2342
 1936TIP3    H227224   4.165   4.663   2.270 -0.7043  0.5428 -0.3273
 1937TIP3   OH227225   6.061   3.996   5.732 -0.4664  0.3419  0.2704
 1937TIP3    H127226   6.005   4.010   5.656 -1.0193  0.2150  0.6480
 1937TIP3    H227227   6.003   4.007   5.808  0.3142  1.5624  0.7134
 1938TIP3   OH227228   1.269   2.590   1.978  0.2177 -0.4969 -0.4687
 1938TIP3    H127229   1.333   2.554   2.040  1.1176 -0.0590 -1.1253
 1938TIP3    H227230   1.313   2.588   1.894 -1.3383 -2.0334 -1.3216
 1939TIP3   OH227231   1.634   1.491  16.918 -0.4194  0.0707 -0.5529
 1939TIP3    H127232   1.715   1.496  16.868 -0.1963  0.2395 -0.1804
 1939TIP3    H227233   1.567   1.529  16.860 -0.4147 -0.9152 -1.2213
 1940TIP3   OH227234   5.385   3.411   4.000  0.2095 -0.3324 -0.6998
 1940TIP3    H127235   5.419   3.471   3.934  0.4716 -0.2050 -0.4501
 1940TIP3    H227236   5.460   3.391   4.056 -0.0219 -0.3976 -0.4064
 1941TIP3   OH227237   1.961   3.499  11.828  0.0961  0.5004 -0.0223
 1941TIP3    H127238   1.993   3.413  11.801 -0.5016 -0.3356  1.7747
 1941TIP3    H227239   1.960   3.495  11.924 -2.6919  1.4827  0.0679
 1942TIP3   OH227240   1.492   2.914   5.537  0.3654  0.1114 -0.2893
 1942TIP3    H127241   1.458   2.987   5.485 -1.1513  0.4705  1.0958
 1942TIP3    H227242   1.460   2.836   5.492  1.4954  0.2774 -1.4466
 1943TIP3   OH227243   3.723   0.177   1.853  0.1643  0.5321 -0.1599
 1943TIP3    H127244   3.742   0.095   1.898  1.2113  0.8304 -0.0180
 1943TIP3    H227245   3.769   0.244   1.904 -1.0117  1.2730 -0.0365
 1944TIP3   OH227246   0.086   6.161   0.567  0.9988  0.0556 -0.2559
 1944TIP3    H127247   0.098   6.144   0.660  0.6116  1.1774  0.0196
 1944TIP3    H227248   0.121   6.249   0.554 -0.3442  0.5359 -0.8436
 1945TIP3   OH227249   1.057   4.102   4.287  0.0511 -0.0245  0.6955
 1945TIP3    H127250   1.143   4.144   4.288  0.0216  0.0641 -0.0337
 1945TIP3    H227251   1.054   4.056   4.203 -1.4220  1.6827 -0.2524
 1946TIP3   OH227252   4.860   6.363  13.939  0.4769  0.0698  0.0962
 1946TIP3    H127253   4.858   6.346  14.034 -2.1296  0.1373  0.1162
 1946TIP3    H227254   4.933   6.425  13.928  0.4175  0.5867  2.1635
 1947TIP3   OH227255   4.542   1.203  13.107 -0.2582  0.0213  0.1925
 1947TIP3    H127256   4.620   1.251  13.133 -0.0344 -0.1245 -0.2060
 1947TIP3    H227257   4.470   1.263  13.123  0.1071  0.9078 -1.3365
 1948TIP3   OH227258   5.171   2.364  12.036 -0.3328  0.4805 -0.0408
 1948TIP3    H127259   5.126   2.445  12.013  1.1595  1.0269 -1.1803
 1948TIP3    H227260   5.259   2.391  12.063  1.0936 -0.8471 -2.9428
 1949TIP3   OH227261   4.317   4.976   2.796  0.2643  0.1005  0.7350
 1949TIP3    H127262   4.251   4.993   2.864 -0.2634 -1.2205  0.5704
 1949TIP3    H227263   4.338   5.063   2.762  0.1961  0.7530  2.2642
 1950TIP3   OH227264   4.632   0.548   3.657  0.1407  0.4190 -0.0619
 1950TIP3    H127265   4.568   0.589   3.715  0.8056  1.3337  0.0491
 1950TIP3    H227266   4.687   0.496   3.716 -0.5862 -0.5042 -0.1784
 1951TIP3   OH227267   6.059   2.322  13.873  0.2933  0.1566  0.1679
 1951TIP3    H127268   6.001   2.263  13.921  2.2715 -0.7696  1.5641
 1951TIP3    H227269   6.031   2.410  13.900  0.0519 -0.2958  1.4681
 1952TIP3   OH227270   0.465   5.269   5.537 -0.1044 -0.1476 -0.0313
 1952TIP3    H127271   0.374   5.243   5.523  0.1006 -0.7118 -0.3357
 1952TIP3    H227272   0.466   5.309   5.624 -0.6339 -0.1655 -0.0138
 1953TIP3   OH227273   3.146   6.623   0.945  0.5846  0.0712 -0.2746
 1953TIP3    H127274   3.072   6.624   1.006  0.5637  1.3432 -0.2911
 1953TIP3    H227275   3.108   6.650   0.861  0.6438 -1.5156 -0.8460
 1954TIP3   OH227276   6.084   3.448  11.888  0.2247 -0.4763 -0.5588
 1954TIP3    H127277   6.107   3.478  11.976  0.6291  3.0318 -1.6875
 1954TIP3    H227278   6.001   3.493  11.868  0.0912 -1.2649 -1.9619
 1955TIP3   OH227279   6.076   4.800  15.503  0.0714  0.0397  0.5707
 1955TIP3    H127280   6.149   4.860  15.519  1.1246 -0.9630 -0.3064
 1955TIP3    H227281   6.008   4.855  15.464 -0.3713  1.3573  2.9837
 1956TIP3   OH227282   5.706   4.147   1.030 -0.0433 -0.2238  0.8798
 1956TIP3    H127283   5.623   4.141   0.983 -0.4875 -1.0941  1.7387
 1956TIP3    H227284   5.758   4.211   0.980 -0.4649 -1.1342 -0.7845
 1957TIP3   OH227285   4.253   0.563  14.331 -0.5561 -0.2638 -0.8026
 1957TIP3    H127286   4.325   0.499  14.328 -0.5059 -0.2132 -0.6529
 1957TIP3    H227287   4.282   0.629  14.394 -1.6732 -1.3834  0.9541
 1958TIP3   OH227288   4.013   4.609  13.343  0.2395 -0.0607  0.4250
 1958TIP3    H127289   3.982   4.696  13.315 -2.4915 -1.2194 -0.4799
 1958TIP3    H227290   3.935   4.554  13.342  1.9796 -2.7123  0.4221
 1959TIP3   OH227291   6.575   1.481   1.028 -0.2071  0.7062  0.5614
 1959TIP3    H127292   6.516   1.423   0.980  1.4849  0.0570 -0.8803
 1959TIP3    H227293   6.567   1.454   1.119 -1.7340  0.3147  0.3341
 1960TIP3   OH227294   0.086   5.549  15.931 -0.4170 -0.6584  0.1810
 1960TIP3    H127295   0.141   5.605  15.985  0.3258  0.4384 -1.6139
 1960TIP3    H227296   0.139   5.470  15.917 -0.1375 -0.4635  0.1238
 1961TIP3   OH227297   4.218   1.852  11.436  0.0881  0.7488 -0.2433
 1961TIP3    H127298   4.232   1.945  11.415  0.0221  0.2249 -2.8925
 1961TIP3    H227299   4.292   1.829  11.493  1.5432  1.8028 -1.6244
 1962TIP3   OH227300   2.623   5.682   0.383 -0.1839  0.1226 -0.1334
 1962TIP3    H127301   2.711   5.706   0.353 -0.2438  1.0247  0.3751
 1962TIP3    H227302   2.637   5.649   0.472 -0.3411  0.1081 -0.1147
 1963TIP3   OH227303   2.343   2.558  13.535 -0.0699 -0.0336  0.0332
 1963TIP3    H127304   2.419   2.501  13.522  0.6410  0.7757  0.5387
 1963TIP3    H227305   2.277   2.502  13.576  0.0885 -0.8500 -0.8007
 1964TIP3   OH227306   2.090   5.463  16.541  0.5666  0.1362  0.7422
 1964TIP3    H127307   2.133   5.410  16.609 -0.0325  0.2473  1.2144
 1964TIP3    H227308   2.132   5.548  16.547  1.1313 -0.1113  0.3703
 1965TIP3   OH227309   5.948   2.655   2.582  0.6949 -0.4845  0.5620
 1965TIP3    H127310   5.907   2.740   2.569 -2.9374 -1.9133  1.3881
 1965TIP3    H227311   5.978   2.629   2.495  0.1859  0.8667 -0.0366
 1966TIP3   OH227312   1.486   2.517   5.292  0.0905  0.0853  0.0853
 1966TIP3    H127313   1.533   2.505   5.210  0.2194 -3.6011  0.5394
 1966TIP3    H227314   1.545   2.483   5.360 -1.1000  0.4645  1.3691
 1967TIP3   OH227315   3.021   5.755   2.746  0.5147 -0.0199  0.0657
 1967TIP3    H127316   2.986   5.710   2.823  0.4801 -0.3692 -0.1520
 1967TIP3    H227317   2.955   5.822   2.725 -0.0371 -0.6870 -0.3555
 1968TIP3   OH227318   5.972   5.298  11.436  0.1559  0.1645 -0.0022
 1968TIP3    H127319   5.915   5.222  11.425 -0.1757  0.3941  0.1061
 1968TIP3    H227320   5.996   5.323  11.347  1.3684 -0.8838  0.0078
 1969TIP3   OH227321   5.605   3.436  14.934  0.0703 -0.5207  0.6873
 1969TIP3    H127322   5.532   3.425  14.994 -0.5710  1.4957  0.3459
 1969TIP3    H227323   5.571   3.411  14.848 -0.5025  1.1519  0.3960
 1970TIP3   OH227324   4.427   6.392  13.222 -0.3241 -0.2871 -0.5572
 1970TIP3    H127325   4.415   6.409  13.129 -1.2399 -2.2827 -0.8460
 1970TIP3    H227326   4.485   6.462  13.252  0.1537  0.2715 -2.6555
 1971TIP3   OH227327   2.759   0.554  11.693 -0.3642  0.4996 -0.2772
 1971TIP3    H127328   2.780   0.635  11.740  0.0786 -0.8818  2.0963
 1971TIP3    H227329   2.832   0.495  11.713 -2.1032 -1.4632  0.6295
 1972TIP3   OH227330   1.495   2.987   3.962 -0.2131  0.3519 -0.1806
 1972TIP3    H127331   1.449   3.069   3.943 -0.4878  0.3978  0.6434
 1972TIP3    H227332   1.426   2.921   3.960  0.2462 -0.1525 -2.4938
 1973TIP3   OH227333   6.591   1.067   5.217 -0.2845 -0.0903  0.1750
 1973TIP3    H127334   6.597   1.060   5.122  1.1831  1.6886  0.0808
 1973TIP3    H227335   6.681   1.056   5.248 -0.3395  1.6626  1.1340
 1974TIP3   OH227336   3.261   2.494  14.690  0.2407  0.1132  0.6759
 1974TIP3    H127337   3.342   2.507  14.641 -0.2666 -0.5831 -0.3660
 1974TIP3    H227338   3.195   2.542  14.641 -0.3464 -0.9033  0.4493
 1975TIP3   OH227339   4.976   3.085  17.005  0.6327  0.0280  0.4895
 1975TIP3    H127340   4.973   3.004  16.953  0.1665 -0.9919  2.0346
 1975TIP3    H227341   4.885   3.113  17.010  0.7474  0.4428  0.2991
 1976TIP3   OH227342   2.931   6.327   1.602 -0.1674 -0.3265  0.7438
 1976TIP3    H127343   3.026   6.318   1.588  0.0995  2.1947  0.5188
 1976TIP3    H227344   2.919   6.418   1.627 -2.6459 -0.3710 -0.0203
 1977TIP3   OH227345   0.048   5.515  13.145 -0.6887 -0.4845  0.0364
 1977TIP3    H127346   0.024   5.431  13.184  1.6328 -0.6034  1.4123
 1977TIP3    H227347   0.120   5.494  13.085 -0.9530  0.3586 -0.6016
 1978TIP3   OH227348   4.089   2.058   4.320  0.2136 -0.0994 -0.0374
 1978TIP3    H127349   4.072   2.148   4.349  2.2051 -0.2949  1.9968
 1978TIP3    H227350   4.139   2.068   4.239 -0.9523  0.5486 -0.7112
 1979TIP3   OH227351   5.263   0.772  17.195 -0.2755 -0.1668 -0.1078
 1979TIP3    H127352   5.246   0.866  17.185  0.8859  0.2038  1.0436
 1979TIP3    H227353   5.298   0.744  17.111 -1.1573  0.3060 -0.6411
 1980TIP3   OH227354   5.320   3.546   3.013  0.2598  0.1171  0.0366
 1980TIP3    H127355   5.247   3.608   3.016 -0.7904 -1.0562 -0.5154
 1980TIP3    H227356   5.384   3.582   3.075 -0.9167  1.0061  0.7795
 1981TIP3   OH227357   0.670   0.499   3.553 -1.2953 -0.7044  0.2376
 1981TIP3    H127358   0.597   0.461   3.601 -0.9022 -1.6902  0.0738
 1981TIP3    H227359   0.688   0.437   3.482 -0.5510 -0.2902  0.0475
 1982TIP3   OH227360   2.646   2.728   6.155  0.3164 -0.4195 -0.3434
 1982TIP3    H127361   2.573   2.780   6.121 -0.7935 -2.5386 -1.3747
 1982TIP3    H227362   2.718   2.746   6.094  1.0078  2.2624  1.1015
 1983TIP3   OH227363   3.087   4.207  12.463 -0.4355  0.5852  0.1248
 1983TIP3    H127364   3.041   4.282  12.424  2.3581  1.9552 -0.7873
 1983TIP3    H227365   3.059   4.206  12.554 -2.3055  1.2639 -0.4000
 1984TIP3   OH227366   5.537   3.386   6.459 -0.4512 -0.1196 -0.0962
 1984TIP3    H127367   5.586   3.355   6.535 -0.1688  1.6704  0.5101
 1984TIP3    H227368   5.450   3.407   6.494 -0.3217  0.7050 -0.2343
 1985TIP3   OH227369   3.082   5.264  12.902 -0.1119  0.3827 -0.1579
 1985TIP3    H127370   3.074   5.170  12.886  0.1283  0.3677 -0.1996
 1985TIP3    H227371   3.138   5.271  12.980 -0.2202  0.4883 -0.0886
 1986TIP3   OH227372   3.149   3.022  12.897  0.0858  0.6136 -0.5473
 1986TIP3    H127373   3.238   2.988  12.892 -0.7976 -1.8789 -1.0586
 1986TIP3    H227374   3.122   3.005  12.987  0.0799  1.2811 -0.4176
 1987TIP3   OH227375   3.127   4.581   3.763  0.2990  0.2343  0.0058
 1987TIP3    H127376   3.031   4.585   3.764  0.3047  0.2799  1.3140
 1987TIP3    H227377   3.154   4.620   3.845  1.3030 -2.7928  1.2715
 1988TIP3   OH227378   2.669   0.124   2.495 -0.1248 -0.2639 -0.5494
 1988TIP3    H127379   2.604   0.115   2.564  0.8056  0.7095  0.4862
 1988TIP3    H227380   2.693   0.217   2.496  0.9684 -0.5164 -1.1875
 1989TIP3   OH227381   2.662   0.113  14.688 -0.1839 -0.4133  0.5263
 1989TIP3    H127382   2.594   0.050  14.710  0.3434 -1.4072 -0.5508
 1989TIP3    H227383   2.743   0.062  14.688  0.6256  0.7890  2.0212
 1990TIP3   OH227384   3.220   6.335   1.270 -0.1031 -0.4420 -0.2068
 1990TIP3    H127385   3.307   6.298   1.257  0.3583  0.1898  0.9153
 1990TIP3    H227386   3.188   6.294   1.350 -0.7803 -0.5536 -0.5261
 1991TIP3   OH227387   6.361   5.550  16.468  0.4490 -0.0151 -0.2303
 1991TIP3    H127388   6.339   5.640  16.443 -0.7969 -0.3626 -0.4265
 1991TIP3    H227389   6.347   5.498  16.389 -0.8309 -0.6877  0.4052
 1992TIP3   OH227390   4.558   1.199   6.081  0.3326  0.7066  0.5405
 1992TIP3    H127391   4.480   1.161   6.120  0.6697  1.3527  1.9150
 1992TIP3    H227392   4.536   1.291   6.067  0.7216  0.8197  0.6408
 1993TIP3   OH227393   0.448   2.955   2.535  0.5539  0.0558 -0.4591
 1993TIP3    H127394   0.474   2.956   2.443  0.2822 -0.1384 -0.5394
 1993TIP3    H227395   0.355   2.977   2.534  0.9542  1.9626 -0.0919
 1994TIP3   OH227396   4.279   1.258  12.083  0.3884  0.5173 -0.1374
 1994TIP3    H127397   4.241   1.207  12.154  1.8924 -2.3628 -1.2533
 1994TIP3    H227398   4.363   1.216  12.066 -0.4728  0.0944 -4.5257
 1995TIP3   OH227399   5.101   0.925  14.342 -0.2394  0.0156 -0.1698
 1995TIP3    H127400   5.175   0.918  14.281  0.7246  1.3413  0.7579
 1995TIP3    H227401   5.085   0.835  14.371  2.2698 -0.1613  0.9732
 1996TIP3   OH227402   0.097   3.829   0.899  0.1477  0.0183 -0.6995
 1996TIP3    H127403   0.182   3.786   0.901  0.5056  0.7308  1.3166
 1996TIP3    H227404   0.035   3.761   0.926  0.0929 -0.4041 -1.8322
 1997TIP3   OH227405   0.898   4.663   4.473 -0.3720 -0.0662 -0.0992
 1997TIP3    H127406   0.829   4.722   4.441  0.1207  0.1650 -0.7494
 1997TIP3    H227407   0.973   4.720   4.489  0.5576 -0.6541 -2.0293
 1998TIP3   OH227408   0.336   5.998  14.100  0.2278  0.1924 -0.1168
 1998TIP3    H127409   0.299   6.082  14.073 -0.9836  0.8500  3.1695
 1998TIP3    H227410   0.260   5.943  14.119  1.0118 -1.3426 -1.1511
 1999TIP3   OH227411   6.601   3.143  15.626  0.3145  0.9350 -0.4130
 1999TIP3    H127412   6.645   3.061  15.606 -0.6227  0.1912  0.4810
 1999TIP3    H227413   6.665   3.193  15.676  1.6670  1.6754 -2.7127
 2000TIP3   OH227414   6.008   2.317   0.880 -0.4732 -0.4077  0.0704
 2000TIP3    H127415   6.037   2.231   0.912  0.4968 -0.3249 -0.5420
 2000TIP3    H227416   5.915   2.306   0.862 -0.4435 -1.2180  0.3741
 2001TIP3   OH227417   4.691   0.695   1.218  0.9949  0.6709 -0.8931
 2001TIP3    H127418   4.773   0.646   1.214 -0.5099 -1.9417 -2.5637
 2001TIP3    H227419   4.707   0.773   1.165  2.2984  0.0458 -1.4713
 2002TIP3   OH227420   4.234   2.205   6.241 -0.3019  0.2946  0.3960
 2002TIP3    H127421   4.254   2.253   6.322 -0.4849 -0.2090  0.7487
 2002TIP3    H227422   4.195   2.123   6.272 -1.9097  0.7880 -0.2435
 2003TIP3   OH227423   2.866   2.965   0.206 -0.1204  0.5310  0.1188
 2003TIP3    H127424   2.953   2.927   0.199 -0.3576 -0.0513  0.2431
 2003TIP3    H227425   2.808   2.890   0.218 -0.5370  0.9728  0.9833
 2004TIP3   OH227426   6.022   6.456   5.475 -0.1402  0.4214 -0.0510
 2004TIP3    H127427   6.012   6.508   5.555 -0.5469 -0.6827  0.6356
 2004TIP3    H227428   5.972   6.504   5.409 -2.1273 -0.0748  1.0391
 2005TIP3   OH227429   5.992   0.615  11.114 -0.2876 -0.1470 -0.1217
 2005TIP3    H127430   6.053   0.547  11.084  0.4019  0.9039 -1.2189
 2005TIP3    H227431   5.928   0.622  11.043 -1.0927 -0.5173  0.5588
 2006TIP3   OH227432   6.750   0.945  14.894  0.4798  0.2417 -0.2482
 2006TIP3    H127433   6.745   1.040  14.900  0.3619  0.1752  0.9610
 2006TIP3    H227434   6.723   0.914  14.981 -1.3062 -0.9649 -1.1680
 2007TIP3   OH227435   4.654   2.966  11.130 -0.2753 -0.2959 -0.2010
 2007TIP3    H127436   4.602   3.006  11.060 -1.0754 -0.4141  0.3189
 2007TIP3    H227437   4.598   2.968  11.207  0.0754 -1.4277  0.1057
 2008TIP3   OH227438   0.855   2.151   0.906  0.1904 -0.3432  0.0909
 2008TIP3    H127439   0.861   2.061   0.937  0.9669 -0.8411 -1.3775
 2008TIP3    H227440   0.815   2.144   0.820 -0.6564  0.8327  0.3686
 2009TIP3   OH227441   2.990   4.405  15.780  0.3682  0.2055  0.8445
 2009TIP3    H127442   2.966   4.385  15.690 -2.4933 -1.0608  1.7663
 2009TIP3    H227443   3.039   4.327  15.809  0.0990  0.0017  0.7602
 2010TIP3   OH227444   0.848   4.540   5.646 -0.2248 -0.9060 -0.1297
 2010TIP3    H127445   0.823   4.447   5.649 -0.3777 -0.9522 -1.7783
 2010TIP3    H227446   0.797   4.575   5.573  0.4601  0.2922 -0.0481
 2011TIP3   OH227447   5.567   6.649  17.005 -0.3754  0.3945 -0.1163
 2011TIP3    H127448   5.545   6.710  16.934 -1.4847 -0.2177 -0.3241
 2011TIP3    H227449   5.571   6.704  17.083  1.5492  1.1999 -0.7144
 2012TIP3   OH227450   6.495   5.675   3.112  0.4248 -0.1581 -0.0673
 2012TIP3    H127451   6.578   5.700   3.070  0.7034  0.1816  0.6805
 2012TIP3    H227452   6.428   5.713   3.056  0.8174  1.3869  0.4766
 2013TIP3   OH227453   0.857   6.392   3.631 -0.1243 -0.5882  0.8794
 2013TIP3    H127454   0.932   6.353   3.586 -0.7548 -1.3089  0.4467
 2013TIP3    H227455   0.893   6.471   3.672  0.5724 -0.1816 -0.4693
 2014TIP3   OH227456   3.178   6.695  14.645  0.4290 -0.1230 -0.1251
 2014TIP3    H127457   3.171   6.734  14.557 -0.6711  0.4065  0.1818
 2014TIP3    H227458   3.225   6.613  14.631  1.5912  0.6515 -0.9943
 2015TIP3   OH227459   5.988   1.696  15.210  0.6691  0.5611  0.2174
 2015TIP3    H127460   6.019   1.786  15.210 -0.2133  0.9143  2.0853
 2015TIP3    H227461   5.936   1.688  15.290 -2.0489 -0.6472 -1.5203
 2016TIP3   OH227462   5.712   1.666   0.871  0.1906 -0.1000  0.2552
 2016TIP3    H127463   5.795   1.713   0.879 -0.5291  1.2607  0.0116
 2016TIP3    H227464   5.720   1.617   0.789  0.0722  1.4962 -0.7527
 2017TIP3   OH227465   1.980   4.623  11.391 -0.6379 -0.6236 -0.5267
 2017TIP3    H127466   1.987   4.549  11.330 -3.3511 -0.4098 -1.2398
 2017TIP3    H227467   1.911   4.597  11.452 -0.3432  0.5966  0.3646
 2018TIP3   OH227468   5.543   5.340  15.196 -0.2165 -0.2149  0.2391
 2018TIP3    H127469   5.482   5.269  15.213 -0.6088  0.0870  0.1069
 2018TIP3    H227470   5.499   5.419  15.229 -0.1091  0.0746 -0.2955
 2019TIP3   OH227471   2.884   0.671   1.190  0.4873 -0.1064 -0.2353
 2019TIP3    H127472   2.892   0.742   1.126 -0.2425 -1.2011 -1.6005
 2019TIP3    H227473   2.800   0.686   1.233  0.3302 -0.1341 -0.5278
 2020TIP3   OH227474   5.071   4.042   0.872 -0.2474  0.1302  0.6580
 2020TIP3    H127475   5.089   4.136   0.861  1.4316 -0.0877  1.2083
 2020TIP3    H227476   5.123   3.999   0.804 -1.2007 -0.3978  0.2493
 2021TIP3   OH227477   2.511   6.488   4.296  0.2229  0.3195  0.3907
 2021TIP3    H127478   2.417   6.500   4.309  0.3747  0.7025  1.1757
 2021TIP3    H227479   2.518   6.410   4.241 -0.5345 -0.0776  0.8433
 2022TIP3   OH227480   4.290   0.980   4.754 -0.2779 -0.0853  0.0266
 2022TIP3    H127481   4.287   0.911   4.820  0.4934 -1.1860 -1.0257
 2022TIP3    H227482   4.263   0.936   4.673  0.9927  0.6182 -0.8257
 2023TIP3   OH227483   0.804   0.118   0.710 -0.7706 -0.2454 -0.0811
 2023TIP3    H127484   0.811   0.162   0.794 -0.0376  0.1928 -0.3673
 2023TIP3    H227485   0.877   0.056   0.708  1.4517  2.2264 -1.8216
 2024TIP3   OH227486   3.425   3.182  10.672 -0.5014  0.1677 -0.4599
 2024TIP3    H127487   3.493   3.130  10.629  1.0253  1.7453 -0.0546
 2024TIP3    H227488   3.401   3.131  10.749  1.3115  0.2604  0.1934
 2025TIP3   OH227489   4.781   2.554  17.017  0.4251  0.2095  0.1915
 2025TIP3    H127490   4.853   2.503  16.981 -0.7895 -0.9803 -0.6290
 2025TIP3    H227491   4.804   2.566  17.109  0.5836 -2.1638  0.5110
 2026TIP3   OH227492   5.684   6.388   2.596  0.1988  0.3262 -0.4748
 2026TIP3    H127493   5.684   6.441   2.676  0.4099  1.2580 -1.0713
 2026TIP3    H227494   5.670   6.452   2.526  1.3811 -0.2796 -1.3005
 2027TIP3   OH227495   6.341   0.816  16.814  0.8341  0.2988  0.3662
 2027TIP3    H127496   6.336   0.798  16.908  0.9917 -1.2183  0.1154
 2027TIP3    H227497   6.252   0.801  16.782  0.5524  1.7505  0.3973
 2028TIP3   OH227498   3.170   6.203   1.762  0.2289 -0.2549 -0.5446
 2028TIP3    H127499   3.123   6.278   1.798 -1.8473 -1.2737 -1.0243
 2028TIP3    H227500   3.137   6.128   1.812  1.3806 -1.0232 -0.8885
 2029TIP3   OH227501   3.561   1.151   1.850 -0.2996 -0.1463 -0.5451
 2029TIP3    H127502   3.476   1.172   1.811 -0.5032 -1.1380 -0.6643
 2029TIP3    H227503   3.617   1.131   1.775 -0.6316 -1.8444 -0.3711
 2030TIP3   OH227504   4.641   4.070  16.778 -0.4465  0.6881 -0.9575
 2030TIP3    H127505   4.615   4.000  16.837  2.1838  0.9070  0.5913
 2030TIP3    H227506   4.615   4.150  16.823  3.3651  0.9696  1.1247
 2031TIP3   OH227507   6.772   5.543   3.434 -0.9640 -0.0831 -0.2892
 2031TIP3    H127508   6.715   5.502   3.499  0.0259 -2.1414 -0.6647
 2031TIP3    H227509   6.785   5.632   3.468 -0.0310 -1.2352  2.6636
 2032TIP3   OH227510   6.468   3.726  12.393 -0.4195  0.7422  0.1866
 2032TIP3    H127511   6.490   3.738  12.485 -1.5237 -2.3146  0.9397
 2032TIP3    H227512   6.373   3.722  12.391 -0.3526 -1.5782 -0.6985
 2033TIP3   OH227513   4.193   0.031   2.211  0.1866 -0.0872  0.5624
 2033TIP3    H127514   4.157   0.074   2.133 -0.1118 -0.6790  0.3744
 2033TIP3    H227515   4.253  -0.035   2.177 -0.7182 -1.0506  0.7996
 2034TIP3   OH227516   6.384   3.837   3.495  0.0132 -0.2174  0.7351
 2034TIP3    H127517   6.359   3.754   3.534  2.2425  0.0291  2.9430
 2034TIP3    H227518   6.470   3.822   3.457 -0.1699  0.7542 -0.1369
 2035TIP3   OH227519   2.151   1.315   2.255 -0.1783  0.0688 -0.3552
 2035TIP3    H127520   2.071   1.362   2.233  0.3921  2.3454  1.8723
 2035TIP3    H227521   2.122   1.233   2.294 -1.3994  0.6492 -0.0108
 2036TIP3   OH227522   2.485   3.129   3.100 -0.4753  0.0881  0.2997
 2036TIP3    H127523   2.425   3.132   3.025  0.1703  0.1506 -0.2277
 2036TIP3    H227524   2.526   3.043   3.094 -0.4792  0.0641  0.6330
 2037TIP3   OH227525   1.490   3.129  12.970  0.1716  0.1667  0.3752
 2037TIP3    H127526   1.549   3.182  12.917  0.3936 -1.3915 -1.0252
 2037TIP3    H227527   1.425   3.191  13.003 -0.1584  1.1804 -1.9944
 2038TIP3   OH227528   0.407   5.854  12.666 -0.2978  0.4833  0.2331
 2038TIP3    H127529   0.460   5.879  12.590 -0.6559  1.1289  0.1912
 2038TIP3    H227530   0.389   5.761  12.653  1.4106  0.0697  0.6021
 2039TIP3   OH227531   5.507   6.146  16.932  0.2516 -0.0003  0.2550
 2039TIP3    H127532   5.412   6.140  16.928  0.2500 -1.5398  1.3639
 2039TIP3    H227533   5.527   6.238  16.915 -1.3825  0.2388 -0.5310
 2040TIP3   OH227534   0.147   1.250  13.907 -0.6940  0.2543  0.2443
 2040TIP3    H127535   0.107   1.298  13.834  1.0665  0.9743 -0.2931
 2040TIP3    H227536   0.196   1.179  13.865 -0.6224 -0.0391  0.8105
 2041TIP3   OH227537   0.673   2.930   5.125  0.0031 -0.0547 -0.1396
 2041TIP3    H127538   0.623   2.978   5.191  0.6934 -0.3879  0.6329
 2041TIP3    H227539   0.714   2.858   5.172 -1.8131 -2.0892 -1.4554
 2042TIP3   OH227540   2.705   1.562   4.699  0.3230  0.1389  0.3233
 2042TIP3    H127541   2.625   1.510   4.708 -0.6827  1.5713 -0.0616
 2042TIP3    H227542   2.745   1.530   4.618  0.8019 -1.3969  1.1205
 2043TIP3   OH227543   2.519   2.822   1.133 -0.3721  0.4990  0.0592
 2043TIP3    H127544   2.475   2.838   1.050  1.6162  0.6715 -1.0413
 2043TIP3    H227545   2.545   2.730   1.129 -2.4701 -0.2274  1.6630
 2044TIP3   OH227546   2.504   1.546  13.978 -0.3806  0.2577 -0.3300
 2044TIP3    H127547   2.551   1.629  13.965 -0.9153  0.5646 -0.3754
 2044TIP3    H227548   2.436   1.547  13.910  0.5806 -0.9555 -1.3394
 2045TIP3   OH227549   5.512   1.573   2.769 -0.0787  0.4730  0.1958
 2045TIP3    H127550   5.455   1.604   2.698  0.5937  1.3031 -0.0002
 2045TIP3    H227551   5.510   1.643   2.834  1.4797  0.9723 -0.2581
 2046TIP3   OH227552   1.571   0.610   0.148 -0.0067  0.2378 -0.4012
 2046TIP3    H127553   1.491   0.644   0.109  0.6099  0.2955 -1.6738
 2046TIP3    H227554   1.596   0.537   0.092  0.6693  0.0362  0.1459
 2047TIP3   OH227555   5.260   0.899   5.696  0.5585 -0.1524  0.3223
 2047TIP3    H127556   5.260   0.816   5.648 -0.1022 -1.1467  1.9685
 2047TIP3    H227557   5.269   0.873   5.788 -0.7389  1.5319  0.9583
 2048TIP3   OH227558   4.362   1.551   4.844  0.0611 -0.1469 -0.9282
 2048TIP3    H127559   4.325   1.531   4.758  0.3565 -0.6706 -0.9382
 2048TIP3    H227560   4.328   1.483   4.901 -0.2860  0.3087 -0.5830
 2049TIP3   OH227561   5.605   3.958   1.587  0.2056  0.0535  0.1633
 2049TIP3    H127562   5.682   3.996   1.544  1.5497 -1.8108  0.7738
 2049TIP3    H227563   5.582   3.883   1.533 -0.4741 -0.0707  0.6109
 2050TIP3   OH227564   0.076   6.075  11.884 -0.2009  0.1020  0.0065
 2050TIP3    H127565  -0.017   6.060  11.902 -0.1898  0.0829  0.0494
 2050TIP3    H227566   0.078   6.147  11.821 -0.2345  0.2760  0.2026
 2051TIP3   OH227567   3.957   1.821  11.562 -0.1832 -0.5139  0.1374
 2051TIP3    H127568   3.936   1.911  11.586 -2.0154 -0.4835 -1.3923
 2051TIP3    H227569   4.039   1.827  11.513 -1.0338  0.5415 -1.2177
 2052TIP3   OH227570   4.091   1.804  14.070 -0.8342 -0.7921 -0.0122
 2052TIP3    H127571   4.183   1.832  14.068 -0.5809 -1.6313 -0.2206
 2052TIP3    H227572   4.047   1.874  14.118 -0.1236 -0.2763 -0.0844
 2053TIP3   OH227573   4.350   2.000  14.622  0.6300 -0.5851  0.2337
 2053TIP3    H127574   4.270   1.973  14.576  0.1937  0.9439  0.0598
 2053TIP3    H227575   4.404   1.921  14.624 -1.6463 -2.2457  2.0363
 2054TIP3   OH227576   4.088   6.604   1.657  0.7507  0.2276 -0.0944
 2054TIP3    H127577   4.098   6.577   1.566 -0.0159  0.7540 -0.3512
 2054TIP3    H227578   4.177   6.624   1.687  0.8143  2.3332 -1.4636
 2055TIP3   OH227579   5.428   3.305   5.841  0.6204  0.1767 -0.2931
 2055TIP3    H127580   5.378   3.229   5.811  0.2644  0.2101  0.2189
 2055TIP3    H227581   5.519   3.273   5.845  0.8426  0.4274 -2.3020
 2056TIP3   OH227582   5.605   1.458   5.916  0.8968 -0.3974  0.2371
 2056TIP3    H127583   5.570   1.383   5.965  1.8983  0.1823  1.9118
 2056TIP3    H227584   5.529   1.494   5.870  0.2195 -1.8651  0.1492
 2057TIP3   OH227585   3.567   1.162  11.522  0.0697  0.2553  0.0923
 2057TIP3    H127586   3.486   1.127  11.558  0.9562 -0.7241  1.2018
 2057TIP3    H227587   3.538   1.229  11.459 -1.5725  0.2527  0.7927
 2058TIP3   OH227588   2.787   3.822   2.454  0.1471 -0.3146  0.0238
 2058TIP3    H127589   2.847   3.759   2.493  0.1646 -0.2279  0.1367
 2058TIP3    H227590   2.740   3.860   2.528  0.4801  0.1555 -0.0009
 2059TIP3   OH227591   2.726   2.790  16.530  0.1236  0.0853 -0.2488
 2059TIP3    H127592   2.778   2.779  16.610  0.0544 -0.4582 -0.2695
 2059TIP3    H227593   2.713   2.884  16.522 -0.0822  0.1351  0.5265
 2060TIP3   OH227594   0.273   5.662   3.804 -0.1411  0.0260 -0.1045
 2060TIP3    H127595   0.261   5.705   3.719 -0.1541 -2.2795 -1.3514
 2060TIP3    H227596   0.358   5.618   3.797 -0.1263 -0.1795  1.1188
 2061TIP3   OH227597   4.517   2.283   0.072 -0.3600  0.5389  0.1826
 2061TIP3    H127598   4.535   2.190   0.056  0.6843  0.5255  1.2841
 2061TIP3    H227599   4.567   2.304   0.151 -1.8361  1.6545  0.8613
 2062TIP3   OH227600   1.828   1.341   2.389  0.4079 -0.4531 -0.1601
 2062TIP3    H127601   1.868   1.384   2.314 -0.3240  1.3778  0.4400
 2062TIP3    H227602   1.773   1.272   2.351  1.3302 -0.6692 -1.1682
 2063TIP3   OH227603   2.663   3.736   1.841 -0.5809 -0.3692 -0.4531
 2063TIP3    H127604   2.659   3.644   1.866  0.3482 -0.4223 -0.4318
 2063TIP3    H227605   2.574   3.759   1.814 -0.8524 -1.2229 -0.2924
 2064TIP3   OH227606   5.829   5.916  12.594  0.4201 -0.8371  0.1628
 2064TIP3    H127607   5.908   5.875  12.558  0.2452 -1.2542  0.2600
 2064TIP3    H227608   5.831   5.893  12.687  0.1753 -0.8545  0.1625
 2065TIP3   OH227609   0.296   4.364   0.780  0.5495 -0.4825 -0.6776
 2065TIP3    H127610   0.265   4.360   0.870  1.3000 -1.6958 -0.4567
 2065TIP3    H227611   0.374   4.419   0.784 -0.1517  0.5437 -0.8219
 2066TIP3   OH227612   4.292   3.327  13.201 -0.1679 -0.1602  0.0080
 2066TIP3    H127613   4.356   3.397  13.215 -1.5162  1.1472 -0.0693
 2066TIP3    H227614   4.343   3.247  13.202  0.9554  0.3626  4.3664
 2067TIP3   OH227615   6.091   6.020   3.178 -0.3376  0.0801 -0.1060
 2067TIP3    H127616   6.015   6.062   3.138 -0.5064 -0.6964 -0.6408
 2067TIP3    H227617   6.160   6.029   3.112 -0.4126 -0.5727 -0.2833
 2068TIP3   OH227618   5.916   0.149   2.858  0.0920 -0.5625 -0.0184
 2068TIP3    H127619   5.849   0.213   2.882 -0.5018  0.0408 -2.8742
 2068TIP3    H227620   5.991   0.202   2.833  1.0842 -1.1850  1.5298
 2069TIP3   OH227621   5.682   5.804   2.725 -0.7281 -0.1196 -0.4018
 2069TIP3    H127622   5.672   5.883   2.672  0.2700  0.4994  0.2975
 2069TIP3    H227623   5.775   5.801   2.746 -1.1222 -0.2635  1.4398
 2070TIP3   OH227624   3.138   2.317   5.407  0.5644 -0.3346  0.3876
 2070TIP3    H127625   3.054   2.339   5.447 -0.2396 -0.8447 -0.9469
 2070TIP3    H227626   3.116   2.295   5.316  2.3029  0.8221 -0.3715
 2071TIP3   OH227627   1.175   4.040  10.987  0.2575  0.1879  0.2108
 2071TIP3    H127628   1.114   4.037  11.061  1.0600  0.2147  0.8970
 2071TIP3    H227629   1.261   4.054  11.028  0.5326  1.7680 -0.8309
 2072TIP3   OH227630   0.280   5.435  15.440 -0.9665 -0.0019 -0.0094
 2072TIP3    H127631   0.211   5.376  15.409 -0.2750 -1.6205  1.3455
 2072TIP3    H227632   0.356   5.412  15.388 -0.7247 -0.2650  0.4475
 2073TIP3   OH227633   4.800   4.449  14.759  0.0773  0.1053 -0.3617
 2073TIP3    H127634   4.793   4.543  14.776  2.2203 -0.0342  1.6862
 2073TIP3    H227635   4.822   4.410  14.843  1.0442 -2.0353 -1.5138
 2074TIP3   OH227636   3.480   4.908  14.172 -0.3673  0.3418  0.0003
 2074TIP3    H127637   3.391   4.894  14.204 -0.0370  0.4601  0.9765
 2074TIP3    H227638   3.480   4.868  14.085 -1.6192  1.1049 -0.3893
 2075TIP3   OH227639   1.439   0.084  15.576  0.2868 -0.2343 -0.5423
 2075TIP3    H127640   1.369   0.132  15.619  1.0432  0.7601 -0.3808
 2075TIP3    H227641   1.404   0.061  15.490  0.0432  1.0063 -0.7962
 2076TIP3   OH227642   5.836   6.130  15.562  0.0968 -0.7380 -0.3968
 2076TIP3    H127643   5.908   6.072  15.587 -0.9958 -1.7601  0.4768
 2076TIP3    H227644   5.779   6.076  15.508 -1.3249 -0.7436  1.0507
 2077TIP3   OH227645   0.856   3.101  15.008  0.0802 -0.4501  0.5208
 2077TIP3    H127646   0.932   3.151  15.038 -0.5613  1.4760 -0.9377
 2077TIP3    H227647   0.876   3.078  14.917 -0.5072 -1.1405  0.5529
 2078TIP3   OH227648   4.592   0.254   3.505  0.2353 -0.5301  0.3586
 2078TIP3    H127649   4.614   0.343   3.479 -0.4934 -0.4250  0.0678
 2078TIP3    H227650   4.614   0.200   3.429  0.2794 -0.5384  0.3774
 2079TIP3   OH227651   6.209   2.143   4.872 -0.1933  0.1022 -0.5056
 2079TIP3    H127652   6.220   2.049   4.855 -0.1885  0.1365 -0.6938
 2079TIP3    H227653   6.186   2.148   4.965  0.6882 -0.0246 -0.2719
 2080TIP3   OH227654   5.726   2.962   0.955  0.5423 -0.0456  0.0413
 2080TIP3    H127655   5.657   2.896   0.960  0.4148  0.1566  1.2291
 2080TIP3    H227656   5.791   2.934   1.020 -0.7235  2.3344  2.4913
 2081TIP3   OH227657   4.961   6.599   2.196  0.3624  0.3583  0.0838
 2081TIP3    H127658   4.946   6.591   2.291 -0.4441 -1.8531 -0.1741
 2081TIP3    H227659   5.033   6.538   2.178  0.6314  0.8999 -0.7103
 2082TIP3   OH227660   1.964   0.332   2.771  0.3835 -0.2541 -0.7247
 2082TIP3    H127661   1.995   0.331   2.680  0.3351  0.7626 -0.7622
 2082TIP3    H227662   1.911   0.253   2.779 -1.6458  0.8447 -2.3248
 2083TIP3   OH227663   5.634   6.270   2.944  0.7324  0.3509 -0.1938
 2083TIP3    H127664   5.704   6.335   2.935  1.1910 -0.1009  0.0833
 2083TIP3    H227665   5.679   6.187   2.960  0.1173  0.3180  1.6204
 2084TIP3   OH227666   5.341   3.232  12.998 -0.2134  0.6701  0.2468
 2084TIP3    H127667   5.341   3.327  12.985 -2.1688  0.6092 -0.4493
 2084TIP3    H227668   5.275   3.200  12.937  2.5633 -1.4941 -1.9002
 2085TIP3   OH227669   5.467   6.091   3.635  0.4450  0.5248 -0.5464
 2085TIP3    H127670   5.556   6.092   3.670  0.4143 -2.1615 -0.1600
 2085TIP3    H227671   5.460   6.008   3.589 -1.9034  0.6026 -0.4745
 2086TIP3   OH227672   0.551   0.679   5.110  0.6619  0.0645  0.0677
 2086TIP3    H127673   0.497   0.618   5.060 -0.0940 -0.3546  1.3610
 2086TIP3    H227674   0.616   0.710   5.047  0.3152 -1.1557 -0.9304
 2087TIP3   OH227675   2.783   4.390  14.825  0.0182  0.4817 -0.5269
 2087TIP3    H127676   2.741   4.467  14.863  1.5117  2.0355 -1.8157
 2087TIP3    H227677   2.731   4.316  14.856 -0.9428  1.9099  1.5209
 2088TIP3   OH227678   2.717   1.106  15.756  0.0417 -0.0921 -0.1654
 2088TIP3    H127679   2.709   1.200  15.745  1.4426  0.4677  2.7956
 2088TIP3    H227680   2.640   1.081  15.808  0.3916 -0.3330  0.2422
 2089TIP3   OH227681   3.504   5.889   0.600 -0.1913 -0.0360  0.2474
 2089TIP3    H127682   3.599   5.905   0.600 -0.2213  0.1439  0.4765
 2089TIP3    H227683   3.496   5.798   0.571  0.0300  0.0633 -0.1279
 2090TIP3   OH227684   1.215   1.199  14.102  0.1833  0.4382 -0.3397
 2090TIP3    H127685   1.274   1.164  14.035  0.4776 -0.0609  0.1652
 2090TIP3    H227686   1.260   1.181  14.185 -0.6213  0.1579  0.0490
 2091TIP3   OH227687   2.685   1.438  16.064 -0.2556  0.5304 -0.5006
 2091TIP3    H127688   2.666   1.344  16.060 -1.5637  0.7565 -0.0965
 2091TIP3    H227689   2.736   1.449  16.144  0.3806  0.0911 -0.8441
 2092TIP3   OH227690   5.477   6.417   5.258 -0.2875  0.4146  0.1957
 2092TIP3    H127691   5.539   6.416   5.331  0.3938  2.6357 -0.2883
 2092TIP3    H227692   5.494   6.335   5.212  1.6206  0.5007  0.6404
 2093TIP3   OH227693   1.853   0.048  13.370  0.0022  0.0845 -0.1465
 2093TIP3    H127694   1.904  -0.030  13.392  0.1289  0.1711 -0.1330
 2093TIP3    H227695   1.860   0.104  13.448 -0.6518 -0.1811  0.1145
 2094TIP3   OH227696   3.018   6.180  16.140  0.2391 -0.1296 -0.9591
 2094TIP3    H127697   2.951   6.116  16.116  0.5944 -0.4481 -1.1059
 2094TIP3    H227698   2.989   6.261  16.100 -0.3340 -0.1435 -0.5837
 2095TIP3   OH227699   1.874   2.498  16.079 -0.3800  0.3120 -0.3352
 2095TIP3    H127700   1.924   2.440  16.022 -1.0256 -1.4517  0.7800
 2095TIP3    H227701   1.840   2.566  16.021  0.6017 -0.2831 -1.6682
 2096TIP3   OH227702   5.911   0.084  13.102  0.2322 -0.5013  0.0353
 2096TIP3    H127703   5.902   0.076  13.007  0.5696 -1.0345  0.0449
 2096TIP3    H227704   5.844   0.025  13.137 -0.4026  0.2611  0.1414
 2097TIP3   OH227705   4.056   1.966   6.251 -0.0916  0.2339 -0.2073
 2097TIP3    H127706   4.005   2.047   6.245  2.7427  2.1643  0.0005
 2097TIP3    H227707   4.086   1.964   6.342 -0.4011 -1.2988 -0.1080
 2098TIP3   OH227708   4.968   3.725  11.291  0.1669  0.0563 -0.2570
 2098TIP3    H127709   4.906   3.796  11.309  0.0423 -0.5064  1.7442
 2098TIP3    H227710   5.033   3.766  11.234 -0.0078  1.7535  0.6731
 2099TIP3   OH227711   2.632   1.367  14.350  0.2010 -0.4977 -0.1947
 2099TIP3    H127712   2.681   1.373  14.268 -0.3192 -0.0883 -0.4771
 2099TIP3    H227713   2.544   1.339  14.324 -0.1222  0.1577  0.1603
 2100TIP3   OH227714   4.933   4.619   2.140 -0.9651  0.2236  0.5208
 2100TIP3    H127715   4.921   4.628   2.045 -2.4119 -0.1874  0.6312
 2100TIP3    H227716   4.953   4.708   2.170 -0.5304  0.3657 -0.1597
 2101TIP3   OH227717   5.540   4.832  11.226 -0.3240  0.1962  0.7782
 2101TIP3    H127718   5.468   4.814  11.286 -0.7730  2.4836  1.0438
 2101TIP3    H227719   5.619   4.818  11.278 -0.6999  2.0317  1.9599
 2102TIP3   OH227720   6.296   3.574  15.417 -0.6371  0.4364  0.0747
 2102TIP3    H127721   6.287   3.529  15.501 -0.5028  0.4699  0.1074
 2102TIP3    H227722   6.381   3.617  15.421 -1.2086  1.5696  0.4582
 2103TIP3   OH227723   0.689   0.284   0.233  0.0529  0.2119 -0.5029
 2103TIP3    H127724   0.685   0.229   0.155 -1.1731 -0.2577 -0.1141
 2103TIP3    H227725   0.723   0.368   0.200  0.5121 -0.2891 -1.3536
 2104TIP3   OH227726   0.062   5.378  15.242 -0.0121  0.3706 -0.0950
 2104TIP3    H127727   0.095   5.458  15.201  0.3529  1.0257  1.4306
 2104TIP3    H227728  -0.032   5.393  15.251 -0.3646 -0.3939 -1.9853
 2105TIP3   OH227729   2.369   3.296  15.462  0.5754 -0.5006  0.3722
 2105TIP3    H127730   2.435   3.328  15.401 -0.0954  0.3302  0.0606
 2105TIP3    H227731   2.390   3.339  15.545  0.4586 -0.2700  0.2839
 2106TIP3   OH227732   1.364   0.402  11.711 -0.4359  0.2843  0.3854
 2106TIP3    H127733   1.342   0.339  11.780  0.4659  1.2252  1.5748
 2106TIP3    H227734   1.421   0.354  11.651 -1.0957 -0.4998  0.3697
 2107TIP3   OH227735   1.239   1.206   5.372 -0.2876  0.1340  0.2580
 2107TIP3    H127736   1.224   1.210   5.466 -1.8548  0.9762  0.0005
 2107TIP3    H227737   1.228   1.113   5.349 -1.6110  0.1903  0.6469
 2108TIP3   OH227738   3.525   5.629  13.075  0.0587  0.2053  0.8020
 2108TIP3    H127739   3.447   5.667  13.035  0.0803  0.5762  1.1055
 2108TIP3    H227740   3.564   5.575  13.006 -1.6425 -1.7550  1.2683
 2109TIP3   OH227741   2.334   2.274   2.958  0.1041 -0.2366 -0.7176
 2109TIP3    H127742   2.343   2.333   3.033  0.3328 -2.3694  1.0581
 2109TIP3    H227743   2.384   2.315   2.888  0.9463  1.2482  0.6916
 2110TIP3   OH227744   4.972   3.606   0.423 -0.3460  0.1088  0.0099
 2110TIP3    H127745   4.887   3.628   0.460 -0.2110  4.4174 -1.6951
 2110TIP3    H227746   5.034   3.623   0.494 -0.6540  0.0649  0.2954
 2111TIP3   OH227747   3.833   5.225   0.529 -0.6553  0.4450 -0.4087
 2111TIP3    H127748   3.841   5.132   0.550 -0.2683  0.2239 -1.4813
 2111TIP3    H227749   3.891   5.269   0.591 -0.5132 -0.0677 -0.1779
 2112TIP3   OH227750   6.074   4.861   1.565  0.1672 -0.0872 -0.5769
 2112TIP3    H127751   6.161   4.832   1.539  0.0519 -1.1209  0.1377
 2112TIP3    H227752   6.068   4.951   1.533  2.0423  0.5104  0.6165
 2113TIP3   OH227753   5.362   5.843   5.223  0.2061  0.1093 -0.1869
 2113TIP3    H127754   5.381   5.804   5.309 -1.6876 -0.6209 -0.0644
 2113TIP3    H227755   5.304   5.917   5.242 -0.8428 -0.5111 -0.8746
 2114TIP3   OH227756   5.781   0.376   2.871  0.2106  0.1852  0.2420
 2114TIP3    H127757   5.788   0.355   2.778  1.2954  2.7251 -0.3419
 2114TIP3    H227758   5.702   0.429   2.877  0.8885  1.1878  0.4925
 2115TIP3   OH227759   1.482   4.103   3.310  0.1114 -0.5231 -0.0914
 2115TIP3    H127760   1.477   4.016   3.350 -2.3017 -0.6171 -0.4492
 2115TIP3    H227761   1.429   4.158   3.367  2.7713  1.1317  0.9414
 2116TIP3   OH227762   5.775   5.668   5.013  0.6264 -0.4370  0.6140
 2116TIP3    H127763   5.769   5.642   4.921 -0.3753 -2.5450  1.1983
 2116TIP3    H227764   5.864   5.644   5.038  1.1937  0.9457  0.0080
 2117TIP3   OH227765   0.679   1.130  14.073  0.0166 -0.3008  0.1386
 2117TIP3    H127766   0.756   1.185  14.058 -0.3737  0.9238  2.2120
 2117TIP3    H227767   0.605   1.185  14.045 -0.4919  0.9360  3.4578
 2118TIP3   OH227768   0.918   1.704  16.079  0.5074 -0.1618 -0.2051
 2118TIP3    H127769   0.878   1.682  16.163 -1.3042 -0.2908 -1.0669
 2118TIP3    H227770   0.999   1.750  16.102 -0.3142  0.4456  1.5992
 2119TIP3   OH227771   3.041   4.578   0.691 -0.1140  0.3026  0.7492
 2119TIP3    H127772   3.103   4.600   0.621 -0.3777 -0.0406  0.4059
 2119TIP3    H227773   3.077   4.622   0.768  0.4871  0.2188  0.5275
 2120TIP3   OH227774   4.389   4.376  15.186  0.2973  0.1064  0.3104
 2120TIP3    H127775   4.455   4.388  15.254 -1.0586 -0.0300  1.7236
 2120TIP3    H227776   4.347   4.293  15.207  0.0465 -0.0931 -0.8932
 2121TIP3   OH227777   1.798   2.229  13.376  0.3198 -0.0155 -0.4209
 2121TIP3    H127778   1.834   2.160  13.431  0.6404 -0.5593 -1.3020
 2121TIP3    H227779   1.706   2.233  13.399 -0.1955 -2.2065 -1.8214
 2122TIP3   OH227780   1.039   3.059  15.836  0.0560 -0.3866 -0.6261
 2122TIP3    H127781   0.980   3.033  15.907 -0.2355 -0.8103 -1.0171
 2122TIP3    H227782   1.055   3.152  15.851 -1.7996  0.0892 -1.2824
 2123TIP3   OH227783   5.654   4.539  15.541 -0.5730 -0.1924  0.0579
 2123TIP3    H127784   5.723   4.525  15.606 -0.4432 -0.8592 -0.2210
 2123TIP3    H227785   5.679   4.620  15.497 -0.5969  0.1960  0.7514
 2124TIP3   OH227786   3.619   3.853   0.557 -0.2523 -0.5140 -0.2523
 2124TIP3    H127787   3.709   3.882   0.543  0.3483 -2.1493  0.0012
 2124TIP3    H227788   3.565   3.921   0.516  1.0027  1.4679  1.1927
 2125TIP3   OH227789   5.901   5.158  11.899 -0.1586 -0.0486 -0.5861
 2125TIP3    H127790   5.938   5.200  11.820  0.5152 -1.2396 -0.9278
 2125TIP3    H227791   5.853   5.082  11.865 -0.0313 -0.4581  0.1412
 2126TIP3   OH227792   0.494   5.297   2.177  0.2462  0.2538 -0.3144
 2126TIP3    H127793   0.401   5.275   2.188  0.3501  0.0733  0.2244
 2126TIP3    H227794   0.540   5.217   2.203  0.5942  0.7866  0.7459
 2127TIP3   OH227795   2.965   6.238  15.647 -0.3548  0.6640  0.0227
 2127TIP3    H127796   3.023   6.218  15.721  0.3092  0.6015 -0.5132
 2127TIP3    H227797   2.889   6.181  15.661  0.7489 -1.0069 -0.5453
 2128TIP3   OH227798   4.344   1.956   0.114 -0.0149 -0.3890  0.1809
 2128TIP3    H127799   4.294   1.998   0.184  0.9736  2.0677 -0.5011
 2128TIP3    H227800   4.295   1.976   0.035  0.4955 -0.4964 -0.1642
 2129TIP3   OH227801   4.719   0.629   5.953  0.3118 -0.2044 -0.5937
 2129TIP3    H127802   4.712   0.609   5.860  1.3533  1.0900 -0.9879
 2129TIP3    H227803   4.761   0.553   5.991 -2.1575 -1.7487 -0.7270
 2130TIP3   OH227804   6.700   4.939  15.001 -0.0397 -0.1861 -0.2497
 2130TIP3    H127805   6.725   4.999  15.071 -0.2185 -1.3063  0.7940
 2130TIP3    H227806   6.720   4.852  15.035  0.7538 -0.7208 -1.9559
 2131TIP3   OH227807   1.918   2.302   0.888  0.0695 -0.2555 -0.5474
 2131TIP3    H127808   1.827   2.272   0.892 -0.4536  1.3505  0.9780
 2131TIP3    H227809   1.912   2.397   0.889  1.7785 -0.1122  0.7563
 2132TIP3   OH227810   2.142   2.198   3.322 -0.3589 -0.3654 -0.1981
 2132TIP3    H127811   2.122   2.178   3.231  0.1931 -0.8801 -0.2148
 2132TIP3    H227812   2.057   2.209   3.364 -0.6580 -1.6584 -0.4369
 2133TIP3   OH227813   3.704   3.307  10.587  0.5599  0.4479 -0.1144
 2133TIP3    H127814   3.725   3.320  10.679 -0.7400  0.5439  0.1894
 2133TIP3    H227815   3.700   3.395  10.550 -0.9394  0.5500  0.2316
 2134TIP3   OH227816   3.621   1.025  12.921  0.3871  0.2168 -0.0854
 2134TIP3    H127817   3.548   1.087  12.914  1.0095  0.8712 -1.0755
 2134TIP3    H227818   3.623   0.980  12.837 -0.3453 -1.5174  0.7909
 2135TIP3   OH227819   1.550   4.461  14.431  0.2848  0.0884  0.1051
 2135TIP3    H127820   1.540   4.555  14.423  0.5312  0.0385 -0.9655
 2135TIP3    H227821   1.624   4.439  14.374  0.8643 -0.6348  1.0952
 2136TIP3   OH227822   2.663   2.565  15.975 -0.5485  0.5418  0.3348
 2136TIP3    H127823   2.672   2.507  16.050 -0.2023  0.5830  0.3296
 2136TIP3    H227824   2.621   2.644  16.010 -3.8735 -0.8409 -0.2392
 2137TIP3   OH227825   2.306   0.238   4.542  0.0284 -0.3288 -0.2830
 2137TIP3    H127826   2.237   0.292   4.503  0.6555  1.1214  0.5280
 2137TIP3    H227827   2.384   0.256   4.488  1.1977  2.5661  2.0872
 2138TIP3   OH227828   3.659   5.109  14.938 -0.0101 -0.1198 -0.2171
 2138TIP3    H127829   3.593   5.060  14.889 -2.6148  1.5568  1.3459
 2138TIP3    H227830   3.712   5.042  14.980 -0.8875 -1.5657 -1.3074
 2139TIP3   OH227831   1.094   1.493  15.994  0.0098  0.4888 -0.1739
 2139TIP3    H127832   1.178   1.477  16.038 -0.4470 -0.5902  0.3319
 2139TIP3    H227833   1.034   1.517  16.064 -0.8736 -1.8208 -0.0551
 2140TIP3   OH227834   5.155   6.579  13.282 -0.4432 -0.1955 -0.2321
 2140TIP3    H127835   5.085   6.617  13.229  0.5639  0.4461 -1.1439
 2140TIP3    H227836   5.201   6.519  13.223  0.2550 -0.0076  0.1066
 2141TIP3   OH227837   0.982   1.790  14.190 -0.2201 -0.2564 -0.1244
 2141TIP3    H127838   1.005   1.848  14.118 -1.1511 -0.2598 -0.4392
 2141TIP3    H227839   1.028   1.708  14.172  2.1191  0.7299  0.9745
 2142TIP3   OH227840   0.220   1.895   2.739 -0.2958  0.2647 -0.4083
 2142TIP3    H127841   0.270   1.942   2.672 -0.0509  0.9208  0.2134
 2142TIP3    H227842   0.253   1.930   2.822 -0.3945 -0.7339  0.0684
 2143TIP3   OH227843   1.217   6.102  11.872  1.0953 -0.0850 -0.1678
 2143TIP3    H127844   1.279   6.074  11.804  1.2723 -0.7017  0.2452
 2143TIP3    H227845   1.229   6.197  11.876 -0.1840  0.2343 -2.2315
 2144TIP3   OH227846   2.376   2.246   1.849  0.5374  0.1595  0.0560
 2144TIP3    H127847   2.444   2.258   1.915  0.7700 -0.0859 -0.1387
 2144TIP3    H227848   2.422   2.254   1.765  0.8363 -2.6200 -0.1341
 2145TIP3   OH227849   2.731   1.979  12.082  0.1487 -0.6792 -0.5732
 2145TIP3    H127850   2.766   1.890  12.078  1.7643 -0.1750  0.9925
 2145TIP3    H227851   2.775   2.026  12.012  1.6410 -0.3891  0.5261
 2146TIP3   OH227852   3.814   2.663  14.800  0.5015 -0.1684  0.1185
 2146TIP3    H127853   3.737   2.682  14.747  0.7123  0.3716  0.0017
 2146TIP3    H227854   3.808   2.723  14.874  0.0177 -1.1700  0.9124
 2147TIP3   OH227855   6.123   0.714  14.004 -0.1601 -0.1108  0.0141
 2147TIP3    H127856   6.078   0.798  14.013  1.1073  0.3877  2.5221
 2147TIP3    H227857   6.193   0.731  13.941  0.5102  0.9356  1.0098
 2148TIP3   OH227858   3.455   3.229   3.678  0.1993 -0.0541  0.6880
 2148TIP3    H127859   3.489   3.315   3.653 -0.6174  0.3905  1.0962
 2148TIP3    H227860   3.479   3.172   3.604 -0.5324  0.8419 -0.2798
 2149TIP3   OH227861   6.395   1.972   0.549 -0.2503  0.2197 -0.2185
 2149TIP3    H127862   6.314   2.007   0.585 -1.0355 -0.9784 -0.7687
 2149TIP3    H227863   6.412   2.026   0.472 -0.8115  0.1458 -0.3973
 2150TIP3   OH227864   0.017   5.687  13.973 -0.5463  0.3937 -0.1888
 2150TIP3    H127865  -0.064   5.663  14.016 -0.1439 -0.1374  0.2844
 2150TIP3    H227866   0.043   5.770  14.014 -1.5710  1.3329 -1.3379
 2151TIP3   OH227867   3.730   2.557   2.418  0.1883 -0.3476  0.1336
 2151TIP3    H127868   3.752   2.465   2.428 -0.5806 -0.3850  2.0037
 2151TIP3    H227869   3.641   2.564   2.454  0.3635  1.1638  0.3308
 2152TIP3   OH227870   1.363   6.370  15.691  0.5822  0.6017  0.0776
 2152TIP3    H127871   1.334   6.286  15.727  1.1930 -0.7688 -2.3784
 2152TIP3    H227872   1.284   6.425  15.690 -0.1725 -0.4539  0.3615
 2153TIP3   OH227873   3.168   5.234  15.365 -0.2868  0.1127 -0.1090
 2153TIP3    H127874   3.238   5.259  15.425 -0.3574  0.4753 -0.1765
 2153TIP3    H227875   3.174   5.139  15.359 -0.8471 -0.0143  1.1699
 2154TIP3   OH227876   6.025   0.149  11.481  0.4830 -0.6736  0.3375
 2154TIP3    H127877   6.060   0.124  11.567 -1.5765  0.5553  1.6114
 2154TIP3    H227878   5.935   0.119  11.482  0.4836 -0.8634 -1.5426
 2155TIP3   OH227879   3.010   1.106   3.871  0.2149  0.4334  0.3673
 2155TIP3    H127880   2.952   1.125   3.945  1.6268 -0.1332  1.6706
 2155TIP3    H227881   3.097   1.133   3.901  1.2044 -1.8704 -0.1906
 2156TIP3   OH227882   0.792   5.581  11.030  0.2670  0.1094  0.0220
 2156TIP3    H127883   0.761   5.666  11.000 -1.3592  0.4953  2.5104
 2156TIP3    H227884   0.853   5.602  11.101 -0.7465 -0.7449  1.1943
 2157TIP3   OH227885   4.512   3.031   1.145  0.4355  0.1929  0.0650
 2157TIP3    H127886   4.444   3.099   1.147  0.7104  0.4551  0.6035
 2157TIP3    H227887   4.487   2.971   1.215  0.2338 -0.2373 -0.3622
 2158TIP3   OH227888   3.079   6.317   5.628 -0.3435 -0.2601  0.6443
 2158TIP3    H127889   3.174   6.317   5.640 -0.0615  2.6536 -0.6758
 2158TIP3    H227890   3.066   6.278   5.542 -0.0544  1.3168 -0.1650
 2159TIP3   OH227891   3.550   2.768   1.888 -0.3202  0.2393  0.0565
 2159TIP3    H127892   3.468   2.764   1.936 -0.5715 -1.0269 -0.4323
 2159TIP3    H227893   3.608   2.707   1.933  0.5063  1.4011  0.6299
 2160TIP3   OH227894   0.447   1.452  10.774  0.3142  0.3799  0.2841
 2160TIP3    H127895   0.415   1.541  10.759 -0.5393  0.6301  3.0438
 2160TIP3    H227896   0.511   1.438  10.703 -1.2640  2.2273 -1.6551
 2161TIP3   OH227897   4.601   0.021   1.716 -0.2729 -0.0739  0.6681
 2161TIP3    H127898   4.599   0.113   1.744  0.1619  0.3088 -0.4960
 2161TIP3    H227899   4.653  -0.023   1.782  0.7699  0.8129  0.4621
 2162TIP3   OH227900   3.387   6.471   6.266  0.3869 -0.2202 -0.4878
 2162TIP3    H127901   3.372   6.419   6.345  2.1474 -1.2795 -0.7954
 2162TIP3    H227902   3.315   6.534   6.265 -0.4993 -1.1279  1.1627
 2163TIP3   OH227903   3.086   1.478  15.364 -0.6772 -0.1990 -0.4558
 2163TIP3    H127904   3.031   1.542  15.318 -0.8624  0.7860  1.0902
 2163TIP3    H227905   3.128   1.428  15.293 -2.3338  0.0555 -1.6901
 2164TIP3   OH227906   5.162   2.776   3.903 -0.2490 -0.2108 -0.3944
 2164TIP3    H127907   5.144   2.849   3.844 -1.7037  0.3557  0.6785
 2164TIP3    H227908   5.077   2.733   3.915  0.3785 -1.4305 -0.1617
 2165TIP3   OH227909   2.086   3.047   4.542 -0.5143  0.0426 -0.1762
 2165TIP3    H127910   2.126   2.961   4.554 -2.6321 -0.7489  1.9388
 2165TIP3    H227911   2.024   3.036   4.470  1.1985  0.6306 -1.8203
 2166TIP3   OH227912   0.184   0.198  15.816 -0.2556  0.4767 -0.3253
 2166TIP3    H127913   0.149   0.285  15.840 -1.4049  0.2456 -1.0605
 2166TIP3    H227914   0.106   0.142  15.812  0.6409 -1.0265  1.8015
 2167TIP3   OH227915   2.138   2.146   5.955 -0.0842 -0.5524 -0.4660
 2167TIP3    H127916   2.101   2.231   5.934  2.6534  0.5160 -1.4389
 2167TIP3    H227917   2.132   2.140   6.050 -2.5002 -0.4327 -0.5396
 2168TIP3   OH227918   2.925   3.797  11.249 -0.5155 -0.2376  0.3513
 2168TIP3    H127919   2.843   3.839  11.277 -1.6315 -0.4124 -2.3963
 2168TIP3    H227920   2.993   3.859  11.274 -1.7693  1.3859 -0.0936
 2169TIP3   OH227921   4.827   6.195  15.556 -0.1068  0.4098  0.5791
 2169TIP3    H127922   4.853   6.217  15.467 -0.9713  1.5426  0.5845
 2169TIP3    H227923   4.878   6.117  15.578 -1.0142 -0.8391 -1.4571
 2170TIP3   OH227924   4.166   0.602  11.049 -0.0044  0.1097  0.2072
 2170TIP3    H127925   4.105   0.654  10.996  0.8137 -0.2160 -1.0886
 2170TIP3    H227926   4.216   0.668  11.098 -1.5080  0.3721  1.4607
 2171TIP3   OH227927   5.945   0.960  14.467  0.0843  0.4392  0.2078
 2171TIP3    H127928   5.932   1.052  14.446  0.8474  1.0430  2.2306
 2171TIP3    H227929   5.857   0.928  14.487 -0.1778  0.7133 -0.4514
 2172TIP3   OH227930   1.084   1.265   6.592  0.6272 -0.0472  0.1111
 2172TIP3    H127931   1.124   1.339   6.545  0.3246  0.7062  1.0059
 2172TIP3    H227932   1.157   1.225   6.640  0.6919  0.0073  0.0587
 2173TIP3   OH227933   2.661   5.609   5.371 -0.1059 -0.2709  0.3329
 2173TIP3    H127934   2.698   5.697   5.371 -1.4825  0.3382 -0.2588
 2173TIP3    H227935   2.690   5.570   5.453 -1.5523  1.6551  1.8713
 2174TIP3   OH227936   0.759   3.186   5.062  0.7674  0.1827  0.3305
 2174TIP3    H127937   0.770   3.200   5.156 -1.4442 -0.5790  0.7682
 2174TIP3    H227938   0.747   3.092   5.053  1.5174  0.1742 -0.8152
 2175TIP3   OH227939   1.010   5.052   1.380  0.2537 -0.3793  0.0045
 2175TIP3    H127940   0.988   5.051   1.287  0.7604  0.5624 -0.1395
 2175TIP3    H227941   1.091   5.103   1.385  0.3114 -0.5443  0.9455
 2176TIP3   OH227942   0.212   2.194   3.061 -0.0434  0.7132 -0.8203
 2176TIP3    H127943   0.229   2.105   3.031 -0.6546  0.0696  0.6569
 2176TIP3    H227944   0.195   2.186   3.154 -0.9051  2.2832 -0.7918
 2177TIP3   OH227945   6.159   4.145  14.134 -0.0202 -0.1043  0.3737
 2177TIP3    H127946   6.130   4.158  14.224 -1.3125 -1.0317  0.1055
 2177TIP3    H227947   6.140   4.229  14.091 -0.3935 -0.0138  0.7041
 2178TIP3   OH227948   4.606   3.072   3.006  0.6862  0.5770 -0.7042
 2178TIP3    H127949   4.691   3.059   2.964  0.7406  0.6587 -0.6193
 2178TIP3    H227950   4.627   3.098   3.096  0.5889 -1.5395  0.0005
 2179TIP3   OH227951   1.610   6.641  11.639  0.4976 -0.3230  0.3536
 2179TIP3    H127952   1.658   6.706  11.587  0.2644 -1.8681 -1.9382
 2179TIP3    H227953   1.646   6.650  11.728  1.4164  1.9677 -0.1770
 2180TIP3   OH227954   6.770   2.489  13.793 -0.5354 -0.0142 -0.2784
 2180TIP3    H127955   6.783   2.412  13.737 -0.1767 -0.9898  1.1097
 2180TIP3    H227956   6.676   2.506  13.787 -0.5238 -0.1610 -1.0842
 2181TIP3   OH227957   5.260   4.583  14.599 -0.1011  0.6031  0.0729
 2181TIP3    H127958   5.321   4.576  14.672  0.2553 -2.6486 -0.3834
 2181TIP3    H227959   5.174   4.575  14.640  0.0590 -0.2090  0.2889
 2182TIP3   OH227960   6.043   0.690  14.282 -0.1479  0.4874  0.4989
 2182TIP3    H127961   6.011   0.648  14.362 -0.0545  0.3009  0.4381
 2182TIP3    H227962   5.984   0.765  14.269 -0.0283  0.6452  0.8593
 2183TIP3   OH227963   5.992   1.267  17.142  0.1500 -0.0063 -0.3750
 2183TIP3    H127964   6.002   1.263  17.237  1.6123  0.7861 -0.4788
 2183TIP3    H227965   6.026   1.353  17.117 -2.4433  0.8211 -1.3922
 2184TIP3   OH227966   1.079   0.558  11.944 -0.9799 -0.3808  0.2822
 2184TIP3    H127967   1.036   0.636  11.979 -1.2694 -1.2155  1.8905
 2184TIP3    H227968   1.104   0.582  11.855 -1.5906  1.3355  0.5381
 2185TIP3   OH227969   2.543   4.631  11.220 -0.0262 -0.2513  0.0899
 2185TIP3    H127970   2.618   4.647  11.277 -0.2011  1.3767 -0.0806
 2185TIP3    H227971   2.566   4.675  11.138 -0.7732 -0.5182 -0.2731
 2186TIP3   OH227972   5.949   3.100  14.497 -0.0620 -0.2082  0.7382
 2186TIP3    H127973   6.037   3.086  14.462  0.2837  0.5011  1.3126
 2186TIP3    H227974   5.892   3.051  14.437  0.7137 -0.6763  0.3618
 2187TIP3   OH227975   2.048   0.696  14.019 -0.2803  0.5868 -0.1959
 2187TIP3    H127976   2.107   0.714  14.092 -0.8104 -0.0671  0.4058
 2187TIP3    H227977   1.961   0.693  14.058 -0.6964  1.2688 -1.0322
 2188TIP3   OH227978   5.814   3.456  16.171  0.1624 -0.3442 -0.1805
 2188TIP3    H127979   5.909   3.451  16.165  0.1165 -2.3486  0.1460
 2188TIP3    H227980   5.782   3.389  16.111 -1.1099  1.2035 -1.3110
 2189TIP3   OH227981   4.829   1.872  15.842 -0.0486  0.2048 -0.7928
 2189TIP3    H127982   4.922   1.861  15.823 -0.3488 -1.4918 -1.5273
 2189TIP3    H227983   4.806   1.793  15.891 -0.8350  1.2186  0.5171
 2190TIP3   OH227984   4.768   6.112   0.837  0.0034 -0.2441  0.1846
 2190TIP3    H127985   4.752   6.128   0.930 -0.1077 -1.4602  0.3815
 2190TIP3    H227986   4.859   6.137   0.824  0.6080 -1.8714  1.0639
 2191TIP3   OH227987   5.545   0.289  13.030  0.6702 -0.4693 -0.2616
 2191TIP3    H127988   5.461   0.302  12.986  0.4546  2.5300  0.7614
 2191TIP3    H227989   5.523   0.286  13.123  1.6166 -0.2890 -0.0220
 2192TIP3   OH227990   1.971   1.288  12.562  0.0282 -0.2122  0.3655
 2192TIP3    H127991   2.067   1.293  12.562  0.0405 -0.4058 -0.0350
 2192TIP3    H227992   1.952   1.194  12.556 -0.1900 -0.2384  1.3527
 2193TIP3   OH227993   5.800   0.327   3.794 -0.1187 -0.3432 -0.0809
 2193TIP3    H127994   5.856   0.252   3.773  0.0796 -0.0229 -0.7372
 2193TIP3    H227995   5.766   0.308   3.881 -0.6972 -1.5754 -0.5393
 2194TIP3   OH227996   5.587   0.905   5.793  0.3129 -0.2654 -0.5636
 2194TIP3    H127997   5.590   0.959   5.873  1.4273 -1.4679  0.2649
 2194TIP3    H227998   5.511   0.937   5.745 -0.6811  0.2048  1.2058
 2195TIP3   OH227999   4.545   5.547  16.995 -0.2582 -0.1155  0.1707
 2195TIP3    H128000   4.511   5.636  16.985  1.0723  0.4770  0.7469
 2195TIP3    H228001   4.570   5.520  16.907  1.3646  0.9460  0.2592
 2196TIP3   OH228002   6.131   2.146  14.711 -0.3320 -0.7857 -0.2554
 2196TIP3    H128003   6.178   2.222  14.678  0.8061 -1.1293  0.5164
 2196TIP3    H228004   6.047   2.148  14.666 -0.3419  0.9435 -0.2103
 2197TIP3   OH228005   2.474   6.679  15.473  0.0605 -0.6406  0.1828
 2197TIP3    H128006   2.496   6.757  15.524  2.0765 -0.0438 -1.4333
 2197TIP3    H228007   2.546   6.618  15.490  0.0564 -0.9584 -0.8622
 2198TIP3   OH228008   1.675   2.619  13.541  0.2770 -0.4228  0.4769
 2198TIP3    H128009   1.758   2.586  13.508 -0.1596 -1.3650  0.2886
 2198TIP3    H228010   1.610   2.556  13.510 -0.3361 -0.4700  1.7706
 2199TIP3   OH228011   0.962   0.043  10.707 -0.4248  0.1446  0.5461
 2199TIP3    H128012   0.909  -0.002  10.641 -1.8476 -0.4763  2.0399
 2199TIP3    H228013   0.899   0.095  10.756  0.6147  0.6573  1.3632
 2200TIP3   OH228014   4.365   3.714  11.504  0.5287  0.4040  0.5411
 2200TIP3    H128015   4.349   3.664  11.424  0.7164  2.6681 -0.9854
 2200TIP3    H228016   4.415   3.654  11.559  2.2171 -0.5441 -1.8623
 2201TIP3   OH228017   1.571   0.294   4.722  0.3253 -0.4962  1.0511
 2201TIP3    H128018   1.600   0.322   4.636  0.5288 -2.1899  0.5407
 2201TIP3    H228019   1.559   0.375   4.771  0.5175  0.4728 -0.4613
 2202TIP3   OH228020   2.818   5.993  14.216 -0.0311  0.0549 -0.4656
 2202TIP3    H128021   2.844   6.075  14.256 -0.3751  0.0019 -0.1252
 2202TIP3    H228022   2.865   5.926  14.265 -3.2042 -0.3374  2.4279
 2203TIP3   OH228023   6.241   3.697  12.845  0.0053  0.1999 -0.2828
 2203TIP3    H128024   6.188   3.673  12.921  1.1218  0.0322  0.4587
 2203TIP3    H228025   6.207   3.642  12.774 -2.5228  1.8886 -0.5130
 2204TIP3   OH228026   2.628   5.998   1.018  0.1693  0.1346  0.2350
 2204TIP3    H128027   2.648   5.954   0.935  2.8725 -1.3143  1.5279
 2204TIP3    H228028   2.577   5.934   1.067  1.3238 -0.3413  0.8640
 2205TIP3   OH228029   5.732   1.447   2.665 -0.0400  0.1772 -0.3703
 2205TIP3    H128030   5.763   1.510   2.600 -0.2814 -0.0424 -0.7070
 2205TIP3    H228031   5.671   1.497   2.720  0.8194  0.5810  0.2287
 2206TIP3   OH228032   5.914   2.109   0.571 -0.3182 -0.3986 -0.0043
 2206TIP3    H128033   5.842   2.145   0.623 -0.8246 -0.9424 -0.3193
 2206TIP3    H228034   5.872   2.049   0.510  0.4311 -0.9168 -0.0224
 2207TIP3   OH228035   1.420   2.853  15.084 -0.2170  0.0250  0.2531
 2207TIP3    H128036   1.457   2.786  15.025 -0.3406 -0.8913  1.1762
 2207TIP3    H228037   1.336   2.876  15.044  0.0480 -0.0106 -0.3381
 2208TIP3   OH228038   5.740   2.121  15.413  0.3661  0.2207 -0.1682
 2208TIP3    H128039   5.712   2.032  15.436  1.8609 -0.2915 -0.2185
 2208TIP3    H228040   5.679   2.178  15.460 -0.9161 -0.8130 -0.5171
 2209TIP3   OH228041   0.944   0.225  15.965 -0.9170  0.2935  0.1624
 2209TIP3    H128042   0.902   0.246  15.881 -0.4893  0.1700 -0.0833
 2209TIP3    H228043   0.893   0.274  16.030 -1.7753 -0.2673 -0.0698
 2210TIP3   OH228044   5.305   2.710   2.706 -0.4014 -0.0042 -0.1304
 2210TIP3    H128045   5.213   2.698   2.729 -0.3571 -0.7881 -0.3554
 2210TIP3    H228046   5.344   2.750   2.784 -0.8680  0.0506  0.0758
 2211TIP3   OH228047   5.398   3.638  13.372  0.1356  0.0526  0.0521
 2211TIP3    H128048   5.466   3.649  13.306  0.6539 -0.9241  0.4008
 2211TIP3    H228049   5.322   3.604  13.323  0.6062 -0.9363 -0.0198
 2212TIP3   OH228050   6.148   4.881   5.134 -0.1237 -0.5177  0.1553
 2212TIP3    H128051   6.105   4.819   5.075  0.2639  0.3265 -1.0561
 2212TIP3    H228052   6.092   4.883   5.211 -0.5628 -1.7780 -0.1042
 2213TIP3   OH228053   5.886   5.492  14.100 -0.6553  0.0165 -0.1824
 2213TIP3    H128054   5.958   5.446  14.056 -0.8073 -0.6694  0.2817
 2213TIP3    H228055   5.810   5.476  14.043 -0.6975 -0.2692 -0.0476
 2214TIP3   OH228056   6.270   3.858   4.888  0.1438  0.1841  0.3155
 2214TIP3    H128057   6.252   3.796   4.818  0.1419 -0.6397  1.0274
 2214TIP3    H228058   6.199   3.922   4.883  1.3134  1.4119 -1.8113
 2215TIP3   OH228059   6.644   0.820  12.768  0.1707 -0.1080  0.1303
 2215TIP3    H128060   6.655   0.743  12.823  1.7791  0.4855  0.6859
 2215TIP3    H228061   6.597   0.883  12.823 -2.1267 -1.0179 -0.6857
 2216TIP3   OH228062   3.135   3.141  17.104  0.1136 -0.1120 -0.5186
 2216TIP3    H128063   3.107   3.089  17.029  0.6556  0.1891 -0.9400
 2216TIP3    H228064   3.227   3.119  17.115  0.4316  0.9656 -0.8891
 2217TIP3   OH228065   0.562   3.668  13.433  0.3561  0.1301  0.2584
 2217TIP3    H128066   0.503   3.699  13.501  0.0687  0.9156 -0.3392
 2217TIP3    H228067   0.630   3.735  13.427  0.1848  0.2527 -0.4674
 2218TIP3   OH228068   2.847   4.502  10.573 -0.0789  0.1840  0.8261
 2218TIP3    H128069   2.877   4.417  10.604 -1.5086 -0.9890 -0.8024
 2218TIP3    H228070   2.814   4.485  10.484 -0.2200  2.4812  0.3762
 2219TIP3   OH228071   1.974   0.371  16.228  1.2445  0.1966 -0.0060
 2219TIP3    H128072   2.049   0.367  16.288  1.0299 -2.1309  0.1714
 2219TIP3    H228073   1.898   0.358  16.284  0.9449 -0.5914 -0.5847
 2220TIP3   OH228074   5.005   3.305  12.785  0.2513  0.3376 -0.1681
 2220TIP3    H128075   4.953   3.305  12.704 -2.3050 -0.3821  1.3506
 2220TIP3    H228076   5.079   3.248  12.766 -0.2217  0.2777 -2.0283
 2221TIP3   OH228077   3.482   5.017   2.407  0.4346  0.3409  0.1161
 2221TIP3    H128078   3.391   5.035   2.383 -0.3171 -1.1873  1.6056
 2221TIP3    H228079   3.477   4.985   2.497  2.1123 -2.3240 -0.6423
 2222TIP3   OH228080   0.319   1.321   2.538 -0.0191  0.0473  0.2921
 2222TIP3    H128081   0.411   1.317   2.512  0.3276  0.2534  1.4381
 2222TIP3    H228082   0.320   1.309   2.633 -1.1186  0.7804  0.4170
 2223TIP3   OH228083   0.297   5.569   4.515  0.5384  0.2032  0.4252
 2223TIP3    H128084   0.320   5.489   4.468  0.2284  0.7162 -0.6088
 2223TIP3    H228085   0.270   5.538   4.602  2.5959 -0.6228  0.8325
 2224TIP3   OH228086   3.824   0.665  14.582 -0.0214 -0.1461  0.8756
 2224TIP3    H128087   3.808   0.572  14.567 -0.9738  0.1711 -0.2339
 2224TIP3    H228088   3.865   0.696  14.502 -0.9324  0.6457  0.6962
 2225TIP3   OH228089   4.618   6.763   2.003  0.1682 -0.2103  0.2267
 2225TIP3    H128090   4.663   6.678   2.006  1.1380  0.0567 -2.8820
 2225TIP3    H228091   4.685   6.826   2.031  0.7086 -0.1403 -1.1624
 2226TIP3   OH228092   3.786   5.649  15.073  0.0365  0.5208 -0.1242
 2226TIP3    H128093   3.742   5.571  15.040  0.3088 -0.9586  2.7036
 2226TIP3    H228094   3.771   5.715  15.006 -4.1317 -0.6165 -0.6074
 2227TIP3   OH228095   1.893   5.252   4.056 -0.7977 -0.0195  0.0439
 2227TIP3    H128096   1.978   5.250   4.099 -0.2477  1.0595 -0.9327
 2227TIP3    H228097   1.833   5.286   4.122 -0.7291 -1.8435  1.1059
 2228TIP3   OH228098   5.037   3.897   0.574 -0.0753  0.4336 -0.3684
 2228TIP3    H128099   5.091   3.818   0.578  0.3921  0.4503 -3.5096
 2228TIP3    H228100   5.099   3.968   0.556 -0.5524  1.5314  1.8948
 2229TIP3   OH228101   6.199   6.429  12.592 -0.4226 -0.1758  0.2877
 2229TIP3    H128102   6.159   6.406  12.509 -2.3179 -0.2383  1.1710
 2229TIP3    H228103   6.126   6.452  12.649  0.8075 -0.2084  1.9688
 2230TIP3   OH228104   2.068   5.261  13.697 -0.1367  0.5783  0.4782
 2230TIP3    H128105   1.992   5.269  13.639  0.2216 -2.2581 -0.5318
 2230TIP3    H228106   2.142   5.290  13.644 -0.1717  0.7214  0.5076
 2231TIP3   OH228107   1.660   6.404  12.843 -0.0753 -0.2886  0.8166
 2231TIP3    H128108   1.739   6.350  12.832 -0.1417 -0.4549  1.1547
 2231TIP3    H228109   1.592   6.342  12.868  0.0849  0.0782  2.2644
 2232TIP3   OH228110   4.222   1.686  13.850  0.5018  0.0097  0.0412
 2232TIP3    H128111   4.169   1.669  13.928  1.2877  0.4977  0.7035
 2232TIP3    H228112   4.240   1.599  13.814  0.3584 -0.2408  0.5635
 2233TIP3   OH228113   1.890   1.756   1.705 -0.1003 -0.2054 -0.1444
 2233TIP3    H128114   1.844   1.812   1.643  0.3616 -0.2519 -0.5397
 2233TIP3    H228115   1.822   1.726   1.766 -0.7001 -0.6780 -1.0123
 2234TIP3   OH228116   1.155   3.976  15.091 -0.2556 -0.2610  0.4257
 2234TIP3    H128117   1.224   3.943  15.034 -0.4550  0.7991 -0.4574
 2234TIP3    H228118   1.180   3.946  15.179 -0.1036 -2.1587 -0.2247
 2235TIP3   OH228119   2.411   3.699  12.411 -0.1714 -0.2315  0.1118
 2235TIP3    H128120   2.497   3.730  12.443 -0.1944  0.5268 -0.5115
 2235TIP3    H228121   2.395   3.618  12.459  0.5017  0.0695  0.8729
 2236TIP3   OH228122   1.145   3.340   5.976 -0.2979  0.0351  0.2157
 2236TIP3    H128123   1.123   3.400   6.046  0.3586  1.8631 -1.0669
 2236TIP3    H228124   1.061   3.300   5.951 -0.7035  0.2224  1.2256
 2237TIP3   OH228125   5.593   2.828   1.873 -0.6237 -0.2642 -0.2714
 2237TIP3    H128126   5.654   2.754   1.866  0.2220  0.4617 -0.7969
 2237TIP3    H228127   5.649   2.905   1.873 -1.2686  0.3380  3.0717
 2238TIP3   OH228128   1.314   5.298  16.321 -0.0604  0.1053  0.5007
 2238TIP3    H128129   1.291   5.334  16.407 -0.5840  1.5533 -0.2127
 2238TIP3    H228130   1.239   5.318  16.266 -0.3261 -2.0240 -0.0022
 2239TIP3   OH228131   2.954   5.630  12.666  0.2258  0.2872  0.1986
 2239TIP3    H128132   2.924   5.714  12.632 -1.9081 -1.2007 -1.8187
 2239TIP3    H228133   2.916   5.625  12.754  1.3113  1.8318  0.8157
 2240TIP3   OH228134   2.695   0.342  16.933  0.6187  0.2104 -0.7024
 2240TIP3    H128135   2.769   0.282  16.939  0.6723  0.1156 -2.0087
 2240TIP3    H228136   2.676   0.348  16.839 -1.3872 -0.2003 -0.3891
 2241TIP3   OH228137   4.543   1.765  13.244  0.1094  0.7387  0.7987
 2241TIP3    H128138   4.513   1.761  13.153  2.0403 -0.0083  0.1558
 2241TIP3    H228139   4.513   1.851  13.275 -0.2414  1.1708 -0.6512
 2242TIP3   OH228140   1.399   2.059   1.297 -0.0856  0.6432 -0.4159
 2242TIP3    H128141   1.475   2.003   1.312  0.5049  1.1870 -1.2918
 2242TIP3    H228142   1.326   2.012   1.338  0.5298 -0.3780 -0.4563
 2243TIP3   OH228143   3.395   2.324   3.787 -0.0398  0.2522 -0.4060
 2243TIP3    H128144   3.454   2.393   3.818 -0.2277  1.5880 -2.7471
 2243TIP3    H228145   3.307   2.361   3.797 -0.1523  0.3454 -1.5391
 2244TIP3   OH228146   0.255   3.848  14.679 -0.0625  0.4367 -0.1196
 2244TIP3    H128147   0.165   3.839  14.709 -0.3148 -1.3303 -1.2624
 2244TIP3    H228148   0.308   3.841  14.758 -0.8309 -1.3207  0.2777
 2245TIP3   OH228149   5.978   4.849   1.845  0.0198 -0.6704  0.2881
 2245TIP3    H128150   6.026   4.892   1.774 -0.9914 -0.1216 -0.0774
 2245TIP3    H228151   5.912   4.796   1.802 -1.1701  0.3304  0.7938
 2246TIP3   OH228152   0.148   3.265   0.888  0.0220  0.3816  0.0250
 2246TIP3    H128153   0.221   3.248   0.829 -0.7055 -2.1194 -0.2959
 2246TIP3    H228154   0.189   3.293   0.970  1.2295  0.7026 -0.6660
 2247TIP3   OH228155   3.739   3.420  11.720  0.0860  0.2317  0.2551
 2247TIP3    H128156   3.673   3.431  11.652  0.1395 -0.2102  0.1256
 2247TIP3    H228157   3.746   3.325  11.731  0.2156  0.2956  0.7433
 2248TIP3   OH228158   2.398   0.970   0.404  0.2340  0.3360 -0.3320
 2248TIP3    H128159   2.450   1.013   0.472 -1.6052  0.2123  1.2387
 2248TIP3    H228160   2.376   0.885   0.441 -1.8963  0.7727 -0.4695
 2249TIP3   OH228161   5.398   4.869   3.235  0.1185 -0.6659  0.5112
 2249TIP3    H128162   5.400   4.936   3.303 -1.7440  0.5257 -0.5278
 2249TIP3    H228163   5.356   4.911   3.160  0.6082 -2.4357 -0.8415
 2250TIP3   OH228164   5.642   0.595   2.708 -0.4792  0.2048 -0.2764
 2250TIP3    H128165   5.574   0.660   2.690 -2.3329 -1.7576 -0.8122
 2250TIP3    H228166   5.612   0.550   2.787  1.1750  0.4619  0.5451
 2251TIP3   OH228167   0.498   1.715  17.154 -0.4182  0.2950 -0.6670
 2251TIP3    H128168   0.527   1.806  17.161 -2.6443  0.9986  0.4594
 2251TIP3    H228169   0.553   1.667  17.216  0.0967  1.0711 -0.5183
 2252TIP3   OH228170   3.962   4.291  10.482 -0.2208  0.3258  0.4182
 2252TIP3    H128171   4.024   4.226  10.514 -1.0454 -0.5725  0.2688
 2252TIP3    H228172   3.945   4.265  10.392 -0.9458  0.4333  0.5159
 2253TIP3   OH228173   0.821   2.722   5.887 -0.1625  0.2513  0.1462
 2253TIP3    H128174   0.859   2.805   5.860 -1.6324  0.6333 -0.8578
 2253TIP3    H228175   0.819   2.727   5.982  1.3786  0.5936  0.1982
 2254TIP3   OH228176   2.090   0.532  12.312 -0.1469  0.4216  0.0239
 2254TIP3    H128177   2.106   0.612  12.262  1.4264  0.7063  0.9232
 2254TIP3    H228178   2.146   0.541  12.389 -1.2748 -0.7516  1.0168
 2255TIP3   OH228179   3.487   1.163   5.770  0.1387  0.2230  0.7693
 2255TIP3    H128180   3.531   1.123   5.695  0.6108  0.5243  0.8794
 2255TIP3    H228181   3.408   1.203   5.733 -0.5882 -1.1880  0.7325
 2256TIP3   OH228182   0.659   6.664   2.989  0.4339 -0.1622 -0.2573
 2256TIP3    H128183   0.654   6.691   3.080 -0.0488  1.3465 -0.7112
 2256TIP3    H228184   0.739   6.612   2.983  0.7894  0.2425  0.8805
 2257TIP3   OH228185   1.158   1.532   4.026  0.7496 -0.3665 -0.7660
 2257TIP3    H128186   1.158   1.440   4.051 -1.0413 -1.2305 -3.4736
 2257TIP3    H228187   1.250   1.555   4.016  1.2999 -1.3568  1.4087
 2258TIP3   OH228188   4.968   5.767  15.425 -0.0283 -0.2892 -0.4900
 2258TIP3    H128189   4.917   5.687  15.415  0.0553 -0.4211  0.0804
 2258TIP3    H228190   4.932   5.809  15.504 -1.5451  1.3588 -1.9859
 2259TIP3   OH228191   5.998   4.106   4.490  0.4392  0.0687  0.7077
 2259TIP3    H128192   6.032   4.037   4.546 -0.5227  0.4135  1.7364
 2259TIP3    H228193   6.064   4.175   4.494  0.3234  0.1323  1.4933
 2260TIP3   OH228194   3.024   5.270  15.727 -0.1699  0.0875 -0.0072
 2260TIP3    H128195   2.996   5.355  15.693 -2.1583 -0.0204  1.2079
 2260TIP3    H228196   2.958   5.209  15.696  0.4992 -0.7925  0.2625
 2261TIP3   OH228197   1.813   2.662  12.602  0.0280 -0.6674 -1.0031
 2261TIP3    H128198   1.809   2.566  12.594  0.2389 -0.9391  1.3459
 2261TIP3    H228199   1.735   2.685  12.653  1.9814 -0.1750  2.0722
 2262TIP3   OH228200   3.194   5.308  15.951 -0.5416 -0.0450  0.2138
 2262TIP3    H128201   3.144   5.251  16.010 -0.6974  0.4024  0.5296
 2262TIP3    H228202   3.156   5.293  15.865 -1.0719  0.1166  0.4142
 2263TIP3   OH228203   0.928   5.437  14.438  0.1996 -0.1878 -0.1566
 2263TIP3    H128204   0.845   5.459  14.482  0.0447 -0.9314 -0.0779
 2263TIP3    H228205   0.963   5.364  14.488  2.4222  1.9641  1.7326
 2264TIP3   OH228206   1.923   0.651  16.366  0.1311  0.2937 -0.6556
 2264TIP3    H128207   1.979   0.671  16.441 -1.9867  0.1541  1.0565
 2264TIP3    H228208   1.876   0.571  16.391 -0.0680 -0.2130 -2.4849
 2265TIP3   OH228209   0.481   6.778  15.073  0.0123  0.3478 -0.4808
 2265TIP3    H128210   0.386   6.779  15.067 -0.0668 -0.0143  0.4993
 2265TIP3    H228211   0.509   6.864  15.042 -0.7410  1.0803  0.8047
 2266TIP3   OH228212   1.944   1.880  11.668  0.0603 -0.0436 -0.4152
 2266TIP3    H128213   2.003   1.889  11.743  0.8296 -0.8052 -0.9197
 2266TIP3    H228214   1.999   1.898  11.592 -0.5893  0.1769 -0.8431
 2267TIP3   OH228215   2.651   5.406  12.106 -0.1882 -0.1604 -0.5430
 2267TIP3    H128216   2.686   5.341  12.045 -1.1255  0.4920 -1.8195
 2267TIP3    H228217   2.725   5.426  12.164  1.0676 -0.0300 -2.1120
 2268TIP3   OH228218   6.706   1.810   2.239  0.0782  0.4094 -0.2708
 2268TIP3    H128219   6.787   1.861   2.245  0.7825 -0.7603  0.5015
 2268TIP3    H228220   6.686   1.808   2.145 -0.1344  2.3152 -0.3161
 2269TIP3   OH228221   5.676   3.817  13.442 -0.2223 -0.4165 -0.5300
 2269TIP3    H128222   5.608   3.850  13.384 -0.8376 -1.5264 -0.4699
 2269TIP3    H228223   5.631   3.798  13.524  0.3391 -0.3088 -0.1886
 2270TIP3   OH228224   4.474   1.796  11.599 -0.0788 -0.0598 -0.3733
 2270TIP3    H128225   4.552   1.740  11.596 -0.0191  0.0296 -0.5094
 2270TIP3    H228226   4.507   1.883  11.621 -0.4446 -0.5753  2.5839
 2271TIP3   OH228227   1.865   4.537  15.600  0.5263 -0.3698 -0.0437
 2271TIP3    H128228   1.841   4.608  15.659 -1.1343  0.0174 -1.1178
 2271TIP3    H228229   1.958   4.550  15.582  0.4286  1.0648  0.3870
 2272TIP3   OH228230   5.946   0.363  16.591 -0.4577 -0.0397  0.1128
 2272TIP3    H128231   5.888   0.418  16.538  1.1238 -0.1262 -1.8331
 2272TIP3    H228232   5.965   0.288  16.535  3.1755  0.9860 -0.2755
 2273TIP3   OH228233   4.969   3.662  14.872  0.0947  0.0706  0.5753
 2273TIP3    H128234   5.009   3.691  14.790  0.6151 -0.4864  0.6240
 2273TIP3    H228235   5.028   3.693  14.940  1.0771 -1.7124  0.5920
 2274TIP3   OH228236   6.755   1.541  16.403  0.1896 -0.4757 -0.0123
 2274TIP3    H128237   6.796   1.484  16.468  1.0232  0.3957  0.2358
 2274TIP3    H228238   6.740   1.483  16.328  1.2546 -0.9880  0.1421
 2275TIP3   OH228239   2.534   0.105   1.192 -0.2184  0.0718 -0.3848
 2275TIP3    H128240   2.534   0.201   1.201 -0.2817  0.2229 -1.7941
 2275TIP3    H228241   2.544   0.090   1.098  2.8240 -1.3402  0.0362
 2276TIP3   OH228242   2.237   6.201  15.493  0.3545 -0.2415  0.1598
 2276TIP3    H128243   2.148   6.165  15.500  0.2246 -0.0751 -0.5143
 2276TIP3    H228244   2.242   6.267  15.563 -0.6695  0.9864 -0.8577
 2277TIP3   OH228245   5.929   2.006   4.859 -0.5927 -0.3570 -0.0126
 2277TIP3    H128246   5.866   2.032   4.792 -0.5592 -0.0200  0.0847
 2277TIP3    H228247   5.928   2.078   4.922  1.2618  0.5540 -0.9452
 2278TIP3   OH228248   5.559   2.106   3.802 -0.0260  0.1961  0.1291
 2278TIP3    H128249   5.492   2.170   3.779 -0.8598 -0.2966  1.1191
 2278TIP3    H228250   5.577   2.060   3.721  0.6950  1.7437 -0.6452
 2279TIP3   OH228251   3.268   2.042  11.171 -0.0361  0.1201  0.3487
 2279TIP3    H128252   3.284   2.093  11.091 -2.4903  0.6951  0.1504
 2279TIP3    H228253   3.292   1.952  11.146 -0.8879  0.2623 -1.1246
 2280TIP3   OH228254   0.203   5.192  11.184  0.2204  0.2599  0.1704
 2280TIP3    H128255   0.176   5.101  11.170  0.2188  0.0760  1.2677
 2280TIP3    H228256   0.224   5.225  11.097 -0.8137 -0.4638 -0.3759
 2281TIP3   OH228257   6.699   5.362  16.357 -0.3831 -0.2214  0.2323
 2281TIP3    H128258   6.647   5.288  16.325  0.0498 -0.3333 -0.2250
 2281TIP3    H228259   6.693   5.427  16.287  0.9408 -0.6478 -0.3024
 2282TIP3   OH228260   2.643   5.510  12.496 -0.3090  0.3289 -0.1705
 2282TIP3    H128261   2.710   5.579  12.490 -0.2142  0.1323 -2.3571
 2282TIP3    H228262   2.566   5.555  12.530  0.2241  1.1252  0.0249
 2283TIP3   OH228263   1.504   1.214  15.452  0.6476  0.2986  0.0313
 2283TIP3    H128264   1.577   1.251  15.501 -0.5700  1.8310  0.8100
 2283TIP3    H228265   1.503   1.262  15.369 -0.0091  0.9833  0.4151
 2284TIP3   OH228266   0.752   1.724   0.650 -0.2093  0.0694 -0.4680
 2284TIP3    H128267   0.656   1.720   0.647 -0.1583 -1.5646 -2.3349
 2284TIP3    H228268   0.777   1.763   0.566  0.7695  0.0085 -0.2166
 2285TIP3   OH228269   1.030   5.899   0.237  0.1828 -0.7975  0.0252
 2285TIP3    H128270   0.964   5.847   0.192 -0.5174  0.3498 -0.3138
 2285TIP3    H228271   1.019   5.987   0.202  2.3304 -0.6946 -0.5190
 2286TIP3   OH228272   1.532   1.282  13.210  0.4818 -0.4083 -0.3162
 2286TIP3    H128273   1.581   1.232  13.146 -0.8203 -1.2432 -0.7130
 2286TIP3    H228274   1.506   1.217  13.276 -1.4666 -0.3751 -0.9793
 2287TIP3   OH228275   5.520   5.901  13.487  0.0802 -0.1979  0.0487
 2287TIP3    H128276   5.454   5.835  13.467  1.0135 -0.5179 -2.2174
 2287TIP3    H228277   5.602   5.851  13.492  0.6317  0.6349 -0.5523
 2288TIP3   OH228278   1.880   6.181   0.874 -0.1589 -0.2002  0.1203
 2288TIP3    H128279   1.819   6.227   0.932 -0.2277  0.1213 -0.2070
 2288TIP3    H228280   1.944   6.247   0.848 -1.5721  0.3615 -2.2359
 2289TIP3   OH228281   0.039   3.810   2.957  0.8135  0.0466  0.5530
 2289TIP3    H128282   0.069   3.892   2.919  0.5873 -0.1345 -0.0437
 2289TIP3    H228283  -0.052   3.802   2.926  0.5409  0.0101  1.3416
 2290TIP3   OH228284   6.465   2.558  14.739  0.2293  0.2076 -0.6047
 2290TIP3    H128285   6.521   2.494  14.783  2.3657  0.0097 -3.3477
 2290TIP3    H228286   6.467   2.635  14.797  0.2141 -1.0531  1.1718
 2291TIP3   OH228287   5.454   0.603  15.706 -0.4169 -0.7250 -0.3710
 2291TIP3    H128288   5.361   0.596  15.688 -0.4632 -0.0911 -0.4185
 2291TIP3    H228289   5.471   0.697  15.707  0.7914 -0.8121 -3.3599
 2292TIP3   OH228290   3.961   5.212  13.303 -0.7819 -0.0981  0.1295
 2292TIP3    H128291   3.931   5.297  13.272 -0.8096 -0.1705 -0.0467
 2292TIP3    H228292   4.057   5.217  13.297 -0.8012 -0.2447 -0.3325
 2293TIP3   OH228293   6.217   6.424  15.669 -0.2538  0.4910 -0.5352
 2293TIP3    H128294   6.170   6.345  15.695  0.1986  0.5534  0.5181
 2293TIP3    H228295   6.181   6.447  15.584 -1.2425 -0.1677 -0.3037
 2294TIP3   OH228296   5.923   2.937   4.515 -0.8802  0.2671  0.4578
 2294TIP3    H128297   5.829   2.921   4.522 -1.0019  0.1586 -1.0042
 2294TIP3    H228298   5.934   2.973   4.426  0.6099 -0.9707  0.1052
 2295TIP3   OH228299   0.153   5.940  10.969  0.0329 -0.0369 -0.0472
 2295TIP3    H128300   0.112   5.854  10.971  1.3574 -0.7024  1.7852
 2295TIP3    H228301   0.098   5.994  11.026  0.4479 -0.3358  0.6584
 2296TIP3   OH228302   3.129   3.979   5.554  0.0177  0.1573  0.1751
 2296TIP3    H128303   3.055   4.037   5.574  1.4128  1.7618  0.9339
 2296TIP3    H228304   3.126   3.911   5.621 -2.1779 -1.2941 -1.2529
 2297TIP3   OH228305   4.080   2.599   1.289 -0.2019  0.4382 -0.0007
 2297TIP3    H128306   4.063   2.689   1.261  1.5922  0.6251 -0.6437
 2297TIP3    H228307   4.024   2.587   1.366 -0.1403  2.2702  0.3794
 2298TIP3   OH228308   3.478   2.992  13.264  0.6787  0.3018 -0.4834
 2298TIP3    H128309   3.571   3.015  13.274  0.5347  0.3912  0.9507
 2298TIP3    H228310   3.445   2.988  13.354 -0.5572 -0.3744 -0.9403
 2299TIP3   OH228311   5.440   3.014  13.251  0.2123 -0.4352  0.5868
 2299TIP3    H128312   5.527   3.024  13.290  0.1289  0.2149  0.6160
 2299TIP3    H228313   5.442   3.069  13.173 -0.1956 -0.3642  0.6244
 2300TIP3   OH228314   1.406   4.824  15.398 -0.3224  0.2254 -0.4611
 2300TIP3    H128315   1.375   4.900  15.447  2.8506  0.4054  1.5270
 2300TIP3    H228316   1.393   4.750  15.458  2.0522  0.1948  0.1271
 2301TIP3   OH228317   0.381   0.054  10.530  0.2736 -0.0010 -0.4034
 2301TIP3    H128318   0.408   0.035  10.620 -0.0117  2.0008  0.1558
 2301TIP3    H228319   0.392  -0.029  10.484 -0.2834 -1.2937  1.6269
 2302TIP3   OH228320   1.235   3.556   5.443 -0.3597  0.3809  0.2089
 2302TIP3    H128321   1.206   3.643   5.474 -0.4447 -0.0153  1.3003
 2302TIP3    H228322   1.315   3.574   5.394 -0.2340  1.0610  0.6348
 2303TIP3   OH228323   1.330   2.089  13.099  0.1597 -0.6990 -0.2955
 2303TIP3    H128324   1.272   2.156  13.063  0.2426 -0.4258  0.0753
 2303TIP3    H228325   1.418   2.122  13.082  0.3040  1.2841  3.3515
 2304TIP3   OH228326   6.089   4.953   0.962 -0.1654 -0.4337  0.1647
 2304TIP3    H128327   6.046   5.032   0.995 -3.0375 -1.1345 -1.5298
 2304TIP3    H228328   6.059   4.883   1.021 -1.8009 -0.9958 -1.2621
 2305TIP3   OH228329   2.035   2.016  10.925 -0.1944 -0.6841  0.5230
 2305TIP3    H128330   2.116   1.983  10.887  0.2333 -0.1032  0.8918
 2305TIP3    H228331   1.999   1.942  10.974  0.2115 -0.8951  0.5047
 2306TIP3   OH228332   6.090   4.434  15.041 -0.0254 -0.5704 -0.1712
 2306TIP3    H128333   6.117   4.484  14.964 -1.0335 -1.2990 -1.0269
 2306TIP3    H228334   6.131   4.480  15.114  0.6747  0.3477 -1.0948
 2307TIP3   OH228335   5.342   4.291  14.298 -0.2153  0.2595  0.2177
 2307TIP3    H128336   5.348   4.229  14.371  1.8843  0.8570  0.6234
 2307TIP3    H228337   5.355   4.237  14.220 -0.2249 -0.0627  0.4379
 2308TIP3   OH228338   3.871   6.197  11.714 -0.3818  0.1491  0.4528
 2308TIP3    H128339   3.826   6.205  11.629  0.2247  0.1131  0.1250
 2308TIP3    H228340   3.910   6.110  11.712  1.3411  0.8915 -0.0896
 2309TIP3   OH228341   3.789   1.534  15.656  0.3444 -0.0238  0.0635
 2309TIP3    H128342   3.765   1.450  15.617  0.1276 -0.3260  0.8289
 2309TIP3    H228343   3.859   1.513  15.717  0.3950  0.3784  0.1441
 2310TIP3   OH228344   4.239   1.141  15.214 -0.8061  0.2402 -0.0846
 2310TIP3    H128345   4.208   1.199  15.283  0.3984  1.1566 -0.2858
 2310TIP3    H228346   4.255   1.058  15.257  0.7096  1.0253  0.9403
 2311TIP3   OH228347   0.756   6.562   4.540  0.1643  0.0515 -0.3027
 2311TIP3    H128348   0.724   6.634   4.485  1.2570 -0.6784 -1.9571
 2311TIP3    H228349   0.713   6.576   4.625 -0.5326  1.9796 -0.9256
 2312TIP3   OH228350   3.087   5.146   3.322  0.2913  0.6162  0.1419
 2312TIP3    H128351   3.135   5.105   3.393  1.2700  0.9158 -0.3254
 2312TIP3    H228352   3.021   5.082   3.296 -0.1074  0.5219  1.3314
 2313TIP3   OH228353   2.972   2.293  14.718 -0.0783 -0.4866  0.4869
 2313TIP3    H128354   2.979   2.358  14.648 -2.2623 -1.7939 -1.0754
 2313TIP3    H228355   2.935   2.341  14.792  0.7353  0.5618  0.2453
 2314TIP3   OH228356   0.636   4.874  10.494  0.5661 -0.2096  0.3719
 2314TIP3    H128357   0.541   4.869  10.508  0.3939 -0.5208 -0.8476
 2314TIP3    H228358   0.647   4.941  10.426  1.1585 -0.7643 -0.0808
 2315TIP3   OH228359   2.275   2.534   1.080  0.4497  0.2259  0.0270
 2315TIP3    H128360   2.334   2.487   1.140  1.2399  0.8093 -0.2881
 2315TIP3    H228361   2.208   2.571   1.137 -1.7007 -3.3051  0.1222
 2316TIP3   OH228362   4.448   4.183   3.109 -0.1655 -0.2046  0.3768
 2316TIP3    H128363   4.437   4.275   3.129  0.2702  0.4055 -1.9241
 2316TIP3    H228364   4.405   4.171   3.025  0.0584 -2.0356  0.4739
 2317TIP3   OH228365   4.323   3.946   4.354 -0.4942 -0.5794  0.3233
 2317TIP3    H128366   4.260   4.005   4.313  0.0771  0.7970  1.3319
 2317TIP3    H228367   4.338   3.984   4.441  1.2463 -1.2083  0.3371
 2318TIP3   OH228368   4.539   5.933  11.059  0.0577 -0.4086 -0.3043
 2318TIP3    H128369   4.585   5.974  11.133 -2.4636  1.8947  0.1378
 2318TIP3    H228370   4.594   5.954  10.983  0.5883  0.8746  0.3978
 2319TIP3   OH228371   4.360   5.078  16.235 -0.0166  0.1885 -0.2621
 2319TIP3    H128372   4.323   5.091  16.323 -1.9621 -0.8463 -0.8645
 2319TIP3    H228373   4.392   4.987  16.237 -0.9283 -0.1626 -0.8790
 2320TIP3   OH228374   4.608   5.959   3.753  0.0455 -0.3265 -0.3117
 2320TIP3    H128375   4.547   5.894   3.719  1.5762 -1.0108 -1.8746
 2320TIP3    H228376   4.552   6.026   3.792 -1.7218 -0.6836 -2.0901
 2321TIP3   OH228377   0.639   6.076  14.662  0.2231  0.3883 -0.2486
 2321TIP3    H128378   0.657   6.142  14.595 -0.8531  0.8428 -0.1053
 2321TIP3    H228379   0.663   5.993  14.621 -2.0707  0.4463 -1.9187
 2322TIP3   OH228380   4.976   3.619  15.571  0.0064 -0.3828 -0.1885
 2322TIP3    H128381   4.912   3.589  15.636  1.5669 -2.8710  0.3539
 2322TIP3    H228382   5.020   3.693  15.613 -0.8075 -0.2702  0.4829
 2323TIP3   OH228383   1.606   5.561  11.501  0.2928  0.0291 -0.4510
 2323TIP3    H128384   1.554   5.556  11.581  0.9148  1.9166  0.1199
 2323TIP3    H228385   1.541   5.574  11.431 -0.0928  3.4972  0.3685
 2324TIP3   OH228386   1.849   5.740   5.828  0.9447  0.2249  0.3019
 2324TIP3    H128387   1.894   5.740   5.744 -0.0469 -1.8092 -0.2935
 2324TIP3    H228388   1.758   5.760   5.807  0.5400 -1.0159  0.7563
 2325TIP3   OH228389   5.924   3.766  11.747 -0.1634 -0.0538 -0.2749
 2325TIP3    H128390   5.892   3.693  11.694  0.9341 -0.4859 -0.3817
 2325TIP3    H228391   5.966   3.825  11.684  0.4609 -0.1851  0.0118
 2326TIP3   OH228392   5.637   2.860  15.591  0.1785  0.1279  0.3437
 2326TIP3    H128393   5.699   2.897  15.654 -1.2756  1.2891  1.1606
 2326TIP3    H228394   5.678   2.877  15.506  1.4078  0.0159  0.8849
 2327TIP3   OH228395   2.891   4.801   3.592 -0.2972 -0.0568  0.7060
 2327TIP3    H128396   2.807   4.843   3.612 -1.0483 -1.3679  0.4160
 2327TIP3    H228397   2.880   4.710   3.620  1.2753 -0.1014  1.2814
 2328TIP3   OH228398   0.184   6.119   3.834  0.7594  0.2720 -0.6470
 2328TIP3    H128399   0.152   6.207   3.816  0.7788  0.5725  0.7068
 2328TIP3    H228400   0.111   6.062   3.813  0.4130  0.6963 -0.6091
 2329TIP3   OH228401   5.837   6.777   0.846 -0.3331  0.1749  0.3231
 2329TIP3    H128402   5.830   6.767   0.941 -0.8458  1.2241  0.4125
 2329TIP3    H228403   5.760   6.828   0.822  0.5396  1.1702 -0.4548
 2330TIP3   OH228404   4.477   6.688   2.310 -0.2224 -0.6633  0.4967
 2330TIP3    H128405   4.463   6.608   2.260  0.3678 -0.1983 -0.4535
 2330TIP3    H228406   4.567   6.715   2.288 -0.7661  0.8290 -0.0675
 2331TIP3   OH228407   3.712   0.619   2.313 -0.4271 -0.0918  0.0701
 2331TIP3    H128408   3.717   0.696   2.255  1.1928 -0.7571 -0.7441
 2331TIP3    H228409   3.697   0.656   2.400 -0.1323  1.1205 -0.3718
 2332TIP3   OH228410   3.785   0.807  16.131 -0.0614  0.0809 -0.1394
 2332TIP3    H128411   3.770   0.881  16.191 -0.7641  1.1938 -1.6124
 2332TIP3    H228412   3.820   0.848  16.052  0.3359 -1.2842 -0.6837
 2333TIP3   OH228413   6.332   1.073  12.319 -0.1898 -0.2214 -0.1401
 2333TIP3    H128414   6.316   1.032  12.405 -1.4490  1.5137  0.5067
 2333TIP3    H228415   6.286   1.017  12.257 -0.0583 -0.9801  0.4295
 2334TIP3   OH228416   4.317   5.172   1.398 -0.3865 -0.3095 -0.1910
 2334TIP3    H128417   4.279   5.099   1.350 -0.4424  0.0477 -0.6988
 2334TIP3    H228418   4.392   5.200   1.345 -0.4199  0.0581 -0.0484
 2335TIP3   OH228419   2.680   2.899   4.503 -0.0018 -0.8937 -0.4877
 2335TIP3    H128420   2.696   2.806   4.519 -1.2961 -1.2948 -1.3773
 2335TIP3    H228421   2.587   2.911   4.522  0.4968  0.6459  1.3846
 2336TIP3   OH228422   2.839   3.330   4.708 -0.5407 -0.0370  0.3224
 2336TIP3    H128423   2.783   3.253   4.703  0.1031 -0.5981  1.5315
 2336TIP3    H228424   2.844   3.361   4.617  0.2750 -2.1846 -0.4193
 2337TIP3   OH228425   0.394   4.612   2.906  0.5331 -0.2005 -0.1352
 2337TIP3    H128426   0.466   4.550   2.898  0.6899  0.1561 -2.1190
 2337TIP3    H228427   0.317   4.564   2.875  0.6554  0.5312 -1.6818
 2338TIP3   OH228428   5.335   1.693  15.633 -0.6548 -0.4867  0.6841
 2338TIP3    H128429   5.360   1.603  15.658 -0.2739 -0.3767  0.7107
 2338TIP3    H228430   5.268   1.717  15.696  0.9994  0.1557  2.2883
 2339TIP3   OH228431   1.983   1.283   0.701  0.3580 -0.0500 -0.0405
 2339TIP3    H128432   1.906   1.298   0.757  0.2732  1.8920 -0.6173
 2339TIP3    H228433   2.055   1.269   0.763  0.0395  0.8545  0.5603
 2340TIP3   OH228434   0.903   4.450   5.012  0.0430 -0.4812  0.2310
 2340TIP3    H128435   0.815   4.475   4.984  0.5631  2.2961  0.7500
 2340TIP3    H228436   0.961   4.490   4.947  0.9813 -0.1289  1.2492
 2341TIP3   OH228437   2.896   3.571  13.558  0.4695 -0.2824  0.2001
 2341TIP3    H128438   2.855   3.548  13.475 -0.0599  0.3894  0.2620
 2341TIP3    H228439   2.917   3.664  13.550 -1.5677  0.3821  1.5724
 2342TIP3   OH228440   5.469   3.493   0.705  0.1390 -0.0022 -0.4608
 2342TIP3    H128441   5.438   3.580   0.729 -0.9592 -0.4595 -0.1586
 2342TIP3    H228442   5.426   3.434   0.766  1.0668 -0.7514 -0.4954
 2343TIP3   OH228443   3.533   1.226   4.300 -0.4088  0.2750  0.5505
 2343TIP3    H128444   3.535   1.258   4.210  0.6630  1.1144  0.8469
 2343TIP3    H228445   3.440   1.212   4.319 -0.8952  2.6237  0.1655
 2344TIP3   OH228446   4.586   6.039  12.653 -0.6855  0.5457  0.4152
 2344TIP3    H128447   4.528   6.105  12.615 -1.6788 -0.6107 -0.1674
 2344TIP3    H228448   4.574   5.962  12.597  1.4404  0.2687  0.2778
 2345TIP3   OH228449   3.189   2.601   5.802  0.0629  0.3736 -0.2364
 2345TIP3    H128450   3.207   2.632   5.890  0.3963  0.1534 -0.2256
 2345TIP3    H228451   3.196   2.506   5.808 -0.4311  0.3222 -0.3843
 2346TIP3   OH228452   1.892   3.872  11.156  0.3929  0.7045  0.1560
 2346TIP3    H128453   1.893   3.777  11.148 -0.3581  0.7098 -0.1287
 2346TIP3    H228454   1.881   3.903  11.065 -1.9215  0.9716  0.4507
 2347TIP3   OH228455   5.985   0.318   1.494 -0.1581  0.3017 -0.0762
 2347TIP3    H128456   6.031   0.321   1.578  0.8263  1.1660 -0.6202
 2347TIP3    H228457   5.903   0.366   1.510  1.1050  2.6385 -0.2081
 2348TIP3   OH228458   3.997   2.977  14.615 -0.1590  0.1812  0.3795
 2348TIP3    H128459   4.092   2.986  14.628 -0.0840  0.1953 -0.1410
 2348TIP3    H228460   3.977   3.039  14.544 -0.5678  0.2234  0.5311
 2349TIP3   OH228461   2.851   5.747   5.745 -0.3011 -0.3587  0.2690
 2349TIP3    H128462   2.801   5.824   5.718 -1.4897 -1.2480 -0.1433
 2349TIP3    H228463   2.873   5.763   5.836 -0.2066  0.6306  0.0839
 2350TIP3   OH228464   2.125   6.422  16.740 -0.4466  0.0696  0.1327
 2350TIP3    H128465   2.042   6.457  16.707 -0.4614  1.0433  1.1452
 2350TIP3    H228466   2.131   6.334  16.702 -0.8951  0.7849 -1.6684
 2351TIP3   OH228467   1.750   6.303   1.093 -0.6735 -0.1651  0.2750
 2351TIP3    H128468   1.691   6.245   1.142 -0.6054  0.6187  1.3172
 2351TIP3    H228469   1.796   6.353   1.161  0.8179 -0.3952 -0.5407
 2352TIP3   OH228470   6.001   6.010   4.470 -0.1262  0.1125  0.6557
 2352TIP3    H128471   6.055   5.934   4.490 -0.1351  0.2607  1.2611
 2352TIP3    H228472   6.046   6.084   4.512  0.2913  0.5784 -0.5600
 2353TIP3   OH228473   1.136   1.083  16.573  0.0823 -0.9739 -0.3313
 2353TIP3    H128474   1.182   1.156  16.615  0.2247 -0.8195 -0.7569
 2353TIP3    H228475   1.191   1.007  16.590 -0.6548 -1.2231  1.1559
 2354TIP3   OH228476   5.489   5.827  12.884 -0.3496  0.3337  0.2368
 2354TIP3    H128477   5.475   5.732  12.887  1.3552 -0.0023 -0.7559
 2354TIP3    H228478   5.480   5.850  12.791  2.0612  0.5745 -0.0257
 2355TIP3   OH228479   1.159   0.576  11.678 -0.0167 -0.6364  0.2853
 2355TIP3    H128480   1.106   0.510  11.633 -0.6357 -1.3823  2.0172
 2355TIP3    H228481   1.248   0.541  11.675 -0.2055 -1.1459  0.4567
 2356TIP3   OH228482   2.954   4.064  16.291 -0.6739  0.1627 -0.1809
 2356TIP3    H128483   2.874   4.088  16.244 -0.7491 -1.0951 -0.7609
 2356TIP3    H228484   3.021   4.060  16.223 -0.1117  1.1950  0.2985
 2357TIP3   OH228485   5.397   5.080   0.254 -0.2416  0.0167 -0.2498
 2357TIP3    H128486   5.478   5.034   0.233  0.6966  1.4684  0.0914
 2357TIP3    H228487   5.330   5.034   0.203  1.2167  0.5012 -2.7608
 2358TIP3   OH228488   5.960   2.750  16.943  0.1744  0.2684  0.4311
 2358TIP3    H128489   5.908   2.752  16.862 -1.0315 -0.6989  1.1420
 2358TIP3    H228490   6.047   2.779  16.916 -0.7739  2.1893 -0.7557
 2359TIP3   OH228491   1.680   3.475  15.433 -0.2035  0.2070  0.2126
 2359TIP3    H128492   1.674   3.456  15.527  0.2144  1.1574  0.4413
 2359TIP3    H228493   1.618   3.414  15.393  0.7540 -1.3143  0.9398
 2360TIP3   OH228494   3.129   5.020   0.887  0.1672 -0.2552 -0.1031
 2360TIP3    H128495   3.150   5.038   0.978 -0.0872 -0.3744 -0.0209
 2360TIP3    H228496   3.193   4.954   0.860  1.1745  0.8138 -0.4372
 2361TIP3   OH228497   0.555   2.596  12.908  0.3968 -0.4114  0.1416
 2361TIP3    H128498   0.580   2.567  12.996 -0.9183 -2.5892 -0.1158
 2361TIP3    H228499   0.609   2.543  12.849 -0.5952 -0.9030 -0.3552
 2362TIP3   OH228500   4.729   4.144   5.129  0.5248 -0.4921 -0.2346
 2362TIP3    H128501   4.806   4.126   5.075  0.6033  0.0067 -0.2918
 2362TIP3    H228502   4.696   4.057   5.153  2.0361 -0.7318  1.1266
 2363TIP3   OH228503   2.142   2.367   1.934 -0.2373 -0.0857  0.8056
 2363TIP3    H128504   2.073   2.304   1.953 -0.8070 -0.2094 -1.4772
 2363TIP3    H228505   2.215   2.314   1.901 -0.7418  0.4004 -1.1921
 2364TIP3   OH228506   1.130   4.984   0.861  0.0919 -0.2048 -0.0470
 2364TIP3    H128507   1.075   4.980   0.782 -0.1965 -0.9992  0.1815
 2364TIP3    H228508   1.211   5.025   0.831 -0.7210  1.2780 -0.3171
 2365TIP3   OH228509   6.392   2.629   3.913 -0.1475 -0.6842  0.1405
 2365TIP3    H128510   6.375   2.717   3.881 -0.9045 -1.2945 -1.2062
 2365TIP3    H228511   6.482   2.633   3.946  0.1899  0.3195 -0.8512
 2366TIP3   OH228512   0.154   3.942  13.424 -0.7865  0.3125  0.3917
 2366TIP3    H128513   0.130   3.991  13.345  0.4057  1.3086  0.6211
 2366TIP3    H228514   0.248   3.927  13.415 -1.3503 -3.9051 -0.7167
 2367TIP3   OH228515   0.648   3.300   1.619  0.4204  0.1072  0.0131
 2367TIP3    H128516   0.609   3.295   1.707 -0.0849  2.1697 -0.0254
 2367TIP3    H228517   0.707   3.375   1.624  0.1166  0.4755 -1.4912
 2368TIP3   OH228518   0.726   6.574   4.083  0.2302  0.6247  0.1826
 2368TIP3    H128519   0.694   6.492   4.045 -1.2862  1.5450 -0.6475
 2368TIP3    H228520   0.669   6.589   4.159  1.3129  0.3025  1.0873
 2369TIP3   OH228521   3.883   1.429   5.970  0.2580  0.2870  0.2959
 2369TIP3    H128522   3.867   1.463   6.058 -2.0801  0.2104 -0.0363
 2369TIP3    H228523   3.962   1.474   5.941  0.0449  1.6888  1.7439
 2370TIP3   OH228524   3.563   3.102   6.624 -0.5670 -0.5353  0.0441
 2370TIP3    H128525   3.496   3.034   6.615 -1.2524 -0.2053  2.2408
 2370TIP3    H228526   3.515   3.182   6.643  0.4216 -0.4744  2.6052
 2371TIP3   OH228527   3.563   6.346  15.925 -0.0945  0.3691 -0.2040
 2371TIP3    H128528   3.621   6.366  15.852  1.2509  0.4645  0.8531
 2371TIP3    H228529   3.572   6.421  15.984 -2.3151  1.0282 -0.5834
 2372TIP3   OH228530   1.067   2.819   1.080 -0.0518  0.0684  0.2944
 2372TIP3    H128531   1.122   2.883   1.034 -1.0410  1.0218  0.3945
 2372TIP3    H228532   1.113   2.803   1.162  0.9655 -0.5025 -0.3696
 2373TIP3   OH228533   1.602   4.763  13.927 -0.0035 -0.4042 -0.1643
 2373TIP3    H128534   1.579   4.670  13.927 -0.3054 -0.3330  0.3080
 2373TIP3    H228535   1.570   4.795  13.843 -0.2075 -0.6550 -0.1838
 2374TIP3   OH228536   0.351   1.947   2.978  0.4174  0.2232 -0.1790
 2374TIP3    H128537   0.320   1.916   3.063  0.6591 -1.2838 -0.5998
 2374TIP3    H228538   0.446   1.938   2.983  0.3502 -1.2469 -1.0762
 2375TIP3   OH228539   5.226   5.731   1.670 -0.0875 -0.0272 -0.0533
 2375TIP3    H128540   5.275   5.812   1.684 -1.1243  0.4961  0.6961
 2375TIP3    H228541   5.232   5.715   1.576  0.3982  0.7446 -0.1632
 2376TIP3   OH228542   1.793   6.222   3.728  0.5760  0.0257  0.1200
 2376TIP3    H128543   1.837   6.180   3.802  1.1414 -1.8575 -1.2086
 2376TIP3    H228544   1.700   6.214   3.747  0.7116 -0.5594  0.5675
 2377TIP3   OH228545   6.605   3.071   3.451 -0.1724 -0.1145 -0.9934
 2377TIP3    H128546   6.628   3.164   3.447  1.2848 -0.1659  2.3374
 2377TIP3    H228547   6.662   3.030   3.386  0.0996  1.1666 -1.6132
 2378TIP3   OH228548   0.212   5.844  14.398 -0.1364 -0.7590 -0.2064
 2378TIP3    H128549   0.182   5.924  14.442 -0.8265 -1.4564  0.6307
 2378TIP3    H228550   0.132   5.806  14.360 -0.0111 -1.6105  0.3492
 2379TIP3   OH228551   4.150   3.591   5.688 -0.5616  0.0273  0.5129
 2379TIP3    H128552   4.198   3.641   5.622 -2.1332 -1.8494 -2.2613
 2379TIP3    H228553   4.097   3.656   5.734 -0.0197  1.3281 -0.6359
 2380TIP3   OH228554   3.275   0.212   1.678 -0.6596  0.2186 -0.0688
 2380TIP3    H128555   3.246   0.256   1.598 -1.5893  1.2871  0.8221
 2380TIP3    H228556   3.365   0.186   1.659 -0.7855  0.6293 -1.3782
 2381TIP3   OH228557   6.545   4.787   2.041 -0.2386  0.5969  0.0978
 2381TIP3    H128558   6.555   4.763   2.133  0.2220 -0.7047 -0.2700
 2381TIP3    H228559   6.562   4.881   2.039 -0.4934  0.6909  1.3724
 2382TIP3   OH228560   0.225   2.573  15.665 -0.2935  0.8528  0.6257
 2382TIP3    H128561   0.267   2.558  15.750  0.3569  2.8646  0.6992
 2382TIP3    H228562   0.295   2.605  15.609 -1.0017  0.7936 -0.3149
 2383TIP3   OH228563   3.998   6.257   3.437  0.2273 -0.0555  0.1414
 2383TIP3    H128564   4.034   6.286   3.520 -0.4957  2.2964 -0.2939
 2383TIP3    H228565   4.068   6.271   3.374  0.0006  0.4340 -0.0089
 2384TIP3   OH228566   2.437   2.382  13.219  0.1360  0.0457  0.5022
 2384TIP3    H128567   2.384   2.458  13.241  1.9558  1.1271  1.3297
 2384TIP3    H228568   2.515   2.389  13.274  1.3328 -1.2854 -0.8955
 2385TIP3   OH228569   0.640   0.130   5.332  0.0218  0.1055  1.2217
 2385TIP3    H128570   0.627   0.195   5.262 -0.7274  0.0976  1.3414
 2385TIP3    H228571   0.626   0.178   5.413 -2.8480 -0.6393  1.2695
 2386TIP3   OH228572   5.223   0.477  14.951 -0.4800 -0.3990 -0.2563
 2386TIP3    H128573   5.200   0.462  15.043 -2.2108  2.8927 -0.0095
 2386TIP3    H228574   5.138   0.475  14.905  0.0671  0.4923 -1.3466
 2387TIP3   OH228575   0.147   4.681   6.502  0.3771  0.2944 -0.0685
 2387TIP3    H128576   0.170   4.711   6.590  1.1113  0.0738 -0.1843
 2387TIP3    H228577   0.059   4.718   6.487 -1.5190 -2.7519  2.2561
 2388TIP3   OH228578   0.349   4.678  13.250 -0.2814  0.3782  0.1752
 2388TIP3    H128579   0.350   4.704  13.342  1.4114 -0.2128  0.3696
 2388TIP3    H228580   0.313   4.754  13.204  1.6489  1.9187  1.0351
 2389TIP3   OH228581   2.311   4.238  12.909 -0.1616  0.0019 -0.0253
 2389TIP3    H128582   2.395   4.259  12.870 -0.1226 -0.0865  0.0098
 2389TIP3    H228583   2.329   4.163  12.966 -0.1589  0.3004  0.3762
 2390TIP3   OH228584   1.494   4.569  16.232 -0.1835  0.2417 -0.2492
 2390TIP3    H128585   1.431   4.632  16.197 -1.2377 -0.7102 -0.0902
 2390TIP3    H228586   1.463   4.484  16.202  1.3426 -0.2078 -0.6362
 2391TIP3   OH228587   5.758   2.779   2.142  0.1411 -0.1032  0.0069
 2391TIP3    H128588   5.800   2.694   2.152 -0.6237 -0.5409 -0.4478
 2391TIP3    H228589   5.665   2.759   2.131  0.1233  0.7014 -1.5355
 2392TIP3   OH228590   5.098   3.058   6.182 -0.5137 -0.3512 -0.4456
 2392TIP3    H128591   5.056   3.040   6.098 -0.7146 -0.8965 -0.2304
 2392TIP3    H228592   5.138   3.144   6.170 -1.1877 -0.0842 -0.8479
 2393TIP3   OH228593   2.362   2.044  11.358 -0.0238  0.3107 -0.6068
 2393TIP3    H128594   2.351   2.005  11.271  1.0664  0.2409 -0.7282
 2393TIP3    H228595   2.395   1.972  11.412  0.8492  0.7569 -0.5357
 2394TIP3   OH228596   1.195   4.285  16.396 -0.1791  0.0167  0.1250
 2394TIP3    H128597   1.103   4.270  16.415  0.0972  1.2131  2.8816
 2394TIP3    H228598   1.196   4.362  16.338 -0.9270  1.3814  1.8183
 2395TIP3   OH228599   5.004   3.004   3.264  0.0270 -0.3628 -0.4147
 2395TIP3    H128600   4.989   2.939   3.333 -0.1723 -0.4230 -0.5138
 2395TIP3    H228601   4.917   3.037   3.243  0.1760  0.3339  0.0129
 2396TIP3   OH228602   0.263   5.724  17.017 -0.2732  0.0849 -0.2962
 2396TIP3    H128603   0.189   5.741  16.959 -0.3911 -0.0541 -0.1861
 2396TIP3    H228604   0.278   5.807  17.063 -0.3747  0.1049 -0.3009
 2397TIP3   OH228605   2.396   5.506  13.911 -0.0285 -0.2237 -0.3089
 2397TIP3    H128606   2.337   5.502  13.987  1.1570  3.2200  1.0411
 2397TIP3    H228607   2.452   5.429  13.920 -0.7973 -0.6333  1.5599
 2398TIP3   OH228608   0.240   1.247  14.269  0.3955 -0.6141  0.0627
 2398TIP3    H128609   0.146   1.267  14.265  0.1078 -1.9306 -0.3268
 2398TIP3    H228610   0.283   1.332  14.265 -0.7854  0.0089  0.2221
 2399TIP3   OH228611   1.739   4.423   2.357 -0.3360 -0.1784  0.0951
 2399TIP3    H128612   1.780   4.507   2.376 -0.6304 -0.1786  0.7719
 2399TIP3    H228613   1.645   4.441   2.363 -0.4182 -0.3729 -0.5631
 2400TIP3   OH228614   5.730   3.623  12.194 -0.1871 -0.2526  0.2644
 2400TIP3    H128615   5.710   3.533  12.218  0.6903 -0.3722  0.5969
 2400TIP3    H228616   5.665   3.646  12.128  0.5899 -1.6985 -1.0472
 2401TIP3   OH228617   2.851   0.742  12.307  0.0501 -0.5164  0.1148
 2401TIP3    H128618   2.875   0.779  12.222  0.8978  2.2618  1.4415
 2401TIP3    H228619   2.904   0.662  12.313  0.2682 -0.5760 -1.7716
 2402TIP3   OH228620   4.649   5.272   4.181  0.6431  0.0366 -0.8467
 2402TIP3    H128621   4.700   5.222   4.117 -0.2049 -0.5330 -1.1097
 2402TIP3    H228622   4.652   5.219   4.261  0.2372 -0.1556 -0.9514
 2403TIP3   OH228623   4.490   3.482   2.642 -0.5134  0.0716 -0.2434
 2403TIP3    H128624   4.404   3.517   2.665 -0.1020 -0.5616  2.6748
 2403TIP3    H228625   4.534   3.469   2.727  1.0953 -3.0436 -1.4114
 2404TIP3   OH228626   6.214   1.162   1.230  0.1728 -0.5304  0.1248
 2404TIP3    H128627   6.191   1.073   1.202 -1.0240 -0.3211  0.3803
 2404TIP3    H228628   6.218   1.156   1.325 -1.7503  0.0551  0.2933
 2405TIP3   OH228629   6.057   0.636   0.916 -0.4825  0.2550  0.4216
 2405TIP3    H128630   6.107   0.571   0.965  0.8118 -0.9364 -2.2915
 2405TIP3    H228631   6.106   0.717   0.927 -0.3012  0.0547  1.1868
 2406TIP3   OH228632   0.615   5.541   0.648  0.6306 -0.0040 -0.1752
 2406TIP3    H128633   0.659   5.571   0.727  0.8149 -1.6970  0.3984
 2406TIP3    H228634   0.570   5.619   0.615  0.9973  0.8663  1.2827
 2407TIP3   OH228635   2.307   3.873   4.855  0.8385  0.3008 -0.0594
 2407TIP3    H128636   2.235   3.892   4.916  0.6487 -1.1574  0.2049
 2407TIP3    H228637   2.385   3.872   4.910  0.6425 -1.2183  0.2478
 2408TIP3   OH228638   0.797   6.394  13.680 -0.4302 -0.6747  0.1243
 2408TIP3    H128639   0.722   6.346  13.646 -0.7598  0.8626 -1.4881
 2408TIP3    H228640   0.782   6.399  13.774 -0.7558 -3.0032  0.2454
 2409TIP3   OH228641   5.291   0.784  12.096  0.2063  0.3267 -0.0957
 2409TIP3    H128642   5.307   0.691  12.113  0.2342  0.1743 -0.9286
 2409TIP3    H228643   5.347   0.804  12.021  1.2044  1.3412  0.8779
 2410TIP3   OH228644   6.641   5.897   2.666 -0.9027 -0.1759  0.2701
 2410TIP3    H128645   6.626   5.969   2.727 -0.5999  0.4136 -0.3425
 2410TIP3    H228646   6.709   5.930   2.606 -2.1449 -0.2259 -1.2143
 2411TIP3   OH228647   1.968   5.501  11.994 -0.0085 -0.0484  0.1973
 2411TIP3    H128648   1.950   5.561  12.067 -1.2143  1.8073 -1.5140
 2411TIP3    H228649   1.901   5.433  12.003 -0.3625  0.3464  0.6227
 2412TIP3   OH228650   6.294   3.473   1.648 -0.4693 -0.2849 -0.3113
 2412TIP3    H128651   6.305   3.402   1.711 -0.3280  0.9316  1.0750
 2412TIP3    H228652   6.240   3.538   1.693  1.2183  1.4837 -0.6649
 2413TIP3   OH228653   5.881   0.986  12.916  0.1310 -0.0873  0.2940
 2413TIP3    H128654   5.933   0.908  12.938 -0.5429 -0.7524 -0.4366
 2413TIP3    H228655   5.793   0.953  12.902 -0.3193  0.9175  0.6732
 2414TIP3   OH228656   0.918   5.113   3.279 -0.1511 -0.0587  0.4651
 2414TIP3    H128657   0.982   5.098   3.210 -0.9287  1.8957 -0.7897
 2414TIP3    H228658   0.962   5.087   3.360  2.0579  0.7653 -0.3920
 2415TIP3   OH228659   6.453   3.738   3.049 -0.0121  0.2336  0.5992
 2415TIP3    H128660   6.475   3.728   2.956 -0.0543 -0.4279  0.6519
 2415TIP3    H228661   6.463   3.831   3.066  0.8497  0.2423  0.1356
 2416TIP3   OH228662   3.568   3.056   2.488 -0.4046  0.1827  0.2843
 2416TIP3    H128663   3.630   3.105   2.435  0.3921  1.2523  2.1010
 2416TIP3    H228664   3.482   3.080   2.454  0.0879 -0.0865 -1.2318
 2417TIP3   OH228665   1.797   0.466  11.923 -0.1531  0.1132 -0.5850
 2417TIP3    H128666   1.704   0.477  11.900 -0.4582 -1.3862 -0.1658
 2417TIP3    H228667   1.835   0.553  11.909 -2.0689  1.3982  1.4092
 2418TIP3   OH228668   4.221   3.308   4.381 -0.3124  0.1628 -0.3265
 2418TIP3    H128669   4.287   3.373   4.407 -0.7086  0.9833 -1.2885
 2418TIP3    H228670   4.139   3.357   4.376 -0.4317 -0.1330 -2.1172
 2419TIP3   OH228671   6.757   4.711  15.153  0.3668  0.4413 -0.1718
 2419TIP3    H128672   6.678   4.670  15.187  0.0883  1.8834  1.0562
 2419TIP3    H228673   6.814   4.638  15.129  0.3629 -0.7467  2.9230
 2420TIP3   OH228674   2.857   5.529   6.299  0.2417  0.4199  0.3110
 2420TIP3    H128675   2.864   5.451   6.353 -0.4710  1.5382  2.1316
 2420TIP3    H228676   2.946   5.564   6.295  0.5529 -0.4589 -0.4767
 2421TIP3   OH228677   0.902   1.082   0.922  0.1288 -0.0876  0.1326
 2421TIP3    H128678   0.982   1.051   0.965  0.1701 -0.1284  0.0271
 2421TIP3    H228679   0.849   1.119   0.993 -1.9201 -4.2882  1.1614
 2422TIP3   OH228680   5.848   1.428  16.250 -0.5305  0.3720 -0.4896
 2422TIP3    H128681   5.874   1.519  16.235 -2.5597  1.3342  1.2107
 2422TIP3    H228682   5.776   1.413  16.189  1.0997 -0.8610 -2.2236
 2423TIP3   OH228683   6.278   6.679  13.357 -0.0470 -0.3306  0.6576
 2423TIP3    H128684   6.233   6.606  13.316  0.2354 -0.4257  0.5108
 2423TIP3    H228685   6.364   6.645  13.380  0.4069  0.1866 -0.2037
 2424TIP3   OH228686   3.076   2.446   0.161  0.3638  0.7463  0.0454
 2424TIP3    H128687   3.022   2.523   0.178  1.1418  1.3251 -0.0022
 2424TIP3    H228688   3.096   2.451   0.068 -2.1016 -1.2251 -0.6876
 2425TIP3   OH228689   2.760   4.644   4.877  0.2677 -0.1579  0.3125
 2425TIP3    H128690   2.707   4.684   4.947  0.2252 -0.6062  0.5398
 2425TIP3    H228691   2.841   4.695   4.877  0.1153  0.0893  0.4316
 2426TIP3   OH228692   4.009   4.975  10.519 -0.1491  0.2307  0.4059
 2426TIP3    H128693   3.978   4.894  10.479 -1.5187  0.0144  1.7872
 2426TIP3    H228694   3.941   5.039  10.500  1.4024  1.4090 -1.5631
 2427TIP3   OH228695   6.511   1.274  16.061  0.5073  0.5333  0.4541
 2427TIP3    H128696   6.498   1.284  16.155  0.3456  0.3159  0.4554
 2427TIP3    H228697   6.599   1.306  16.045 -0.4229  3.2903  0.2723
 2428TIP3   OH228698   3.521   5.352  13.693  0.0461 -0.1430  0.0167
 2428TIP3    H128699   3.545   5.427  13.639  0.2131  0.7430  1.2720
 2428TIP3    H228700   3.583   5.355  13.767  0.1494 -1.6026  0.0202
 2429TIP3   OH228701   4.407   0.092  14.182 -0.3254  0.0163 -0.3017
 2429TIP3    H128702   4.357   0.092  14.264  0.6760 -2.6362  0.4046
 2429TIP3    H228703   4.486   0.143  14.202 -0.2936 -0.2390  0.2380
 2430TIP3   OH228704   4.991   4.296  12.950  0.3596 -0.2349 -0.1491
 2430TIP3    H128705   4.985   4.261  13.039  2.1400 -1.2723 -0.3732
 2430TIP3    H228706   5.083   4.323  12.942  0.2942 -0.4043 -1.7590
 2431TIP3   OH228707   1.894   1.608   2.473 -0.1190  0.4864 -0.3128
 2431TIP3    H128708   1.846   1.639   2.397  1.8151 -0.8610 -2.1831
 2431TIP3    H228709   1.878   1.514   2.476  1.3276  0.2149 -0.2274
 2432TIP3   OH228710   5.015   2.470  13.185  0.1828  0.2348  0.4905
 2432TIP3    H128711   5.030   2.398  13.247  0.9756 -0.0123  0.0204
 2432TIP3    H228712   4.933   2.446  13.141 -0.3629  0.3861  1.3907
 2433TIP3   OH228713   0.452   2.449   6.401 -0.0863  0.2634 -0.2088
 2433TIP3    H128714   0.470   2.504   6.478 -1.3719  0.7220 -0.2197
 2433TIP3    H228715   0.478   2.504   6.327  2.0337 -0.5222 -0.1095
 2434TIP3   OH228716   2.441   2.443  11.074  0.4428  0.3195 -0.0602
 2434TIP3    H128717   2.419   2.420  11.165  0.2004  0.3972 -0.0997
 2434TIP3    H228718   2.398   2.527  11.059 -1.4455 -0.7611 -0.9837
 2435TIP3   OH228719   2.704   4.602   3.570  0.2048  0.2786  0.1400
 2435TIP3    H128720   2.732   4.511   3.568  1.1116  0.5538 -1.7631
 2435TIP3    H228721   2.618   4.600   3.611  0.4836 -1.3411  0.7130
 2436TIP3   OH228722   1.314   0.932  14.092 -0.2460  0.7143  0.4420
 2436TIP3    H128723   1.313   0.851  14.042  0.9154  1.1348 -0.3056
 2436TIP3    H228724   1.223   0.962  14.091 -0.7760 -0.7529  1.0786
 2437TIP3   OH228725   2.894   4.303   4.968  0.2951 -0.2542 -0.1686
 2437TIP3    H128726   2.923   4.311   4.877 -1.2785  1.2466 -0.5974
 2437TIP3    H228727   2.936   4.223   5.000  1.9536 -0.0928 -1.7782
 2438TIP3   OH228728   1.058   4.086  11.252  0.0076  0.3775  0.3644
 2438TIP3    H128729   1.126   4.130  11.303  0.7375  0.6301 -0.7736
 2438TIP3    H228730   0.989   4.065  11.315  0.1676  2.0840  1.1509
 2439TIP3   OH228731   1.975   3.221   0.973 -0.0643  0.0827 -0.7521
 2439TIP3    H128732   2.004   3.312   0.979  0.2235  0.0095 -1.0370
 2439TIP3    H228733   1.880   3.226   0.975 -0.0470  0.3012  0.6199
 2440TIP3   OH228734   1.251   6.359   2.030 -0.2012 -0.0666  0.1172
 2440TIP3    H128735   1.257   6.365   2.125 -2.6570  3.9156  0.2255
 2440TIP3    H228736   1.337   6.390   1.998 -0.5562  2.1733  1.1475
 2441TIP3   OH228737   0.269   3.882   2.509  0.0275 -0.5024 -0.3849
 2441TIP3    H128738   0.198   3.903   2.571 -1.1533  0.3203 -1.9616
 2441TIP3    H228739   0.349   3.909   2.554 -0.9577  1.9558  0.0111
 2442TIP3   OH228740   2.454   1.514   5.254  0.0638 -0.6403 -0.0845
 2442TIP3    H128741   2.419   1.436   5.211  0.5599 -0.3144 -1.1058
 2442TIP3    H228742   2.544   1.521   5.221  0.4237 -0.3061  0.9208
 2443TIP3   OH228743   3.575   6.465  10.820  0.2349 -0.5319 -0.1759
 2443TIP3    H128744   3.658   6.419  10.835 -0.7669 -2.3477  0.0789
 2443TIP3    H228745   3.509   6.396  10.819 -1.1993  0.7757 -1.1992
 2444TIP3   OH228746   5.705   3.425  15.501  0.1672  0.2612  0.5107
 2444TIP3    H128747   5.681   3.345  15.548  1.5734  0.2230  1.2208
 2444TIP3    H228748   5.777   3.461  15.552 -0.6087  2.1342  0.3399
 2445TIP3   OH228749   1.100   2.795  11.538  0.2490  0.4445 -0.8114
 2445TIP3    H128750   1.054   2.758  11.614  1.0755 -1.1014 -1.0088
 2445TIP3    H228751   1.043   2.865  11.506 -0.9859 -0.0968  0.1350
 2446TIP3   OH228752   2.430   3.203  16.160 -0.0072 -0.0723  0.0110
 2446TIP3    H128753   2.386   3.158  16.088  0.7578 -0.6419 -0.1249
 2446TIP3    H228754   2.422   3.143  16.234 -0.8339  0.5331  0.4205
 2447TIP3   OH228755   0.173   1.733  16.373  0.5411  0.8960  0.2543
 2447TIP3    H128756   0.104   1.682  16.415 -1.4630  2.8963 -0.4384
 2447TIP3    H228757   0.178   1.700  16.284  1.5171 -0.1999  0.6947
 2448TIP3   OH228758   1.726   1.862  12.447 -0.0907  0.0581  0.0786
 2448TIP3    H128759   1.641   1.827  12.420  0.5752 -3.1532  1.6958
 2448TIP3    H228760   1.712   1.889  12.538  0.5391 -0.2365  0.2678
 2449TIP3   OH228761   5.724   0.532  11.572  0.3720  0.1116 -0.4452
 2449TIP3    H128762   5.756   0.544  11.483  1.0579  1.8140 -0.0235
 2449TIP3    H228763   5.730   0.620  11.611 -0.9514 -0.3777  0.9352
 2450TIP3   OH228764   5.820   1.354   5.725  0.1367 -0.2500  0.7986
 2450TIP3    H128765   5.766   1.392   5.656  1.4826  1.9028  0.8433
 2450TIP3    H228766   5.761   1.350   5.801 -0.6466 -0.2962  0.2090
 2451TIP3   OH228767   1.055   4.438  12.769  0.6676 -0.1452  0.0934
 2451TIP3    H128768   1.091   4.514  12.722  1.9746 -0.7102  0.1544
 2451TIP3    H228769   0.975   4.472  12.810  1.0345  1.1157 -0.1744
 2452TIP3   OH228770   6.182   0.908   6.346 -0.0118  0.5115  0.5306
 2452TIP3    H128771   6.097   0.911   6.302 -1.0086  0.8669  2.4059
 2452TIP3    H228772   6.224   0.991   6.321 -0.5625  0.7229  0.2735
 2453TIP3   OH228773   5.787   4.148  15.303 -0.7138  0.3032  0.0430
 2453TIP3    H128774   5.866   4.201  15.304 -0.8971  0.5953  1.4024
 2453TIP3    H228775   5.728   4.193  15.243 -0.2812  0.7590 -0.0417
 2454TIP3   OH228776   0.901   2.398  12.984  0.5750 -0.1644  0.4001
 2454TIP3    H128777   0.931   2.486  13.009 -0.4255  0.6027 -0.9477
 2454TIP3    H228778   0.841   2.373  13.055  0.7769  0.2974  0.7414
 2455TIP3   OH228779   5.132   4.012   4.776  0.2720  0.1804  0.1169
 2455TIP3    H128780   5.213   3.961   4.771  0.3877  0.4302 -0.6485
 2455TIP3    H228781   5.096   4.008   4.688 -0.9483 -0.5606  0.6300
 2456TIP3   OH228782   2.025   3.283  12.569 -0.3567 -0.2396 -0.3935
 2456TIP3    H128783   2.109   3.325  12.553 -0.4622  0.3284  0.5210
 2456TIP3    H228784   2.038   3.232  12.649 -1.1810  0.6911  0.3435
 2457TIP3   OH228785   4.299   2.864  15.666 -0.7992  0.2353  0.9545
 2457TIP3    H128786   4.271   2.847  15.576 -0.3073 -1.3164  1.0545
 2457TIP3    H228787   4.243   2.935  15.696 -0.3942  1.3715 -0.8483
 2458TIP3   OH228788   3.762   4.674  16.754 -0.3167 -0.1520  0.2405
 2458TIP3    H128789   3.667   4.663  16.751 -0.1328 -1.9771 -1.0539
 2458TIP3    H228790   3.785   4.704  16.666  0.3276 -0.0542  0.4400
 2459TIP3   OH228791   4.516   6.436   4.066 -0.1622 -1.0074  0.1313
 2459TIP3    H128792   4.466   6.438   3.985  0.7835 -0.7263 -0.4696
 2459TIP3    H228793   4.451   6.435   4.136 -1.0034  0.9730 -0.5798
 2460TIP3   OH228794   4.038   5.369   0.416  0.5776  0.0228  0.8471
 2460TIP3    H128795   4.098   5.411   0.476 -1.2927  2.4560  1.1903
 2460TIP3    H228796   3.952   5.406   0.437 -0.5389 -0.7763 -1.7526
 2461TIP3   OH228797   1.833   0.013  11.566  0.2523 -0.2988 -0.2218
 2461TIP3    H128798   1.829   0.086  11.504 -0.4066  1.3088  1.6020
 2461TIP3    H228799   1.925   0.009  11.591  0.0853  0.8029  0.6349
 2462TIP3   OH228800   0.970   4.759  13.038  0.4598  0.1549 -0.3047
 2462TIP3    H128801   1.002   4.825  12.976  0.8656 -1.2810 -1.7120
 2462TIP3    H228802   0.958   4.680  12.984 -0.2581 -0.8466  1.2556
 2463TIP3   OH228803   3.693   5.631  12.277 -0.7719  0.6281 -0.4636
 2463TIP3    H128804   3.787   5.618  12.269 -0.3438  1.9250  1.5631
 2463TIP3    H228805   3.658   5.611  12.191  1.4165  0.6371 -1.4132
 2464TIP3   OH228806   1.778   4.002  15.779  0.4109 -0.0333  0.0629
 2464TIP3    H128807   1.792   4.094  15.754  1.5193 -0.5659 -1.3744
 2464TIP3    H228808   1.748   4.007  15.870  0.0725  1.7713 -0.1013
 2465TIP3   OH228809   3.179   0.579  16.733 -0.2838 -0.2992  0.4699
 2465TIP3    H128810   3.139   0.652  16.686 -0.6254 -0.6878  0.1393
 2465TIP3    H228811   3.147   0.501  16.686  0.8199 -0.6246  0.2382
 2466TIP3   OH228812   2.088   4.474  12.449  0.4639 -0.0515 -0.4204
 2466TIP3    H128813   2.111   4.500  12.360  1.2198  2.0815  0.3362
 2466TIP3    H228814   2.008   4.523  12.468  1.6650  1.5279  0.8818
 2467TIP3   OH228815   5.655   3.469  17.136  0.2445  0.4142  0.1942
 2467TIP3    H128816   5.689   3.411  17.068  1.3788 -1.1944  2.0052
 2467TIP3    H228817   5.597   3.413  17.188  0.7174  1.1061  1.5041
 2468TIP3   OH228818   5.412   1.524   3.639  0.2120 -0.3570  0.4687
 2468TIP3    H128819   5.356   1.550   3.566  0.7504 -0.8332 -0.1242
 2468TIP3    H228820   5.474   1.461   3.601  1.3974  0.4353  1.0228
 2469TIP3   OH228821   5.641   2.158  14.839  0.9210 -0.3513  0.2138
 2469TIP3    H128822   5.560   2.119  14.872 -0.6503  0.5523 -2.2533
 2469TIP3    H228823   5.701   2.084  14.829  0.7668 -0.9316  2.8644
 2470TIP3   OH228824   1.503   3.724  13.701 -0.0058 -0.2117 -0.2563
 2470TIP3    H128825   1.461   3.804  13.734  1.3777  0.2694  0.4000
 2470TIP3    H228826   1.441   3.654  13.722  0.1540  0.2656  2.0551
 2471TIP3   OH228827   6.065   1.765   0.125 -0.1720 -0.4327 -0.0827
 2471TIP3    H128828   6.015   1.842   0.151  0.0615 -0.6838  1.1649
 2471TIP3    H228829   6.057   1.762   0.029 -0.6109  0.8327 -0.0976
 2472TIP3   OH228830   1.076   2.040  11.650  0.0777 -0.1020  0.1382
 2472TIP3    H128831   0.986   2.025  11.621 -0.5838  1.7009  1.1116
 2472TIP3    H228832   1.115   2.090  11.578 -0.1581  0.3660  0.3276
 2473TIP3   OH228833   6.405   0.197  14.947 -0.1718  0.3608 -0.1037
 2473TIP3    H128834   6.372   0.207  14.857  0.0803  0.5576 -0.1751
 2473TIP3    H228835   6.355   0.261  14.998  1.1546  1.7534 -0.4861
 2474TIP3   OH228836   0.539   1.410   3.361 -0.1470 -0.3200 -0.1173
 2474TIP3    H128837   0.545   1.314   3.353  1.0345 -0.4136  1.5614
 2474TIP3    H228838   0.608   1.434   3.422 -0.6633  1.5910 -0.2164
 2475TIP3   OH228839   0.162   4.676   1.309 -0.2955 -0.1854 -0.4016
 2475TIP3    H128840   0.115   4.642   1.233 -0.4468  0.6573 -0.6938
 2475TIP3    H228841   0.095   4.684   1.377 -0.8319  1.8655 -1.0811
 2476TIP3   OH228842   4.590   5.126   2.219 -0.3504 -0.2924 -0.5930
 2476TIP3    H128843   4.592   5.030   2.219 -2.5281 -0.4359 -2.6022
 2476TIP3    H228844   4.675   5.152   2.185  0.4771 -1.4559  0.4844
 2477TIP3   OH228845   4.132   6.215  16.629  0.0874 -0.1125  0.5595
 2477TIP3    H128846   4.104   6.175  16.712  2.1842 -0.3982  1.1836
 2477TIP3    H228847   4.219   6.250  16.648 -0.2626  1.7277 -0.9528
 2478TIP3   OH228848   2.413   4.333  13.974  0.2450  0.2619 -0.3270
 2478TIP3    H128849   2.452   4.246  13.966 -0.3024 -0.0535  0.3541
 2478TIP3    H228850   2.462   4.375  14.045 -2.1959 -1.0501  2.3268
 2479TIP3   OH228851   1.837   4.463  13.399 -0.5475 -0.0830 -0.5599
 2479TIP3    H128852   1.745   4.479  13.376 -0.4843  0.7029 -0.3003
 2479TIP3    H228853   1.886   4.525  13.345 -0.3999  1.8363  1.6144
 2480TIP3   OH228854   4.849   5.722  11.285 -0.4729 -0.0285  0.2901
 2480TIP3    H128855   4.883   5.717  11.196 -0.2646  1.4338  0.2635
 2480TIP3    H228856   4.756   5.703  11.277 -0.3056 -0.6840 -0.1217
 2481TIP3   OH228857   2.895   2.467  12.546  0.1482  0.3131 -0.8957
 2481TIP3    H128858   2.840   2.544  12.562 -2.6008 -1.5103 -0.8573
 2481TIP3    H228859   2.900   2.423  12.630 -0.5290 -0.8707 -1.4538
 2482TIP3   OH228860   2.391   6.080   2.379  0.4081  0.2843  0.2048
 2482TIP3    H128861   2.481   6.088   2.409  1.5892 -1.8500 -2.3134
 2482TIP3    H228862   2.376   5.985   2.373 -1.5426  0.5820 -0.6650
 2483TIP3   OH228863   3.899   0.325   0.262 -0.4358  0.2208  0.6284
 2483TIP3    H128864   3.805   0.339   0.250 -0.4173 -0.4948 -0.4732
 2483TIP3    H228865   3.931   0.408   0.300 -1.2226  1.1471 -0.6494
 2484TIP3   OH228866   1.516   4.406   4.946 -0.5013  0.1292 -0.1109
 2484TIP3    H128867   1.575   4.405   5.021 -0.4247  1.0427 -0.1526
 2484TIP3    H228868   1.520   4.495   4.912  0.1349 -0.4635 -1.7253
 2485TIP3   OH228869   4.058   0.158   0.984 -0.4199 -0.1743  0.0079
 2485TIP3    H128870   4.036   0.089   1.046 -2.6069  1.4499  1.1979
 2485TIP3    H228871   4.064   0.113   0.900 -1.6749 -1.8484  0.7458
 2486TIP3   OH228872   4.797   6.677  13.874  0.5993  0.0092  0.2613
 2486TIP3    H128873   4.739   6.638  13.809  0.2615 -0.1453  0.6507
 2486TIP3    H228874   4.738   6.705  13.945  0.9910 -0.0869  0.6287
 2487TIP3   OH228875   4.679   3.102   5.217  0.1516 -0.1300  0.2520
 2487TIP3    H128876   4.679   3.171   5.151  0.9843 -1.2611 -1.0009
 2487TIP3    H228877   4.689   3.021   5.166 -1.3734 -1.2325  1.6134
 2488TIP3   OH228878   5.574   0.744   1.487 -0.7098  0.6253 -0.1097
 2488TIP3    H128879   5.651   0.801   1.493  0.7020 -1.3538  2.2241
 2488TIP3    H228880   5.585   0.699   1.403 -0.5316  1.8944 -0.8033
 2489TIP3   OH228881   5.262   1.025  12.806 -0.2105 -0.2683 -0.0136
 2489TIP3    H128882   5.261   1.062  12.718 -0.7194 -0.9647 -0.3119
 2489TIP3    H228883   5.351   0.990  12.817  0.3461  1.2041  0.3563
 2490TIP3   OH228884   3.948   0.121  14.818 -0.1362 -0.5425 -0.1035
 2490TIP3    H128885   4.008   0.195  14.807 -0.0306 -0.2281  2.2265
 2490TIP3    H228886   3.983   0.054  14.758  0.2674  0.9337 -1.6105
 2491TIP3   OH228887   1.522   0.153   4.117 -0.3155  0.1045 -0.0510
 2491TIP3    H128888   1.499   0.246   4.117 -0.8917 -0.0334  0.6614
 2491TIP3    H228889   1.477   0.116   4.041  0.3163  0.4945 -0.6284
 2492TIP3   OH228890   1.415   1.172  11.977  0.0602  0.2696 -0.3886
 2492TIP3    H128891   1.369   1.236  11.922 -2.9539  0.5574  2.1981
 2492TIP3    H228892   1.442   1.222  12.054  0.3103 -0.9613  0.3371
 2493TIP3   OH228893   4.410   3.115  13.326 -0.0372  0.6995 -0.2584
 2493TIP3    H128894   4.426   3.076  13.412 -1.7708  1.4496  0.4605
 2493TIP3    H228895   4.476   3.077  13.269 -1.4558 -3.1923  0.3865
 2494TIP3   OH228896   2.883   0.993   3.071 -0.1765  0.0455 -0.2311
 2494TIP3    H128897   2.803   0.967   3.117  1.2980 -1.3787  1.7176
 2494TIP3    H228898   2.926   1.054   3.130  1.1143 -0.7586 -0.3007
 2495TIP3   OH228899   4.103   3.016   1.463  0.0758 -0.3426 -0.2604
 2495TIP3    H128900   4.130   3.063   1.384  0.8450 -3.6732 -2.1736
 2495TIP3    H228901   4.175   2.956   1.480 -0.6695 -0.6300  2.2723
 2496TIP3   OH228902   0.210   2.396   3.530 -0.6469 -0.8363 -0.4305
 2496TIP3    H128903   0.239   2.476   3.487  1.5181 -0.7032  1.0841
 2496TIP3    H228904   0.145   2.425   3.594 -1.0030 -0.5159 -0.9314
 2497TIP3   OH228905   6.352   0.302   3.703 -0.7794 -0.5963  0.8429
 2497TIP3    H128906   6.367   0.372   3.766  0.2305 -1.0585  1.1431
 2497TIP3    H228907   6.337   0.224   3.757 -3.0854 -0.4302  0.5407
 2498TIP3   OH228908   1.098   6.461   0.738 -0.5399  0.6049  0.1503
 2498TIP3    H128909   1.081   6.555   0.738 -1.1908  0.4927  0.5727
 2498TIP3    H228910   1.018   6.422   0.775 -0.2423 -0.1041  0.0588
 2499TIP3   OH228911   6.465   4.570   2.752  0.3152  0.0114  0.3174
 2499TIP3    H128912   6.454   4.519   2.832 -0.1506  0.7404  0.7340
 2499TIP3    H228913   6.463   4.661   2.782  1.5740  0.2859 -0.3498
 2500TIP3   OH228914   1.614   3.750  16.205  0.3642 -0.1462  0.2874
 2500TIP3    H128915   1.702   3.719  16.181  1.6368  1.1045  2.9712
 2500TIP3    H228916   1.624   3.844  16.218 -1.7624  0.2835 -0.6851
 2501TIP3   OH228917   3.380   4.038  14.233 -0.1345  0.0223  0.1178
 2501TIP3    H128918   3.367   4.017  14.140 -2.2313  1.6447 -0.0195
 2501TIP3    H228919   3.341   3.966  14.280  1.8094 -1.3074 -0.1896
 2502TIP3   OH228920   0.885   1.253  14.353  0.4759  0.0966 -0.3885
 2502TIP3    H128921   0.959   1.272  14.409  0.6665 -0.8556 -0.2998
 2502TIP3    H228922   0.832   1.191  14.402  0.6315 -0.7331 -1.2370
 2503TIP3   OH228923   6.728   5.813  14.315 -0.1714 -0.0373  0.3638
 2503TIP3    H128924   6.646   5.859  14.300  0.2221  0.3050 -0.8626
 2503TIP3    H228925   6.706   5.743  14.376 -1.0202  1.0544  1.3249
 2504TIP3   OH228926   5.978   4.217  13.564 -0.2830  0.4783  0.1713
 2504TIP3    H128927   6.056   4.253  13.605  0.5730 -2.1776  1.0700
 2504TIP3    H228928   6.002   4.203  13.473 -0.2012  1.0013  0.1131
 2505TIP3   OH228929   5.199   1.741  12.974  0.3077 -0.5188 -0.0800
 2505TIP3    H128930   5.147   1.787  12.908  1.3913  0.3438 -0.3692
 2505TIP3    H228931   5.289   1.773  12.960  0.7680 -1.2964  0.9753
 2506TIP3   OH228932   2.761   3.010   0.546 -0.7930 -0.1545  0.1921
 2506TIP3    H128933   2.680   3.054   0.519 -1.7409 -1.2326  1.2103
 2506TIP3    H228934   2.831   3.067   0.513 -1.9475  0.7257 -0.8335
 2507TIP3   OH228935   3.247   5.195   2.949 -0.4704 -0.0545  0.5656
 2507TIP3    H128936   3.286   5.127   3.005  0.0237  0.0009  0.2903
 2507TIP3    H228937   3.252   5.275   3.001  1.9583  0.4690 -0.3249
 2508TIP3   OH228938   6.429   3.040  14.517 -0.2322 -0.2639  0.2998
 2508TIP3    H128939   6.446   3.123  14.562 -1.5220  0.5246 -0.5831
 2508TIP3    H228940   6.404   2.980  14.587  2.9761 -0.6660  1.2606
 2509TIP3   OH228941   3.639   1.311  10.654  0.0070 -0.2815  0.1950
 2509TIP3    H128942   3.591   1.391  10.633  0.3498 -0.0620  0.2494
 2509TIP3    H228943   3.681   1.329  10.738  2.5358  0.6169 -1.1637
 2510TIP3   OH228944   4.643   0.359  11.850  0.0245  0.0213 -0.3803
 2510TIP3    H128945   4.661   0.342  11.758  2.1344  0.2819 -0.0799
 2510TIP3    H228946   4.694   0.292  11.897 -0.3165  0.4272  0.6094
 2511TIP3   OH228947   4.922   2.072   5.222  0.4152  0.0660 -0.4901
 2511TIP3    H128948   4.877   2.020   5.289  0.2777 -1.0913 -1.4461
 2511TIP3    H228949   5.010   2.034   5.219  1.2617  1.8104  0.8276
 2512TIP3   OH228950   6.436   0.071   2.439  0.2632 -0.4681 -0.0472
 2512TIP3    H128951   6.342   0.051   2.436 -0.1930  1.4089  0.4201
 2512TIP3    H228952   6.479  -0.012   2.416 -1.4670 -1.6239  0.6797
 2513TIP3   OH228953   2.192   0.548   1.986 -0.5240  0.2103 -0.1333
 2513TIP3    H128954   2.148   0.625   1.951  0.2519  1.4877  1.5305
 2513TIP3    H228955   2.203   0.568   2.079  1.1663 -1.1995  0.0085
 2514TIP3   OH228956   5.266   1.794  14.870 -0.4871  0.0488 -0.0612
 2514TIP3    H128957   5.272   1.740  14.791  1.6058  0.2881 -0.1033
 2514TIP3    H228958   5.178   1.776  14.904 -0.6693 -1.6369 -1.2954
 2515TIP3   OH228959   1.265   4.940   2.901 -0.0854 -0.3972  0.2237
 2515TIP3    H128960   1.317   4.871   2.860 -0.2848 -0.9684  0.8958
 2515TIP3    H228961   1.319   4.970   2.974  0.1165  0.3571 -0.2297
 2516TIP3   OH228962   1.164   6.179  13.882  0.2711  0.2738 -0.4970
 2516TIP3    H128963   1.182   6.131  13.800  0.8760 -0.4908  0.0595
 2516TIP3    H228964   1.184   6.270  13.861 -0.7116  0.2855 -1.5311
 2517TIP3   OH228965   4.058   5.862   5.475  0.1947 -0.3049  0.2911
 2517TIP3    H128966   3.962   5.861   5.483  0.2599  0.4539  1.4203
 2517TIP3    H228967   4.082   5.771   5.462 -0.7750 -0.3607 -1.4952
 2518TIP3   OH228968   5.601   4.833  14.551 -0.2593 -0.2100  0.1486
 2518TIP3    H128969   5.648   4.781  14.616 -1.3149 -0.3068  0.8646
 2518TIP3    H228970   5.599   4.778  14.473 -0.7131 -0.9582  0.6692
 2519TIP3   OH228971   6.227   3.993  11.692  0.2445 -0.1573 -0.2957
 2519TIP3    H128972   6.216   4.023  11.602 -0.4979 -0.1364 -0.2027
 2519TIP3    H228973   6.302   4.043  11.725  0.0079  0.4260 -0.6370
 2520TIP3   OH228974   1.873   6.738  10.414  0.2117 -0.3688  0.4318
 2520TIP3    H128975   1.879   6.646  10.440 -1.7723 -1.0534 -1.1718
 2520TIP3    H228976   1.798   6.771  10.463  0.9979  0.4593  1.0997
 2521TIP3   OH228977   2.211   0.427   2.897 -0.0042  0.4713 -0.0971
 2521TIP3    H128978   2.177   0.431   2.986 -1.0828 -1.1186 -0.3934
 2521TIP3    H228979   2.134   0.415   2.842  0.7544  0.0135 -1.1021
 2522TIP3   OH228980   3.967   0.318  16.154 -0.6198 -0.7221  0.0021
 2522TIP3    H128981   4.046   0.339  16.203 -1.2760  1.1074  0.3532
 2522TIP3    H228982   3.896   0.326  16.218 -1.3444  0.3345 -0.9000
 2523TIP3   OH228983   6.374   1.239   5.023  0.3548 -0.8752  0.1005
 2523TIP3    H128984   6.359   1.185   4.945 -1.2035 -1.0452  0.4912
 2523TIP3    H228985   6.310   1.207   5.087  0.2304  0.6174  0.7553
 2524TIP3   OH228986   2.785   5.381   0.792  0.3600 -0.2798 -0.2502
 2524TIP3    H128987   2.729   5.374   0.869 -1.2257  2.7342 -0.9664
 2524TIP3    H228988   2.787   5.292   0.755  0.0047 -1.4736  2.3970
 2525TIP3   OH228989   5.915   1.025   3.774 -0.4958  0.5904  0.4970
 2525TIP3    H128990   5.961   0.942   3.763 -2.1580 -0.4779  1.2279
 2525TIP3    H228991   5.981   1.092   3.753  1.1438 -0.8654  0.7487
 2526TIP3   OH228992   5.678   3.885  16.448 -0.4822 -0.4404 -0.1484
 2526TIP3    H128993   5.742   3.871  16.378 -1.4286 -2.8827 -0.6486
 2526TIP3    H228994   5.595   3.895  16.402 -1.1937 -2.5609  0.5428
 2527TIP3   OH228995   6.313   5.429  13.403 -0.7425 -0.4855  0.3316
 2527TIP3    H128996   6.272   5.459  13.322 -0.9299  0.1037  0.6341
 2527TIP3    H228997   6.365   5.354  13.377 -1.2828 -0.6798 -0.2293
 2528TIP3   OH228998   3.724   5.965   1.158  0.0279 -0.0752 -0.3736
 2528TIP3    H128999   3.678   6.019   1.092 -1.4619 -1.7258 -0.7692
 2528TIP3    H229000   3.792   5.920   1.108  0.4277  0.4308 -0.2968
 2529TIP3   OH229001   3.114   6.678   4.370  0.5925  0.4945  0.1040
 2529TIP3    H129002   3.194   6.731   4.372  1.1690 -0.3659  0.2159
 2529TIP3    H229003   3.096   6.665   4.277  1.6549 -0.8660  0.0516
 2530TIP3   OH229004   3.929   2.174   0.512 -0.2821 -0.0481  0.2749
 2530TIP3    H129005   3.897   2.146   0.598 -0.0991  0.9929  0.7004
 2530TIP3    H229006   3.913   2.099   0.455 -1.3909 -0.3789  0.9784
 2531TIP3   OH229007   5.288   6.129  15.712 -0.3006 -0.4390 -0.1072
 2531TIP3    H129008   5.285   6.079  15.630  0.7289  0.5374 -0.7790
 2531TIP3    H229009   5.376   6.114  15.746 -0.1230  0.5447 -0.0962
 2532TIP3   OH229010   4.001   5.436  10.461 -0.1049 -0.4156 -0.0650
 2532TIP3    H129011   3.909   5.460  10.472 -0.6261 -2.4380  0.5904
 2532TIP3    H229012   4.033   5.420  10.550  0.5157 -0.8889 -0.3593
 2533TIP3   OH229013   5.830   5.439   4.843  0.4614 -0.0457  0.2029
 2533TIP3    H129014   5.890   5.365   4.857 -0.7231 -1.0415  0.2468
 2533TIP3    H229015   5.743   5.402   4.859 -0.2547  1.0800 -0.9308
 2534TIP3   OH229016   1.382   1.596  13.014 -0.9286 -0.0973 -0.3862
 2534TIP3    H129017   1.476   1.578  13.019 -0.8242  0.6307  0.4412
 2534TIP3    H229018   1.364   1.600  12.920  0.6425  3.4295 -0.6971
 2535TIP3   OH229019   5.616   0.973   1.117  0.2620  0.1887 -0.3758
 2535TIP3    H129020   5.609   0.899   1.058  0.2441  1.0702 -1.5103
 2535TIP3    H229021   5.583   1.047   1.067  2.8395  1.5135 -0.2900
 2536TIP3   OH229022   3.534   3.477   3.619 -0.6476  0.5650  0.4728
 2536TIP3    H129023   3.544   3.564   3.580  2.3887 -0.5099 -1.5183
 2536TIP3    H229024   3.600   3.475   3.688  0.8679 -0.8289 -0.9597
 2537TIP3   OH229025   3.919   1.361  14.749  0.6969 -0.5748 -0.8235
 2537TIP3    H129026   3.831   1.366  14.712  0.0196 -0.4447  0.7100
 2537TIP3    H229027   3.974   1.414  14.690 -0.0611 -1.3325 -2.2546
 2538TIP3   OH229028   0.239   6.001  12.085 -0.5104  0.2971 -0.3207
 2538TIP3    H129029   0.315   6.053  12.060 -0.6694  1.3865  1.3121
 2538TIP3    H229030   0.177   6.012  12.013  0.9887 -0.9466 -1.8801
 2539TIP3   OH229031   1.063   6.739   1.787  0.6629 -0.2256  0.1224
 2539TIP3    H129032   0.995   6.716   1.724  0.2875  0.7897  0.1333
 2539TIP3    H229033   1.072   6.834   1.778  1.1392 -0.1747  1.0680
 2540TIP3   OH229034   2.305   4.184  16.386 -0.2942 -0.2190 -0.0242
 2540TIP3    H129035   2.349   4.259  16.347  1.3961 -0.4749  1.2975
 2540TIP3    H229036   2.236   4.222  16.441  0.2309  0.3516  0.2526
 2541TIP3   OH229037   4.444   3.931   5.641  0.3363  0.2531  0.1223
 2541TIP3    H129038   4.488   4.012   5.616  2.1017 -0.2193  1.4622
 2541TIP3    H229039   4.402   3.952   5.725  0.7642 -0.2034  0.4526
 2542TIP3   OH229040   1.500   1.114  13.660 -0.0165 -0.1037  0.3546
 2542TIP3    H129041   1.487   1.060  13.582 -0.0125  2.0301 -1.2299
 2542TIP3    H229042   1.543   1.057  13.723  1.1815 -1.5697 -1.6908
 2543TIP3   OH229043   0.941   2.732  13.350  0.0513 -0.1174 -0.0128
 2543TIP3    H129044   0.861   2.716  13.399 -0.7806 -1.1128 -1.5823
 2543TIP3    H229045   1.011   2.720  13.413 -0.8567 -3.2567  0.5769
 2544TIP3   OH229046   1.330   3.545  15.492  0.1654  0.1395  0.0262
 2544TIP3    H129047   1.382   3.614  15.532  0.4441 -1.3368  2.4259
 2544TIP3    H229048   1.276   3.512  15.564 -1.4390 -0.7856 -1.5406
 2545TIP3   OH229049   0.709   4.557   0.474  0.1336  0.1098 -0.1698
 2545TIP3    H129050   0.775   4.622   0.449 -0.2544  1.5698  2.2089
 2545TIP3    H229051   0.629   4.585   0.430  0.1345  0.8643  0.2933
 2546TIP3   OH229052   4.145   6.470  14.917  0.1759 -0.1926 -0.0285
 2546TIP3    H129053   4.236   6.452  14.893  0.1888 -1.2883  0.7651
 2546TIP3    H229054   4.149   6.550  14.969  0.5400  0.3666 -0.8909
 2547TIP3   OH229055   6.178   1.307   2.022  0.3277  0.7224  1.1036
 2547TIP3    H129056   6.105   1.364   1.998  1.7399  2.3001  0.3220
 2547TIP3    H229057   6.144   1.218   2.010 -1.0180  1.4067 -0.6544
 2548TIP3   OH229058   3.205   5.657   0.186 -0.0660 -0.0735  0.4900
 2548TIP3    H129059   3.145   5.693   0.121  0.1557  0.1535  0.4094
 2548TIP3    H229060   3.257   5.732   0.215  1.8459 -0.6646 -1.2173
 2549TIP3   OH229061   0.538   1.671   2.364  0.2543  0.4983 -0.3770
 2549TIP3    H129062   0.479   1.621   2.308  0.5492  0.8857 -1.0405
 2549TIP3    H229063   0.511   1.762   2.354  1.3367  0.7579 -1.1746
 2550TIP3   OH229064   3.216   1.399  11.786 -0.1169 -0.0567  0.2850
 2550TIP3    H129065   3.238   1.396  11.879  0.2304 -0.9452  0.1769
 2550TIP3    H229066   3.293   1.439  11.745 -0.0288 -0.2135  0.3003
 2551TIP3   OH229067   4.001   3.604   3.757  0.2070  0.1557 -0.3664
 2551TIP3    H129068   4.058   3.568   3.824 -0.1873 -0.8396 -0.5506
 2551TIP3    H229069   4.021   3.698   3.756  0.6943  0.0718  0.6606
 2552TIP3   OH229070   1.938   0.351   3.940  0.6230  0.6738  0.2231
 2552TIP3    H129071   1.912   0.340   3.848  1.2253  0.2999  0.0892
 2552TIP3    H229072   2.028   0.384   3.935  0.4684  1.1780  0.6780
 2553TIP3   OH229073   1.892   2.697   4.391 -0.1923  0.3509  0.4587
 2553TIP3    H129074   1.864   2.606   4.379  0.7216  0.1370 -0.1982
 2553TIP3    H229075   1.876   2.715   4.484  0.0382 -0.6342  0.7010
 2554TIP3   OH229076   2.657   3.002  12.505 -0.0448  0.1880  0.1523
 2554TIP3    H129077   2.675   2.921  12.458 -2.3485 -0.6322  0.5518
 2554TIP3    H229078   2.726   3.062  12.476  0.5869 -1.3000 -1.6584
 2555TIP3   OH229079   5.595   2.332   1.370 -0.4633 -0.0120 -0.6313
 2555TIP3    H129080   5.556   2.247   1.393  1.7837 -1.0149 -0.2589
 2555TIP3    H229081   5.520   2.388   1.351 -2.0628 -2.5482 -2.6649
 2556TIP3   OH229082   3.522   0.551  10.760 -0.3048 -0.1572 -0.0881
 2556TIP3    H129083   3.587   0.620  10.775  0.0474  0.0509 -2.2131
 2556TIP3    H229084   3.572   0.469  10.762 -0.5681 -0.2957  1.5366
 2557TIP3   OH229085   3.935   3.427  15.127 -0.0418 -0.7980 -0.4982
 2557TIP3    H129086   3.920   3.521  15.125  0.7917 -0.6309  0.4244
 2557TIP3    H229087   3.977   3.408  15.043 -2.1659 -0.7379 -1.6475
 2558TIP3   OH229088   4.592   1.132  10.925  0.0259 -0.5523 -0.1367
 2558TIP3    H129089   4.658   1.102  10.988  0.1753 -0.2350 -0.1381
 2558TIP3    H229090   4.617   1.223  10.906 -0.5903 -0.3289  0.1029
 2559TIP3   OH229091   1.158   0.800   3.474 -0.4137  0.3682  0.1152
 2559TIP3    H129092   1.234   0.850   3.443  0.6401 -0.8551  0.6253
 2559TIP3    H229093   1.165   0.804   3.570  0.0554 -1.2422  0.1765
 2560TIP3   OH229094   0.895   6.083  11.966 -0.6116 -0.9672 -0.9631
 2560TIP3    H129095   0.837   6.028  12.020 -1.5315 -0.0435 -0.9727
 2560TIP3    H229096   0.983   6.057  11.992 -1.0236 -1.9522 -0.4687
 2561TIP3   OH229097   0.105   4.005  11.218 -0.4499 -0.4461 -0.4784
 2561TIP3    H129098   0.193   4.023  11.184 -0.0061  0.8242  1.1691
 2561TIP3    H229099   0.075   3.928  11.170  0.1021  1.1549 -3.6545
 2562TIP3   OH229100   5.874   0.988   5.131  0.2970 -0.0699  0.1298
 2562TIP3    H129101   5.793   0.990   5.182 -0.2655 -1.2587 -0.6626
 2562TIP3    H229102   5.937   0.947   5.189 -0.2409 -1.0793  0.0265
 2563TIP3   OH229103   3.938   4.694  12.463 -0.1133 -0.3294  0.1316
 2563TIP3    H129104   3.849   4.671  12.435 -0.1477  1.0071 -0.9641
 2563TIP3    H229105   3.994   4.630  12.418 -0.5558 -1.9358  1.7664
 2564TIP3   OH229106   4.740   5.021   1.418  0.4868  0.4529  0.2299
 2564TIP3    H129107   4.815   5.047   1.365  1.3239 -2.4434 -0.2124
 2564TIP3    H229108   4.770   5.027   1.508  0.9520  0.2337  0.0951
 2565TIP3   OH229109   0.214   4.413  12.428  0.6210 -0.1522 -0.1598
 2565TIP3    H129110   0.286   4.457  12.383  0.2921  1.1198  0.5350
 2565TIP3    H229111   0.226   4.435  12.520 -0.9152  0.4738 -0.0793
 2566TIP3   OH229112   0.222   6.338  15.943  0.4067  0.2128  0.4364
 2566TIP3    H129113   0.314   6.322  15.920  0.6060 -0.0638  1.3939
 2566TIP3    H229114   0.223   6.420  15.991  0.1347  0.2708  0.3441
 2567TIP3   OH229115   6.214   3.704  14.905 -0.4212 -0.0124  0.4963
 2567TIP3    H129116   6.191   3.761  14.832 -2.2973 -0.9092  0.3148
 2567TIP3    H229117   6.309   3.699  14.904 -0.3861  0.6181 -1.4098
 2568TIP3   OH229118   6.191   0.692  11.842 -0.1442 -0.2800 -0.2359
 2568TIP3    H129119   6.248   0.617  11.857 -0.5840 -0.6021 -0.1749
 2568TIP3    H229120   6.103   0.659  11.855 -0.4380 -0.1014 -1.6026
 2569TIP3   OH229121   5.213   0.656   6.177 -0.3477  0.0580 -0.8934
 2569TIP3    H129122   5.175   0.572   6.204 -0.5299  0.0918 -1.0472
 2569TIP3    H229123   5.270   0.680   6.250 -2.1831  1.0179  0.3216
 2570TIP3   OH229124   3.645   1.169   3.637  0.3587  0.1245  0.3632
 2570TIP3    H129125   3.671   1.237   3.575  0.2863  1.0417  1.3096
 2570TIP3    H229126   3.555   1.148   3.614 -0.0543  1.2882  0.8595
 2571TIP3   OH229127   1.480   2.851   5.888 -0.0062  0.3430 -0.0536
 2571TIP3    H129128   1.533   2.908   5.832 -0.1268 -0.7961 -1.3754
 2571TIP3    H229129   1.398   2.900   5.901 -0.3312  0.2867 -1.6242
 2572TIP3   OH229130   3.123   4.587  15.143  0.5516  0.2867  0.7788
 2572TIP3    H129131   3.031   4.607  15.159  0.4445  0.8222 -0.3845
 2572TIP3    H229132   3.167   4.672  15.149  0.8448  0.1529  0.5510
 2573TIP3   OH229133   4.406   3.947   0.920 -0.2378  0.3809 -0.0849
 2573TIP3    H129134   4.381   3.935   0.828 -1.6054  1.1872  0.1668
 2573TIP3    H229135   4.324   3.943   0.968  0.1721  2.4273  0.8549
 2574TIP3   OH229136   3.505   5.285   2.497 -0.0479  0.0205  0.1621
 2574TIP3    H129137   3.600   5.275   2.500  0.0811  0.6953 -1.0456
 2574TIP3    H229138   3.472   5.196   2.481  0.4298 -0.0974 -0.1814
 2575TIP3   OH229139   4.393   5.691   0.413  0.2971  0.2791 -0.7140
 2575TIP3    H129140   4.389   5.783   0.440 -2.0488  0.5744 -1.7784
 2575TIP3    H229141   4.439   5.693   0.329 -0.6877  0.6652 -1.2623
 2576TIP3   OH229142   1.174   3.271  16.152  0.3507  0.0531  0.2214
 2576TIP3    H129143   1.157   3.361  16.181 -0.4630  0.7323 -2.1194
 2576TIP3    H229144   1.088   3.236  16.131  0.8799  1.1300 -5.1623
 2577TIP3   OH229145   0.208   1.067  15.200 -0.4253  0.0414  0.3517
 2577TIP3    H129146   0.201   1.001  15.269  1.9779 -0.5861  0.0900
 2577TIP3    H229147   0.213   1.151  15.247  0.1108 -0.2906  0.9055
 2578TIP3   OH229148   5.451   4.841   4.931 -0.3080  0.0289  0.2342
 2578TIP3    H129149   5.429   4.748   4.921 -0.5229  0.1555 -0.5019
 2578TIP3    H229150   5.430   4.861   5.023 -2.4095 -0.0988 -0.1702
 2579TIP3   OH229151   0.637   2.848   4.259 -0.0472 -0.3042 -0.2844
 2579TIP3    H129152   0.683   2.848   4.343  0.4589 -0.2711 -0.5538
 2579TIP3    H229153   0.647   2.937   4.226  0.6338 -0.5728 -0.8378
 2580TIP3   OH229154   3.503   3.894   2.731  0.8699  0.8931  0.6608
 2580TIP3    H129155   3.413   3.920   2.746  0.8088  0.6651  0.7034
 2580TIP3    H229156   3.497   3.802   2.705  1.0392  1.0541  0.0334
 2581TIP3   OH229157   2.642   2.595  11.299  0.4578 -0.9706  0.5284
 2581TIP3    H129158   2.708   2.574  11.364  1.0596 -0.4286  0.1038
 2581TIP3    H229159   2.560   2.563  11.336  0.5917  0.3920  2.0899
 2582TIP3   OH229160   5.153   6.478  16.141  0.3678 -0.6813  0.4238
 2582TIP3    H129161   5.113   6.392  16.127 -0.7731 -0.2698  1.0127
 2582TIP3    H229162   5.135   6.498  16.233  0.6326  0.1792  0.2967
 2583TIP3   OH229163   3.405   5.075  12.676 -0.0585 -0.3919 -0.1636
 2583TIP3    H129164   3.333   5.055  12.617  0.7206 -0.0525 -1.2795
 2583TIP3    H229165   3.459   5.138  12.627  0.9453 -0.5758  0.6669
 2584TIP3   OH229166   3.137   5.703   5.766 -0.2550 -0.2273  0.7214
 2584TIP3    H129167   3.113   5.712   5.858  0.2633  0.0695  0.8319
 2584TIP3    H229168   3.054   5.688   5.721 -0.6573  0.9021  1.0723
 2585TIP3   OH229169   5.247   2.869   1.141  0.3360  0.2014  0.5096
 2585TIP3    H129170   5.226   2.776   1.140  2.3562 -0.4356 -3.4659
 2585TIP3    H229171   5.163   2.914   1.130 -0.5222 -1.1845  1.2310
 2586TIP3   OH229172   4.062   2.104   6.800 -0.1992 -0.2807 -0.3287
 2586TIP3    H129173   4.075   2.156   6.879  1.3458  0.0071 -0.7303
 2586TIP3    H229174   4.149   2.099   6.760 -1.4138  2.3703 -3.7674
 2587TIP3   OH229175   0.967   5.222   2.581  0.3033 -0.4104 -0.1031
 2587TIP3    H129176   0.978   5.255   2.492  1.8443  0.4392  0.3548
 2587TIP3    H229177   1.014   5.285   2.636 -0.0625 -1.2629  1.2410
 2588TIP3   OH229178   1.248   2.429   2.383  0.1669  0.6056  0.2970
 2588TIP3    H129179   1.223   2.429   2.476  1.7305  1.4852  0.7510
 2588TIP3    H229180   1.198   2.357   2.345  0.0620 -0.2760  1.9968
 2589TIP3   OH229181   4.235   0.467   2.877  0.2414  0.0238 -0.5145
 2589TIP3    H129182   4.190   0.449   2.794  1.1620  0.8900 -1.2321
 2589TIP3    H229183   4.243   0.382   2.919 -0.7744 -0.3413 -1.0347
 2590TIP3   OH229184   3.475   2.542   4.884 -0.0395  0.4519  0.3765
 2590TIP3    H129185   3.564   2.569   4.863  0.1071 -0.0453  0.3288
 2590TIP3    H229186   3.472   2.541   4.979 -0.1563  0.9827  0.3784
 2591TIP3   OH229187   0.543   1.609   3.937 -0.1756  0.2152 -0.4579
 2591TIP3    H129188   0.608   1.641   3.999  0.9173 -0.8272 -1.0435
 2591TIP3    H229189   0.492   1.687   3.914  0.9561  1.0881 -0.1001
 2592TIP3   OH229190   6.608   2.092   5.726 -0.3001 -0.3422 -0.0812
 2592TIP3    H129191   6.560   2.076   5.807 -1.8228  0.0806 -0.8682
 2592TIP3    H229192   6.642   2.181   5.735 -0.7381 -0.1797 -0.0327
 2593TIP3   OH229193   6.566   2.716   5.397  0.1359 -0.7197  0.2673
 2593TIP3    H129194   6.471   2.707   5.386 -0.1038  0.1319  1.4031
 2593TIP3    H229195   6.581   2.708   5.491  0.5822  3.3947  0.7682
 2594TIP3   OH229196   0.757   5.305  12.909  0.1322  0.3453  0.0830
 2594TIP3    H129197   0.792   5.361  12.978  0.4117  0.4072 -0.1026
 2594TIP3    H229198   0.711   5.365  12.850  0.6728  0.4269 -0.2666
 2595TIP3   OH229199   3.133   2.101  14.823 -0.4437 -0.2615 -0.1063
 2595TIP3    H129200   3.067   2.159  14.785  0.7029  1.3792  0.2992
 2595TIP3    H229201   3.215   2.127  14.782  0.4678  0.0033  1.7824
 2596TIP3   OH229202   5.615   5.892   0.516  0.1960 -0.1136  0.7931
 2596TIP3    H129203   5.678   5.907   0.586  1.3689  0.2247 -0.2993
 2596TIP3    H229204   5.661   5.918   0.436 -1.5902  0.9479  0.0262
 2597TIP3   OH229205   2.383   6.503  11.877  0.2473  0.0851  0.2291
 2597TIP3    H129206   2.303   6.510  11.825  0.6085  0.3962 -0.2963
 2597TIP3    H229207   2.443   6.566  11.838  1.8855 -2.3514 -1.4857
 2598TIP3   OH229208   5.433   2.902   6.326  0.0988  0.1400  0.0617
 2598TIP3    H129209   5.414   2.822   6.375  0.3066  1.1502  1.9232
 2598TIP3    H229210   5.364   2.908   6.260 -1.2175 -0.4640  1.3307
 2599TIP3   OH229211   2.922   0.754   6.847 -0.0794  0.6020  0.0190
 2599TIP3    H129212   2.939   0.661   6.831  0.1197  0.8395 -1.2587
 2599TIP3    H229213   2.836   0.769   6.809  0.1055  1.0532 -0.2236
 2600TIP3   OH229214   2.166   1.059  14.607 -0.5053  0.1033 -0.0779
 2600TIP3    H129215   2.126   1.056  14.694  1.2996  0.8565  0.8403
 2600TIP3    H229216   2.187   1.152  14.593  0.4510 -0.1833 -0.6969
 2601TIP3   OH229217   6.686   2.151  17.036  0.0900 -0.0088  0.2438
 2601TIP3    H129218   6.742   2.127  17.110 -0.6743 -1.2064  0.4715
 2601TIP3    H229219   6.740   2.134  16.958  0.8950  1.2538  0.4960
 2602TIP3   OH229220   1.881   5.496   6.562 -0.4503 -0.2819 -0.1397
 2602TIP3    H129221   1.911   5.580   6.527  0.5605 -0.8074 -0.5806
 2602TIP3    H229222   1.927   5.488   6.646 -1.9384  0.4216  0.7668
 2603TIP3   OH229223   6.595   5.576  16.938  0.1086  0.2544  0.2663
 2603TIP3    H129224   6.530   5.623  16.886  1.4453  2.6815  0.6358
 2603TIP3    H229225   6.611   5.494  16.890  0.3839  1.8258 -2.5207
 2604TIP3   OH229226   6.632   4.832   4.371 -0.3139  0.3415  0.1229
 2604TIP3    H129227   6.578   4.800   4.443  0.4143 -0.7466  0.2075
 2604TIP3    H229228   6.692   4.760   4.352  1.0096  1.4478 -0.0720
 2605TIP3   OH229229   3.171   0.623  11.852 -0.3960 -0.0404 -0.0039
 2605TIP3    H129230   3.147   0.604  11.762 -1.8241  0.4927  0.2459
 2605TIP3    H229231   3.183   0.718  11.854  1.9727 -0.2783 -0.1446
 2606TIP3   OH229232   5.565   6.546  10.496 -0.5207  0.2243  0.2103
 2606TIP3    H129233   5.529   6.545  10.585  0.7137  0.9469  0.7488
 2606TIP3    H229234   5.509   6.608  10.448 -1.1862 -0.1647  0.4671
 2607TIP3   OH229235   2.877   2.466   3.264  0.0908 -0.5026 -0.1203
 2607TIP3    H129236   2.818   2.420   3.204 -0.3053 -0.3163  0.1155
 2607TIP3    H229237   2.965   2.441   3.236 -0.1176 -1.7119  0.2336
 2608TIP3   OH229238   3.413   3.881  11.103 -1.3399  0.6884  0.0310
 2608TIP3    H129239   3.430   3.975  11.113 -0.1695  0.4527  0.4062
 2608TIP3    H229240   3.489   3.848  11.054 -1.6533 -0.0882  0.0576
 2609TIP3   OH229241   1.110   5.142  13.347 -0.5171  0.3689  0.0069
 2609TIP3    H129242   1.083   5.218  13.295  1.4938 -0.7081 -2.9568
 2609TIP3    H229243   1.177   5.176  13.406 -0.1722  1.0594 -0.7597
 2610TIP3   OH229244   1.378   2.507  11.896  0.4404  0.0963 -0.4631
 2610TIP3    H129245   1.398   2.592  11.855  1.0415  0.0040 -0.3729
 2610TIP3    H229246   1.402   2.442  11.830 -1.7378  0.0091 -1.2622
 2611TIP3   OH229247   3.854   6.456   2.408  0.1415 -0.0409 -0.0271
 2611TIP3    H129248   3.857   6.531   2.349 -0.0957 -1.6159 -2.1649
 2611TIP3    H229249   3.782   6.402   2.375 -0.8342 -0.4253  2.5056
 2612TIP3   OH229250   1.608   1.483   4.306 -0.4144 -0.2426  0.4568
 2612TIP3    H129251   1.602   1.395   4.343  1.2362 -0.8263 -0.5648
 2612TIP3    H229252   1.525   1.496   4.260 -0.8283 -1.0898  0.9459
 2613TIP3   OH229253   2.710   6.100  12.428  0.0874  0.3363 -0.5572
 2613TIP3    H129254   2.642   6.129  12.489 -1.3116  1.3284 -2.5210
 2613TIP3    H229255   2.670   6.026  12.382  1.1248 -0.3809 -0.3371
 2614TIP3   OH229256   1.238   6.179  14.456 -0.4818  0.2725 -0.8432
 2614TIP3    H129257   1.316   6.169  14.512 -1.3596 -0.2649  0.3230
 2614TIP3    H229258   1.188   6.249  14.498 -1.7189 -0.9236 -0.2285
 2615TIP3   OH229259   1.875   5.765  15.829 -0.2568 -0.1602 -0.4081
 2615TIP3    H129260   1.882   5.671  15.840  2.4074 -0.0300 -0.2413
 2615TIP3    H229261   1.872   5.800  15.918 -1.6892 -0.0682 -0.4704
 2616TIP3   OH229262   2.503   6.558   1.550  0.2415 -0.0733  0.3950
 2616TIP3    H129263   2.502   6.611   1.470 -1.1272  1.5089  1.3664
 2616TIP3    H229264   2.540   6.617   1.616  1.3794 -1.3620  0.9334
 2617TIP3   OH229265   3.753   6.472  15.751 -0.2765  0.2184  0.1853
 2617TIP3    H129266   3.831   6.492  15.698 -0.9922  0.2074 -0.9064
 2617TIP3    H229267   3.699   6.551  15.744  0.3588  0.9059  2.3496
 2618TIP3   OH229268   0.527   3.382   5.185 -0.1149 -0.3418  0.1988
 2618TIP3    H129269   0.447   3.341   5.152 -0.6344  0.1980  0.7646
 2618TIP3    H229270   0.528   3.359   5.278 -0.3289  0.7851  0.4930
 2619TIP3   OH229271   6.284   3.847  13.144  0.0288  0.6672 -0.6553
 2619TIP3    H129272   6.271   3.765  13.191  1.2775  0.5331 -0.5169
 2619TIP3    H229273   6.204   3.859  13.093 -0.5541 -0.1479  0.0599
 2620TIP3   OH229274   6.048   5.673  14.312  0.0123  0.1793 -0.0866
 2620TIP3    H129275   5.974   5.615  14.292 -0.9173 -0.0926  3.3807
 2620TIP3    H229276   6.017   5.760  14.288 -0.0754 -0.2959 -1.8059
 2621TIP3   OH229277   1.758   3.639   0.250 -0.5075  0.3572  0.2383
 2621TIP3    H129278   1.790   3.550   0.265  0.2837  0.5111 -0.4162
 2621TIP3    H229279   1.663   3.633   0.258 -0.3251 -0.0227  2.8299
 2622TIP3   OH229280   6.581   6.486  16.160  0.0270 -0.5293  0.5366
 2622TIP3    H129281   6.510   6.493  16.223  0.2177 -3.3113  1.1989
 2622TIP3    H229282   6.660   6.476  16.213  0.6323  0.3080 -0.1799
 2623TIP3   OH229283   0.561   0.924  11.000  0.3358  0.6517  0.4358
 2623TIP3    H129284   0.507   0.975  10.940 -0.8496 -1.5820 -0.5087
 2623TIP3    H229285   0.651   0.943  10.973 -0.1367  0.8543 -1.0838
 2624TIP3   OH229286   2.078   4.773   5.668  0.9858 -0.2182  0.3355
 2624TIP3    H129287   2.141   4.846   5.672  1.5115 -0.7375  2.1452
 2624TIP3    H229288   2.003   4.803   5.718  0.2989 -0.1307 -0.7017
 2625TIP3   OH229289   4.759   6.524  15.085  0.3768 -0.2410 -0.1996
 2625TIP3    H129290   4.749   6.502  14.993  1.9693 -0.0271 -0.4581
 2625TIP3    H229291   4.771   6.619  15.086  2.1651 -0.4338  0.0131
 2626TIP3   OH229292   0.927   4.131  13.729 -0.2294  1.1335 -0.3616
 2626TIP3    H129293   0.838   4.107  13.755 -0.2387 -0.5324 -1.7370
 2626TIP3    H229294   0.984   4.088  13.793 -0.3771  1.0943 -0.2567
 2627TIP3   OH229295   6.585   2.878  16.845  0.1208 -0.1317 -0.3559
 2627TIP3    H129296   6.635   2.909  16.920  0.3620 -0.0774 -0.5367
 2627TIP3    H229297   6.503   2.845  16.882  0.4887 -0.6598 -0.0032
 2628TIP3   OH229298   1.620   2.515   5.034  0.3171  0.2736  0.2076
 2628TIP3    H129299   1.694   2.574   5.049 -0.2642  1.4441 -1.3036
 2628TIP3    H229300   1.590   2.536   4.946 -0.4415 -1.7305 -0.0617
 2629TIP3   OH229301   3.119   0.676  17.034  0.0981 -0.4839  0.4393
 2629TIP3    H129302   3.155   0.764  17.023  0.8247 -0.6481  1.3529
 2629TIP3    H229303   3.140   0.630  16.953  1.5923 -0.4341  0.7791
 2630TIP3   OH229304   4.156   4.999  17.083  0.5071 -0.4803 -0.5706
 2630TIP3    H129305   4.137   5.092  17.080 -0.0653 -0.5147  0.9111
 2630TIP3    H229306   4.238   4.993  17.131  1.5380 -0.6587 -2.2772
 2631TIP3   OH229307   2.376   3.427   3.514 -0.4882  0.0662 -0.2288
 2631TIP3    H129308   2.358   3.510   3.471 -0.8279 -0.3239 -0.8616
 2631TIP3    H229309   2.407   3.370   3.444 -1.2227 -0.6331 -0.0044
 2632TIP3   OH229310   4.791   0.242  13.951  0.0765  0.3706 -0.2997
 2632TIP3    H129311   4.844   0.198  13.885  0.9331 -0.7137  1.0452
 2632TIP3    H229312   4.851   0.304  13.993 -0.3109  0.6758 -0.1860
 2633TIP3   OH229313   5.258   5.492  13.892  0.4799  0.4671 -0.3942
 2633TIP3    H129314   5.204   5.439  13.951  1.4419 -0.3692 -0.2301
 2633TIP3    H229315   5.320   5.429  13.854  0.6286  1.2035 -1.4128
 2634TIP3   OH229316   0.064   3.411   4.346  0.3405  0.1301  0.8332
 2634TIP3    H129317   0.112   3.376   4.270 -0.8979 -0.3332  0.2435
 2634TIP3    H229318   0.132   3.426   4.411  1.2954 -0.5637  0.0408
 2635TIP3   OH229319   2.212   3.525  15.367  0.2126  0.4705  0.0112
 2635TIP3    H129320   2.254   3.596  15.415 -2.1190 -0.1790  3.3471
 2635TIP3    H229321   2.265   3.448  15.387 -1.4034 -0.0426  2.8865
 2636TIP3   OH229322   6.514   0.275   2.286 -0.6936 -0.0672  0.1888
 2636TIP3    H129323   6.584   0.318   2.333 -0.3773  0.1940 -0.5020
 2636TIP3    H229324   6.485   0.205   2.344  0.2619 -0.2936  0.4087
 2637TIP3   OH229325   1.398   2.065   6.353 -0.2008 -0.2724 -0.7513
 2637TIP3    H129326   1.386   2.149   6.398 -1.3724 -0.7296 -0.1588
 2637TIP3    H229327   1.352   2.075   6.270  2.0666  0.6138 -1.9805
 2638TIP3   OH229328   0.141   3.129   1.336  0.3197 -0.1260 -0.1834
 2638TIP3    H129329   0.117   3.185   1.410 -0.9482 -1.6405  0.6028
 2638TIP3    H229330   0.095   3.167   1.261  0.7251  0.7626 -0.0066
 2639TIP3   OH229331   4.281   5.382  13.320 -0.3421  0.5114  0.1618
 2639TIP3    H129332   4.258   5.373  13.228  0.7589  0.5324 -0.1301
 2639TIP3    H229333   4.372   5.413  13.319 -0.3126  0.4970  1.2505
 2640TIP3   OH229334   5.746   5.624  15.141  0.1120  0.3672 -0.2183
 2640TIP3    H129335   5.721   5.645  15.051  1.8533  1.5353 -0.4894
 2640TIP3    H229336   5.670   5.649  15.194 -0.7013  0.2333 -1.2935
 2641TIP3   OH229337   5.760   6.297   1.453 -0.1040  0.4095 -0.0976
 2641TIP3    H129338   5.848   6.315   1.420  0.0165 -0.6811 -0.4437
 2641TIP3    H229339   5.705   6.301   1.375  0.2513 -2.6565 -0.6355
 2642TIP3   OH229340   0.374   2.825   5.610 -1.0267 -0.0336  0.0000
 2642TIP3    H129341   0.454   2.873   5.631 -0.8963  0.9335 -2.4307
 2642TIP3    H229342   0.366   2.760   5.680  2.5841 -1.0398 -0.3354
 2643TIP3   OH229343   0.504   2.347   0.462  0.4703 -0.0101  0.3146
 2643TIP3    H129344   0.511   2.434   0.501 -0.7645  0.0847  0.3809
 2643TIP3    H229345   0.411   2.324   0.471  0.2019 -0.1684 -2.1524
 2644TIP3   OH229346   4.915   2.127  11.658 -0.4107 -0.9522 -0.3790
 2644TIP3    H129347   4.832   2.113  11.614 -0.7714 -2.4064  0.6756
 2644TIP3    H229348   4.977   2.146  11.588 -1.7517  0.9045 -1.1206
 2645TIP3   OH229349   3.670   2.024  13.547  0.6087 -0.2999 -0.0008
 2645TIP3    H129350   3.759   2.055  13.535  0.2545  0.6683 -0.1602
 2645TIP3    H229351   3.614   2.100  13.531 -0.2261 -0.7585  0.5918
 2646TIP3   OH229352   6.604   0.603   0.459  0.3986 -0.0056  0.6374
 2646TIP3    H129353   6.601   0.649   0.543  0.1383 -1.0598  1.2223
 2646TIP3    H229354   6.635   0.515   0.480 -1.6692 -0.9670 -0.0443
 2647TIP3   OH229355   4.340   1.716  16.478 -0.3055 -0.2814  0.1379
 2647TIP3    H129356   4.298   1.676  16.554 -3.0100  0.7392 -0.6937
 2647TIP3    H229357   4.381   1.795  16.512  0.4359 -0.9582  0.8688
 2648TIP3   OH229358   5.733   1.723   3.098  0.5799 -0.1462  0.4043
 2648TIP3    H129359   5.728   1.708   3.004  0.4796  1.4389  0.1381
 2648TIP3    H229360   5.681   1.652   3.136 -0.3134 -0.1717 -0.7956
 2649TIP3   OH229361   0.016   0.031  15.413  0.1180 -0.1661  0.2115
 2649TIP3    H129362  -0.030   0.114  15.424 -1.7579 -1.0428 -0.5292
 2649TIP3    H229363   0.083   0.049  15.348 -0.3469  0.7624 -0.0250
 2650TIP3   OH229364   6.158   1.072  14.365  0.3214  0.0639  0.2925
 2650TIP3    H129365   6.081   1.017  14.379  0.0106 -0.0395 -1.5885
 2650TIP3    H229366   6.214   1.054  14.441 -1.4014  0.0129  1.6132
 2651TIP3   OH229367   3.830   4.592  15.025  0.2877  0.4018 -0.4240
 2651TIP3    H129368   3.739   4.619  15.022  0.0137 -0.5779 -1.3023
 2651TIP3    H229369   3.843   4.563  15.115 -0.3899  0.1307 -0.4087
 2652TIP3   OH229370   4.821   3.557   4.127 -1.1597  0.0033 -0.2317
 2652TIP3    H129371   4.872   3.609   4.189 -1.5442  1.2160 -0.8907
 2652TIP3    H229372   4.743   3.531   4.177 -0.7652 -0.2906  0.2320
 2653TIP3   OH229373   1.243   6.444   4.679  0.0388  0.0612 -0.3386
 2653TIP3    H129374   1.211   6.430   4.590 -2.2873  0.8915  0.3069
 2653TIP3    H229375   1.228   6.362   4.724 -1.1386  0.4134 -0.0685
 2654TIP3   OH229376   2.724   0.033  12.295 -0.3551  0.6428 -0.6456
 2654TIP3    H129377   2.683  -0.035  12.242  1.1005  0.5509 -1.7046
 2654TIP3    H229378   2.757   0.097  12.232  1.8291  0.3112  0.0527
 2655TIP3   OH229379   0.177   3.558  14.088 -0.0901  0.5642  0.1063
 2655TIP3    H129380   0.266   3.590  14.077 -0.4400  2.0852  1.3811
 2655TIP3    H229381   0.133   3.578  14.005  0.6152  0.1584 -0.3819
 2656TIP3   OH229382   1.691   3.709  13.324 -0.4988 -0.2237 -0.0841
 2656TIP3    H129383   1.763   3.666  13.279 -1.7670 -1.9541 -0.5436
 2656TIP3    H229384   1.696   3.678  13.414 -1.0357 -0.8466 -0.2652
 2657TIP3   OH229385   0.357   1.063  13.822 -0.1760 -0.7027  0.6385
 2657TIP3    H129386   0.394   1.125  13.885  0.0602 -0.3244  0.1296
 2657TIP3    H229387   0.429   1.045  13.761 -0.0622 -1.9301  1.1145
 2658TIP3   OH229388   6.024   3.215   5.696 -0.1969 -0.3879  0.1533
 2658TIP3    H129389   6.030   3.287   5.758  0.4140 -0.5506  0.2942
 2658TIP3    H229390   5.933   3.186   5.701 -0.1703 -0.3603  0.9286
 2659TIP3   OH229391   0.822   5.510   5.975  0.0705  0.2191  0.7002
 2659TIP3    H129392   0.887   5.534   6.042  0.5945  0.4144  0.1324
 2659TIP3    H229393   0.744   5.560   5.998  0.6239  1.2073  0.4949
 2660TIP3   OH229394   4.969   6.118  16.006  0.3995  0.3525 -0.8101
 2660TIP3    H129395   5.048   6.074  15.976  0.2188 -2.0843  1.8188
 2660TIP3    H229396   4.899   6.081  15.951  0.8227  1.2569 -2.0046
 2661TIP3   OH229397   4.023   5.479   4.206 -0.0619 -0.4763  0.4025
 2661TIP3    H129398   4.115   5.468   4.183 -0.5092 -1.5114 -1.0001
 2661TIP3    H229399   3.992   5.551   4.151 -0.0512  0.0536  1.0666
 2662TIP3   OH229400   1.631   6.278  16.298  0.2442 -0.3221  0.1462
 2662TIP3    H129401   1.588   6.363  16.295  3.3432  1.3555 -1.1366
 2662TIP3    H229402   1.669   6.274  16.386  0.2274 -0.3073  0.1544
 2663TIP3   OH229403   6.162   4.487   3.112  0.0475  0.2268 -0.0572
 2663TIP3    H129404   6.168   4.482   3.207  2.6433  0.5217 -0.1438
 2663TIP3    H229405   6.101   4.559   3.096 -2.1044 -1.1852  1.3063
 2664TIP3   OH229406   4.461   4.996  11.914  0.4125  0.6028  0.1606
 2664TIP3    H129407   4.449   5.063  11.981  1.0141  1.2828 -0.4001
 2664TIP3    H229408   4.552   4.969  11.922  1.5200  3.0917 -2.5083
 2665TIP3   OH229409   3.850   5.993   3.458  0.0012 -0.0945 -0.0950
 2665TIP3    H129410   3.821   6.085   3.452  0.1390 -0.0576 -0.2025
 2665TIP3    H229411   3.914   5.984   3.388 -1.5676 -0.8593 -1.5183
 2666TIP3   OH229412   1.256   1.673  11.835  0.3021  0.7030 -0.3100
 2666TIP3    H129413   1.294   1.740  11.778  1.8413  2.3953  2.4983
 2666TIP3    H229414   1.191   1.719  11.886 -0.7866 -0.6922 -0.3805
 2667TIP3   OH229415   4.408   1.008  11.321 -0.0625 -0.5762 -0.1100
 2667TIP3    H129416   4.410   1.102  11.337 -2.8166 -0.3122 -0.8017
 2667TIP3    H229417   4.490   0.975  11.359  0.9321  2.0547  0.2031
 2668TIP3   OH229418   3.730   4.386   3.955  0.3365 -0.7447 -0.2037
 2668TIP3    H129419   3.759   4.389   3.864 -2.3055 -1.5160 -1.1637
 2668TIP3    H229420   3.755   4.471   3.991  2.1562 -0.7330 -1.3633
 2669TIP3   OH229421   5.166   3.506   1.140  0.4906  0.6248  0.0253
 2669TIP3    H129422   5.195   3.577   1.197  0.2152  0.9933 -0.2859
 2669TIP3    H229423   5.163   3.429   1.196  2.7667  0.3993 -0.0920
 2670TIP3   OH229424   3.718   5.236   5.491 -0.4625 -0.1115  0.4101
 2670TIP3    H129425   3.719   5.326   5.458  0.7938 -0.1986  0.1608
 2670TIP3    H229426   3.631   5.225   5.529 -0.7592  1.0861  0.1064
 2671TIP3   OH229427   1.426   3.085  15.262 -0.1103 -0.3313  0.1576
 2671TIP3    H129428   1.386   3.013  15.312  1.1224 -0.7187  0.6165
 2671TIP3    H229429   1.477   3.042  15.194 -1.2620  0.1876 -1.0983
 2672TIP3   OH229430   1.200   0.739   5.714  0.1736 -0.3066  0.1440
 2672TIP3    H129431   1.285   0.727   5.756  0.6687  0.6752 -0.5251
 2672TIP3    H229432   1.204   0.827   5.677 -0.8138 -0.5702 -0.6405
 2673TIP3   OH229433   4.321   2.317  12.129  0.5778 -0.7524  0.1677
 2673TIP3    H129434   4.301   2.353  12.043 -0.5017 -1.4450  0.1112
 2673TIP3    H229435   4.237   2.313  12.174  0.9747 -1.3365  0.8922
 2674TIP3   OH229436   1.278   2.041  13.743  0.3202  0.6333  0.4735
 2674TIP3    H129437   1.236   1.975  13.687  0.2020  0.9613  0.1704
 2674TIP3    H229438   1.258   2.124  13.700  1.6181  0.7688  0.0978
 2675TIP3   OH229439   4.690   0.879   5.721 -0.0203  0.0573  0.3509
 2675TIP3    H129440   4.725   0.790   5.732 -0.5822 -0.3295 -0.7827
 2675TIP3    H229441   4.684   0.890   5.626 -1.7453  0.5932  0.4955
 2676TIP3   OH229442   0.905   3.744   2.326  0.4680  0.2026  0.0016
 2676TIP3    H129443   0.931   3.835   2.310 -0.6175  1.1057  2.7933
 2676TIP3    H229444   0.810   3.747   2.338  0.4355 -1.2680  0.3438
 2677TIP3   OH229445   1.846   1.732   1.256  0.6026 -0.0078  0.0151
 2677TIP3    H129446   1.883   1.683   1.329  0.4798  1.2036  0.9185
 2677TIP3    H229447   1.776   1.784   1.295 -0.5959 -0.6032 -1.2827
 2678TIP3   OH229448   5.565   4.605  13.604 -0.5591  0.0122 -0.2720
 2678TIP3    H129449   5.637   4.546  13.624 -1.0833 -0.5109  0.1416
 2678TIP3    H229450   5.492   4.571  13.656 -0.9509  0.8548 -0.2526
 2679TIP3   OH229451   0.017   2.253   2.611  0.0752 -0.0030  0.0057
 2679TIP3    H129452  -0.068   2.290   2.633 -0.4765 -0.7334 -0.7844
 2679TIP3    H229453  -0.002   2.161   2.591  0.5993  0.3805 -2.6549
 2680TIP3   OH229454   0.676   4.525   2.211 -0.0051  0.2396 -0.4079
 2680TIP3    H129455   0.756   4.482   2.182  2.0592  1.6068  2.7270
 2680TIP3    H229456   0.631   4.459   2.263  1.4869  0.6924  1.6014
 2681TIP3   OH229457   6.266   5.802  17.243  0.1798  0.1567 -0.3754
 2681TIP3    H129458   6.351   5.759  17.240 -0.3615 -0.8884 -2.7234
 2681TIP3    H229459   6.283   5.893  17.221  0.7415  0.0562 -0.3596
 2682TIP3   OH229460   4.611   0.964  14.025  0.0290  0.3185 -0.1852
 2682TIP3    H129461   4.588   0.871  14.027  0.5916  0.1581 -0.8744
 2682TIP3    H229462   4.562   1.002  14.098 -0.2338 -0.5105  0.0839
 2683TIP3   OH229463   1.334   1.708   4.334  0.1181 -0.3492  0.0687
 2683TIP3    H129464   1.291   1.791   4.356  1.3385  0.1090  0.8135
 2683TIP3    H229465   1.276   1.641   4.370  0.6633  0.3020  2.3527
 2684TIP3   OH229466   0.868   4.256   3.076 -0.0013 -0.5977  0.2906
 2684TIP3    H129467   0.852   4.346   3.049 -0.6144 -1.0961 -1.1039
 2684TIP3    H229468   0.944   4.261   3.134 -0.0558  0.8125  0.2633
 2685TIP3   OH229469   1.132   5.560   5.022 -0.4977  0.3740 -0.1553
 2685TIP3    H129470   1.063   5.625   5.015 -1.3009 -0.4273  0.1244
 2685TIP3    H229471   1.161   5.565   5.114 -2.0446 -1.0996  0.4632
 2686TIP3   OH229472   3.567   1.452   3.748 -0.8114  0.0104  0.0838
 2686TIP3    H129473   3.599   1.367   3.717 -2.0416 -0.0507 -1.0734
 2686TIP3    H229474   3.601   1.515   3.685 -0.7723  0.2562  0.3482
 2687TIP3   OH229475   6.541   1.300   5.371  0.6735  0.3518  0.2192
 2687TIP3    H129476   6.532   1.227   5.310  0.4617  0.4357  0.1478
 2687TIP3    H229477   6.530   1.260   5.457  1.3238  0.1753  0.2259
 2688TIP3   OH229478   4.550   2.509  15.080  0.6046  0.1332 -0.5900
 2688TIP3    H129479   4.559   2.431  15.135  1.9801 -0.3294 -1.4245
 2688TIP3    H229480   4.497   2.569  15.132 -1.7574 -1.8864 -0.4944
 2689TIP3   OH229481   0.922   1.286   2.336 -0.0370 -0.0207  0.1397
 2689TIP3    H129482   0.960   1.213   2.288  0.2546 -0.9108  1.6569
 2689TIP3    H229483   0.873   1.336   2.270  0.4209 -1.1234 -1.0689
 2690TIP3   OH229484   0.424   3.555   3.432  0.6583  0.2812 -0.4477
 2690TIP3    H129485   0.400   3.476   3.384 -0.9822  0.9572 -0.7894
 2690TIP3    H229486   0.443   3.525   3.520 -2.7900 -0.2184  0.2507
 2691TIP3   OH229487   2.425   4.168   5.799  0.6500 -0.1528  0.5214
 2691TIP3    H129488   2.417   4.137   5.889  0.3226  0.4346  0.7004
 2691TIP3    H229489   2.380   4.102   5.746 -2.9928  1.5485  1.2011
 2692TIP3   OH229490   3.834   1.505   4.239  0.0935  0.1768 -0.3475
 2692TIP3    H129491   3.869   1.438   4.298 -0.0887 -2.3516 -2.8819
 2692TIP3    H229492   3.910   1.559   4.216  0.6263 -0.2616  0.3389
 2693TIP3   OH229493   2.450   0.676  11.733  0.0796  0.4341  0.0234
 2693TIP3    H129494   2.502   0.715  11.662  1.4140  1.2476  1.3878
 2693TIP3    H229495   2.470   0.583  11.729 -0.2318  0.3934 -0.9410
 2694TIP3   OH229496   1.100   3.789   4.856  1.2971 -0.5493  0.1134
 2694TIP3    H129497   1.104   3.720   4.790  1.6463 -0.5475  0.1280
 2694TIP3    H229498   1.047   3.753   4.926 -0.6286  0.1059 -0.9285
 2695TIP3   OH229499   0.038   1.133  15.514  0.0813 -0.2124  0.2339
 2695TIP3    H129500   0.087   1.057  15.483 -0.7762 -1.0232  0.8103
 2695TIP3    H229501   0.103   1.189  15.555  0.5979 -1.0443  0.5669
 2696TIP3   OH229502   2.547   0.129  15.625  0.1462  0.3381  0.0610
 2696TIP3    H129503   2.517   0.200  15.681  2.0148  1.1900  0.0510
 2696TIP3    H229504   2.615   0.168  15.570  0.2682 -1.1341 -0.9042
 2697TIP3   OH229505   3.035   0.756   4.402 -0.7585 -0.0421  0.3065
 2697TIP3    H129506   3.010   0.776   4.312 -0.0098 -1.1450 -0.1718
 2697TIP3    H229507   3.131   0.752   4.399 -0.6449  1.1466  1.4376
 2698TIP3   OH229508   2.256   2.348   5.298  0.4978  0.2465 -1.1386
 2698TIP3    H129509   2.312   2.411   5.252  0.3921  1.1106 -0.1270
 2698TIP3    H229510   2.293   2.343   5.386  0.5165 -1.1514 -1.2130
 2699TIP3   OH229511   6.229   2.702   2.908 -1.3767  0.6901 -0.0853
 2699TIP3    H129512   6.211   2.777   2.965 -2.5146 -1.5451  2.7932
 2699TIP3    H229513   6.310   2.725   2.862 -2.3294  4.1063 -0.2898
 2700TIP3   OH229514   5.478   1.348  11.499 -0.2635 -0.1358 -0.5614
 2700TIP3    H129515   5.397   1.342  11.449  0.7286 -2.2240 -2.0433
 2700TIP3    H229516   5.470   1.280  11.566  0.3533 -0.5132 -0.8661
 2701TIP3   OH229517   2.051   6.221   3.544  0.1252 -0.9856 -0.3158
 2701TIP3    H129518   2.134   6.247   3.585  1.5672 -2.9368 -1.8053
 2701TIP3    H229519   2.023   6.144   3.593  0.2325 -1.4913 -1.0463
 2702TIP3   OH229520   4.463   2.087   3.059 -0.4274  0.0643 -0.3410
 2702TIP3    H129521   4.510   2.124   3.133 -0.9689  2.2412 -1.0011
 2702TIP3    H229522   4.451   1.995   3.081 -0.6466  0.6508  2.3197
 2703TIP3   OH229523   1.487   5.914  11.265  0.0777  0.0663  0.0946
 2703TIP3    H129524   1.514   5.925  11.357  0.5972  0.8937 -0.1446
 2703TIP3    H229525   1.467   6.003  11.236  0.8603 -0.0632 -0.8739
 2704TIP3   OH229526   0.405   5.139  14.250 -0.1601  0.5221  0.0249
 2704TIP3    H129527   0.320   5.174  14.224 -0.1254 -0.0127 -0.8452
 2704TIP3    H229528   0.407   5.051  14.214  1.2277  0.9308 -0.9779
 2705TIP3   OH229529   3.554   3.603  15.750 -0.3229 -0.1368  0.1458
 2705TIP3    H129530   3.479   3.547  15.771  0.2574 -0.4749  1.3745
 2705TIP3    H229531   3.524   3.692  15.767 -0.2826 -0.3106  1.1524
 2706TIP3   OH229532   0.045   1.358   2.551 -0.5091 -0.4632  0.1975
 2706TIP3    H129533   0.022   1.312   2.470  0.7288 -0.8395  0.0426
 2706TIP3    H229534   0.137   1.382   2.540 -0.4073 -0.2587  1.3793
 2707TIP3   OH229535   4.622   2.284  12.766  0.2830  0.1121 -0.0533
 2707TIP3    H129536   4.685   2.319  12.830  1.0620 -0.0719 -0.6927
 2707TIP3    H229537   4.633   2.189  12.773 -0.9976  0.0089  0.8654
 2708TIP3   OH229538   0.078   3.811   3.653  0.0741  0.0629  0.1170
 2708TIP3    H129539   0.127   3.874   3.600 -0.8719 -0.3756 -1.3401
 2708TIP3    H229540   0.137   3.736   3.661  0.3528  0.2646 -0.0043
 2709TIP3   OH229541   3.573   6.312   3.215  0.1094  0.1726  0.0763
 2709TIP3    H129542   3.652   6.307   3.162 -0.8443  1.3492 -1.5750
 2709TIP3    H229543   3.603   6.330   3.304  1.6454  2.0134 -0.7652
 2710TIP3   OH229544   1.004   0.675   5.067  0.0227  0.0671 -0.6777
 2710TIP3    H129545   1.068   0.699   5.134  0.2161 -0.6848 -0.5787
 2710TIP3    H229546   0.963   0.596   5.102 -1.9794  1.3138 -0.0640
 2711TIP3   OH229547   4.071   5.035  15.246  0.8006 -0.4625 -0.6403
 2711TIP3    H129548   4.086   4.944  15.274  1.9549  0.6539  2.9625
 2711TIP3    H229549   4.158   5.074  15.242  0.2971  0.5937 -1.8696
 2712TIP3   OH229550   0.672   4.599  12.457  0.0248  0.2419 -0.2722
 2712TIP3    H129551   0.685   4.505  12.449  0.5067  0.2350  0.5104
 2712TIP3    H229552   0.581   4.613  12.432 -0.2185 -0.4996  0.1850
 2713TIP3   OH229553   3.397   3.315   3.039 -0.1297  0.3346 -0.0500
 2713TIP3    H129554   3.433   3.247   3.095  0.8508 -0.7180 -1.8535
 2713TIP3    H229555   3.463   3.327   2.970 -1.1886  1.6626 -0.8852
 2714TIP3   OH229556   1.181   6.464  10.993 -0.2740 -0.4721  0.3753
 2714TIP3    H129557   1.190   6.428  10.904 -1.5217  1.7919 -0.7397
 2714TIP3    H229558   1.147   6.552  10.980  0.1873  0.1901  3.1080
 2715TIP3   OH229559   6.273   1.157  14.823  0.4110  0.2530 -0.0905
 2715TIP3    H129560   6.357   1.177  14.866  0.9564 -1.0196 -0.5119
 2715TIP3    H229561   6.219   1.235  14.838  0.3325 -0.3572  3.4496
 2716TIP3   OH229562   5.259   2.639  16.966 -1.0001 -0.4074  0.2099
 2716TIP3    H129563   5.354   2.625  16.967 -1.1576 -1.5426  0.8147
 2716TIP3    H229564   5.248   2.731  16.989 -0.0545 -0.3345  0.4025
 2717TIP3   OH229565   0.826   0.424  16.127 -0.3108  0.2219  0.1868
 2717TIP3    H129566   0.817   0.516  16.099  1.7101  0.0229 -1.3907
 2717TIP3    H229567   0.741   0.401  16.163 -0.9235  2.6712  0.4659
 2718TIP3   OH229568   2.765   2.483  16.638 -0.3791  0.0056  0.0576
 2718TIP3    H129569   2.771   2.554  16.702 -1.1487 -0.9148  1.1996
 2718TIP3    H229570   2.851   2.482  16.596  0.6299 -0.1343  1.9722
 2719TIP3   OH229571   4.442   6.220   1.965 -0.3595 -0.0625  1.1481
 2719TIP3    H129572   4.388   6.144   1.987  0.1806 -0.9474 -0.4042
 2719TIP3    H229573   4.390   6.269   1.901  0.4577 -0.7158 -0.0643
 2720TIP3   OH229574   2.847   5.814  11.508 -0.6790 -0.4313 -0.5640
 2720TIP3    H129575   2.863   5.905  11.484  2.8061 -0.5536  0.7705
 2720TIP3    H229576   2.799   5.819  11.590 -1.3495  0.1522 -0.9783
 2721TIP3   OH229577   5.776   4.454  11.397 -0.2604 -0.4566  0.1019
 2721TIP3    H129578   5.728   4.407  11.329  0.2598 -2.5337  1.1108
 2721TIP3    H229579   5.708   4.488  11.455 -0.6442  0.2332 -0.7227
 2722TIP3   OH229580   3.223   4.753  12.870 -0.1352  0.2875  0.0976
 2722TIP3    H129581   3.257   4.749  12.781  0.1727  3.6916 -0.0491
 2722TIP3    H229582   3.301   4.744  12.926  0.2798  2.1511 -0.1224
 2723TIP3   OH229583   5.925   3.058  14.768 -0.2743  0.1621 -0.3059
 2723TIP3    H129584   5.957   2.970  14.788  1.3997  1.2959  2.5400
 2723TIP3    H229585   5.924   3.061  14.672 -0.9741 -3.1050 -0.5258
 2724TIP3   OH229586   0.438   3.247  12.648 -0.4526  0.0773 -0.3421
 2724TIP3    H129587   0.440   3.176  12.583  1.8499  0.9908 -1.3793
 2724TIP3    H229588   0.358   3.296  12.627 -1.4125 -1.4575 -0.4050
 2725TIP3   OH229589   0.652   3.833  10.581  1.0365  0.0147 -0.1056
 2725TIP3    H129590   0.695   3.786  10.652  2.7716  0.1147 -1.0466
 2725TIP3    H229591   0.675   3.785  10.502  0.8426  1.0695 -0.8353
 2726TIP3   OH229592   6.475   6.619   3.631  0.4336  0.5683 -0.5730
 2726TIP3    H129593   6.475   6.576   3.545 -0.2301 -0.5061 -0.0597
 2726TIP3    H229594   6.568   6.623   3.656  0.8208  2.5269 -2.0931
 2727TIP3   OH229595   0.719   5.180   6.169  0.7974 -0.2249 -0.0306
 2727TIP3    H129596   0.710   5.146   6.258 -1.1552 -1.2174 -0.5494
 2727TIP3    H229597   0.653   5.132   6.118  0.9427  1.2635 -1.7308
 2728TIP3   OH229598   5.511   2.385   4.589 -0.1968 -0.3564  0.0735
 2728TIP3    H129599   5.543   2.429   4.510  1.6956 -1.0860  0.3885
 2728TIP3    H229600   5.494   2.457   4.650  1.1654  0.0764 -0.0164
 2729TIP3   OH229601   2.663   6.055   4.114  0.0983 -0.0578 -0.2193
 2729TIP3    H129602   2.632   6.143   4.137  1.1276  0.1921  0.2715
 2729TIP3    H229603   2.739   6.071   4.057  1.4489 -0.5771  1.3716
 2730TIP3   OH229604   4.012   5.559   5.795 -0.4491 -0.3370 -0.8638
 2730TIP3    H129605   4.010   5.471   5.834 -1.6619 -1.2316 -2.8042
 2730TIP3    H229606   4.034   5.617   5.868  3.2792 -2.4672 -0.0443
 2731TIP3   OH229607   3.097   6.545   4.685 -0.2429 -0.3007  0.1227
 2731TIP3    H129608   3.157   6.518   4.755 -1.5417 -2.3544  0.5149
 2731TIP3    H229609   3.155   6.585   4.619  0.9518  2.3845  2.5537
 2732TIP3   OH229610   2.696   2.668   5.276  0.1994  0.3098  0.4931
 2732TIP3    H129611   2.754   2.665   5.200  0.3657  1.8104  0.5378
 2732TIP3    H229612   2.700   2.580   5.313  0.0662 -0.4678 -1.2535
 2733TIP3   OH229613   6.142   0.819   2.994  0.3321  0.1544 -0.3065
 2733TIP3    H129614   6.171   0.789   2.908 -0.0189  1.8502 -1.0576
 2733TIP3    H229615   6.221   0.819   3.047  1.0988  1.5161 -1.3788
 2734TIP3   OH229616   5.928   1.106  11.985 -0.2317 -0.3680  0.2210
 2734TIP3    H129617   5.955   1.177  11.926 -3.0492 -0.4703 -1.3778
 2734TIP3    H229618   5.913   1.150  12.069 -0.3411  0.6520 -0.3040
 2735TIP3   OH229619   6.705   2.305   0.052  0.1325 -0.4426  0.2859
 2735TIP3    H129620   6.731   2.216   0.027  1.0373 -1.1394  3.2778
 2735TIP3    H229621   6.786   2.346   0.082 -0.4254  1.1567 -0.3039
 2736TIP3   OH229622   2.120   3.603   0.397 -0.6281  0.2829  0.1355
 2736TIP3    H129623   2.188   3.625   0.461 -0.4582 -1.3937  0.5655
 2736TIP3    H229624   2.086   3.519   0.425 -0.0016 -0.9262 -2.4130
 2737TIP3   OH229625   4.723   5.994  13.163 -0.0718 -0.6759  0.0072
 2737TIP3    H129626   4.775   6.069  13.134  0.1922 -0.7424  0.3004
 2737TIP3    H229627   4.786   5.936  13.207 -0.1985 -1.2694 -0.5861
 2738TIP3   OH229628   5.893   2.430   5.783  0.4958  0.6728 -0.0265
 2738TIP3    H129629   5.844   2.348   5.785  1.0491  0.2162 -2.2478
 2738TIP3    H229630   5.974   2.411   5.830 -0.6908  0.9589  2.2593
 2739TIP3   OH229631   4.797   1.852  11.506 -0.0830  0.4739  0.0498
 2739TIP3    H129632   4.853   1.913  11.554  1.5947 -1.0831  0.2163
 2739TIP3    H229633   4.805   1.879  11.414  0.8110  0.4183  0.0981
 2740TIP3   OH229634   5.110   3.635   0.673  0.3062  0.5959  0.1374
 2740TIP3    H129635   5.051   3.630   0.749  0.2693  0.6371  0.1112
 2740TIP3    H229636   5.197   3.649   0.711  0.1651  1.5189  0.1322
 2741TIP3   OH229637   2.797   3.917   1.989  0.1641  0.5729 -0.6004
 2741TIP3    H129638   2.775   3.907   2.081 -1.9304  1.7662 -0.9230
 2741TIP3    H229639   2.738   3.857   1.944  1.2887 -0.1312 -1.1957
 2742TIP3   OH229640   2.255   2.687  16.427  0.7157  0.0454  0.2192
 2742TIP3    H129641   2.330   2.683  16.487  3.5706  1.3371 -2.9178
 2742TIP3    H229642   2.280   2.631  16.353 -1.2754  0.7711 -1.0968
 2743TIP3   OH229643   0.629   6.697  16.412 -0.3224  0.1564  0.0343
 2743TIP3    H129644   0.551   6.657  16.374 -0.8028  1.4714 -0.4209
 2743TIP3    H229645   0.638   6.656  16.498 -0.4932 -1.2772 -0.6071
 2744TIP3   OH229646   0.666   2.541  13.146  0.5153 -0.1216 -0.1676
 2744TIP3    H129647   0.624   2.511  13.227  0.3301 -0.1385 -0.2707
 2744TIP3    H229648   0.759   2.545  13.168  0.3658  0.7895  0.3351
 2745TIP3   OH229649   6.483   3.998   3.023 -0.5164 -0.3474 -0.1742
 2745TIP3    H129650   6.517   4.050   2.951 -0.9323 -1.6596 -1.3487
 2745TIP3    H229651   6.391   4.025   3.032  0.1911  1.7596  1.6982
 2746TIP3   OH229652   1.640   6.140  15.231 -0.2709  0.3513  0.2790
 2746TIP3    H129653   1.637   6.144  15.327 -1.3845 -0.0601  0.2779
 2746TIP3    H229654   1.677   6.053  15.212  0.0035  0.4554  0.3290
 2747TIP3   OH229655   0.069   5.199  16.110  0.2407  0.2029 -0.1928
 2747TIP3    H129656  -0.005   5.214  16.168  1.7895 -0.2079  1.9852
 2747TIP3    H229657   0.041   5.128  16.052 -0.4544 -1.2080  1.7860
 2748TIP3   OH229658   2.253   4.995  14.327  0.1477 -0.2817 -0.2757
 2748TIP3    H129659   2.230   4.903  14.319  1.1308 -0.5896  0.1733
 2748TIP3    H229660   2.295   5.017  14.244 -0.2704 -0.1886 -0.4591
 2749TIP3   OH229661   4.071   3.531   1.349 -0.0398  0.0425 -0.4112
 2749TIP3    H129662   4.058   3.616   1.306 -1.2615 -0.1276 -0.4132
 2749TIP3    H229663   4.002   3.475   1.314 -0.5168 -0.3540  1.1041
 2750TIP3   OH229664   4.849   4.723   3.890  0.6690 -0.4903  0.2445
 2750TIP3    H129665   4.942   4.711   3.910  0.6261 -2.0779 -0.3328
 2750TIP3    H229666   4.847   4.744   3.797  0.4929  0.6359  0.4858
 2751TIP3   OH229667   6.000   0.347  14.825  0.3638 -0.0041 -0.0327
 2751TIP3    H129668   6.049   0.381  14.900  0.3492  1.5464 -0.6925
 2751TIP3    H229669   5.925   0.303  14.864  0.7185  0.1688  0.8794
 2752TIP3   OH229670   6.640   0.830  15.347  0.2706 -0.1087  0.2133
 2752TIP3    H129671   6.732   0.847  15.331 -0.2365  1.9668 -0.9083
 2752TIP3    H229672   6.608   0.792  15.265 -0.0082 -0.1345  0.3332
 2753TIP3   OH229673   0.304   6.272   5.169  0.0122 -0.0656 -0.3446
 2753TIP3    H129674   0.370   6.260   5.237 -0.3667 -1.5521 -0.1914
 2753TIP3    H229675   0.354   6.300   5.092  1.3068 -3.5219 -0.9777
 2754TIP3   OH229676   5.936   0.508   3.089 -0.1476  0.0643 -0.4089
 2754TIP3    H129677   5.871   0.513   3.159 -1.4367 -1.0649 -1.4836
 2754TIP3    H229678   5.891   0.464   3.017  1.3502  0.6026 -1.7292
 2755TIP3   OH229679   3.234   4.823  15.224 -0.1513 -0.3549  0.4931
 2755TIP3    H129680   3.221   4.846  15.316 -1.0866 -0.8912  0.5056
 2755TIP3    H229681   3.289   4.893  15.190  0.4933 -0.3299  1.5399
 2756TIP3   OH229682   3.676   5.594  13.309  0.1686  0.5120 -0.3827
 2756TIP3    H129683   3.643   5.636  13.230 -0.0004  0.3040 -0.4236
 2756TIP3    H229684   3.771   5.594  13.299  0.1673  0.8546 -0.3965
 2757TIP3   OH229685   3.977   2.989  14.870 -0.0572 -0.1498  0.2344
 2757TIP3    H129686   3.962   2.957  14.781  0.2048  1.8404 -0.5908
 2757TIP3    H229687   4.014   3.076  14.857  3.2813 -1.0932  2.2350
 2758TIP3   OH229688   3.323   1.604   5.133  0.1986  0.6760 -0.2232
 2758TIP3    H129689   3.393   1.577   5.192  0.5050  0.4111 -0.7001
 2758TIP3    H229690   3.315   1.531   5.071  0.1026  1.0919 -0.7054
 2759TIP3   OH229691   0.864   5.975  16.680 -0.2113  0.7697 -0.0424
 2759TIP3    H129692   0.915   6.054  16.664  1.3090 -0.2853 -0.6594
 2759TIP3    H229693   0.912   5.905  16.635 -2.0119 -0.3598 -0.3323
 2760TIP3   OH229694   0.261   4.090  15.813  0.5429 -0.8618  0.1927
 2760TIP3    H129695   0.197   4.069  15.745  0.4794  1.3788 -0.5194
 2760TIP3    H229696   0.225   4.166  15.857  2.5649  0.3072 -0.0532
 2761TIP3   OH229697   6.505   4.869  15.484  0.3236  0.3276  0.1716
 2761TIP3    H129698   6.509   4.952  15.436 -1.1360  1.6161  2.0967
 2761TIP3    H229699   6.556   4.808  15.431  2.9565  2.8546 -0.4707
 2762TIP3   OH229700   6.022   0.982   2.084  0.5450  0.5877 -0.2682
 2762TIP3    H129701   6.008   0.892   2.055 -0.0364  0.6522 -0.2045
 2762TIP3    H229702   6.116   0.990   2.094  0.5380 -0.3147  0.7047
 2763TIP3   OH229703   3.902   1.284   6.575 -0.1173  0.7220 -0.2146
 2763TIP3    H129704   3.810   1.296   6.599 -0.1753  1.2332 -0.6840
 2763TIP3    H229705   3.903   1.289   6.479  0.1734 -0.8212 -0.3303
 2764TIP3   OH229706   0.683   5.033  12.395 -0.0989 -0.5406 -0.4565
 2764TIP3    H129707   0.705   5.121  12.425 -0.2423 -0.3848 -0.8022
 2764TIP3    H229708   0.605   5.045  12.342 -0.0862 -0.8697 -0.5484
 2765TIP3   OH229709   4.181   0.908   3.678  0.3570  0.3753 -0.0702
 2765TIP3    H129710   4.163   0.986   3.625 -0.4289  1.3818  1.6272
 2765TIP3    H229711   4.125   0.917   3.755  3.1712  0.2134  2.1665
 2766TIP3   OH229712   1.315   2.003  16.744 -0.3383  0.4515 -0.4103
 2766TIP3    H129713   1.248   2.032  16.805 -0.6508 -0.7511 -0.1469
 2766TIP3    H229714   1.313   2.068  16.673 -0.9071  1.1129  0.1994
 2767TIP3   OH229715   2.559   2.338   3.736 -0.2105  0.0815 -0.0034
 2767TIP3    H129716   2.465   2.323   3.729 -0.0830 -0.3819 -0.7681
 2767TIP3    H229717   2.574   2.347   3.830 -0.8573 -0.9387  0.2208
 2768TIP3   OH229718   4.750   1.327   6.234  0.1267  0.3776  0.4572
 2768TIP3    H129719   4.710   1.409   6.263 -1.3458 -0.1509  0.0219
 2768TIP3    H229720   4.675   1.271   6.210  1.1475 -0.3061 -1.3534
 2769TIP3   OH229721   4.703   0.515   0.736  0.0860 -0.3475 -0.6936
 2769TIP3    H129722   4.644   0.458   0.785 -1.0967  0.5412 -1.0426
 2769TIP3    H229723   4.700   0.482   0.646 -0.7599  0.3456 -0.9399
 2770TIP3   OH229724   0.044   5.829  11.623 -0.2187  0.4232 -0.3334
 2770TIP3    H129725  -0.047   5.815  11.649 -0.1521  0.7825  0.0909
 2770TIP3    H229726   0.086   5.869  11.699  0.4706 -0.3759 -0.2775
 2771TIP3   OH229727   2.204   4.968   4.016  0.1420  0.2423  0.2791
 2771TIP3    H129728   2.199   4.906   3.943 -1.0726 -1.2009  1.5094
 2771TIP3    H229729   2.222   5.053   3.975 -0.0743 -0.5871 -1.6384
 2772TIP3   OH229730   4.270   2.116  11.494 -0.0053  0.0388  0.4182
 2772TIP3    H129731   4.197   2.176  11.507  1.1869  1.2298  2.0367
 2772TIP3    H229732   4.320   2.154  11.421 -0.1369  0.0855  0.3519
 2773TIP3   OH229733   4.239   4.982   3.092  0.0534 -0.4031 -0.3300
 2773TIP3    H129734   4.162   4.943   3.133 -0.2776  0.6149  0.0427
 2773TIP3    H229735   4.256   5.061   3.143  1.0203 -0.3259 -0.7468
 2774TIP3   OH229736   2.219   0.397  10.477  0.2760 -0.1553  0.3468
 2774TIP3    H129737   2.131   0.433  10.483 -0.0193 -0.8992  0.6909
 2774TIP3    H229738   2.277   0.473  10.475 -0.0726  0.4272  4.4310
 2775TIP3   OH229739   3.267   3.308   4.499 -0.5976 -0.2624  0.4984
 2775TIP3    H129740   3.287   3.388   4.450 -1.0876  0.3949  1.3594
 2775TIP3    H229741   3.173   3.312   4.514 -0.3239  0.0228  2.2956
 2776TIP3   OH229742   1.165   0.468   2.690  0.8394  0.3561 -0.0432
 2776TIP3    H129743   1.174   0.561   2.671  1.8449  0.1797 -0.4775
 2776TIP3    H229744   1.255   0.436   2.697  0.5041 -0.5556  0.2405
 2777TIP3   OH229745   4.110   3.251   1.303  0.7629  0.6851  0.2267
 2777TIP3    H129746   4.157   3.330   1.276  1.4533  0.3459  0.4150
 2777TIP3    H229747   4.067   3.275   1.385  1.3609  0.7263  0.5319
 2778TIP3   OH229748   0.775   0.382  13.188 -0.2904 -0.0500  0.0985
 2778TIP3    H129749   0.825   0.338  13.119  1.4261  0.7186  0.7916
 2778TIP3    H229750   0.776   0.319  13.261  1.4741  0.7080  0.8069
 2779TIP3   OH229751   0.309   3.229  14.503  0.4748 -0.4300  0.0628
 2779TIP3    H129752   0.221   3.237  14.540 -0.1668 -2.1481 -0.9770
 2779TIP3    H229753   0.304   3.272  14.418  0.2543 -1.6091 -0.5412
 2780TIP3   OH229754   0.364   3.528   5.676  0.0415 -0.1900 -0.4776
 2780TIP3    H129755   0.355   3.623   5.681 -0.7873 -0.1712 -1.6497
 2780TIP3    H229756   0.386   3.501   5.765 -0.5849  1.0195  0.0797
 2781TIP3   OH229757   4.158   0.829  14.260  0.1672 -0.4365 -0.4848
 2781TIP3    H129758   4.167   0.734  14.268 -0.0981 -0.3327  1.5339
 2781TIP3    H229759   4.103   0.854  14.334 -0.9709  1.1512 -1.7754
 2782TIP3   OH229760   5.981   4.679   2.999 -0.1354  0.2133  0.2683
 2782TIP3    H129761   5.894   4.718   3.005 -0.1542  0.3438 -0.6821
 2782TIP3    H229762   5.972   4.609   2.934  0.1321 -0.7548  1.2547
 2783TIP3   OH229763   3.988   0.964   2.323  0.0737  0.1058  0.9193
 2783TIP3    H129764   4.042   0.948   2.247  0.2161 -0.8443  1.2087
 2783TIP3    H229765   3.975   1.059   2.324 -0.4989  0.0654 -0.6591
 2784TIP3   OH229766   3.936   0.286   4.785  0.4316 -0.5243 -0.3434
 2784TIP3    H129767   3.894   0.215   4.736 -1.2577  0.6717 -0.7258
 2784TIP3    H229768   3.962   0.246   4.868 -0.3255 -1.6273 -0.6181
 2785TIP3   OH229769   0.387   3.086  12.327 -0.1468  0.1510 -0.6254
 2785TIP3    H129770   0.323   3.121  12.265 -2.4482  0.2462  1.6454
 2785TIP3    H229771   0.337   3.024  12.380  2.4194 -2.1861 -0.7070
 2786TIP3   OH229772   6.703   3.906  13.114  0.2250  0.5200 -0.1282
 2786TIP3    H129773   6.774   3.944  13.166  0.1510  0.6743 -0.1400
 2786TIP3    H229774   6.718   3.939  13.025  0.5255  0.0146 -0.2648
 2787TIP3   OH229775   5.150   5.532  11.183 -0.2557  0.1058  0.1643
 2787TIP3    H129776   5.232   5.566  11.147 -1.4388 -0.4447 -3.4697
 2787TIP3    H229777   5.178   5.469  11.250  2.1560  1.6384  0.7219
 2788TIP3   OH229778   5.141   1.852  13.472  1.0804 -0.1131 -0.4496
 2788TIP3    H129779   5.140   1.844  13.376 -1.0218 -0.5647 -0.4207
 2788TIP3    H229780   5.121   1.944  13.489  2.2120  0.1471 -0.4212
 2789TIP3   OH229781   1.882   1.065  13.938 -0.1712 -0.0537 -0.1767
 2789TIP3    H129782   1.956   1.018  13.976 -0.5986 -1.0224 -0.4959
 2789TIP3    H229783   1.914   1.155  13.927  0.8128 -0.3546  0.0690
 2790TIP3   OH229784   1.636   0.707   0.849  0.0223 -0.8540  0.4426
 2790TIP3    H129785   1.579   0.697   0.772  1.1064 -0.3501 -0.4576
 2790TIP3    H229786   1.716   0.659   0.826  0.3207 -0.7906  1.3150
 2791TIP3   OH229787   0.271   2.645   3.422 -0.2024 -0.4704  0.0466
 2791TIP3    H129788   0.212   2.681   3.354  1.1195 -0.3509 -1.0752
 2791TIP3    H229789   0.291   2.720   3.478 -0.7052 -0.4008  0.1416
 2792TIP3   OH229790   5.894   6.310   2.747 -0.3625  0.7103  0.4903
 2792TIP3    H129791   5.930   6.398   2.761 -0.1329  0.5267  1.1005
 2792TIP3    H229792   5.819   6.323   2.689  0.2055  1.1990 -0.1599
 2793TIP3   OH229793   2.966   3.565   5.082 -0.3494  0.2849  0.9220
 2793TIP3    H129794   2.977   3.585   4.989  0.1432 -1.8787  0.4636
 2793TIP3    H229795   3.020   3.630   5.127  0.3433  0.6412 -0.3792
 2794TIP3   OH229796   0.159   2.070  12.911  0.3979 -0.1577 -0.4210
 2794TIP3    H129797   0.157   1.984  12.954  0.5728 -0.2937 -0.6872
 2794TIP3    H229798   0.249   2.101  12.922  0.7428 -0.6716 -1.6284
 2795TIP3   OH229799   6.241   5.894   2.059 -0.5969  0.3772 -0.1947
 2795TIP3    H129800   6.236   5.822   2.123 -0.7922  1.0212  0.5242
 2795TIP3    H229801   6.334   5.906   2.044 -0.5704 -0.2832 -0.6197
 2796TIP3   OH229802   0.723   6.130  15.311  0.0007  0.5669  0.0261
 2796TIP3    H129803   0.800   6.101  15.261 -0.2651 -1.3508  0.6355
 2796TIP3    H229804   0.756   6.142  15.400 -0.3030  0.1532  0.1973
 2797TIP3   OH229805   2.330   2.972  11.688 -0.8353 -0.0187 -0.0473
 2797TIP3    H129806   2.258   2.919  11.721 -0.3242 -0.5872  0.1899
 2797TIP3    H229807   2.392   2.908  11.653  0.3367  0.3002  1.3220
 2798TIP3   OH229808   6.129   3.456   0.066 -0.7925 -0.0016 -0.4233
 2798TIP3    H129809   6.196   3.399   0.028 -0.7812 -0.0059 -0.3965
 2798TIP3    H229810   6.177   3.530   0.103 -0.9226  1.0664 -2.2500
 2799TIP3   OH229811   1.473   3.932  15.754 -0.0882 -0.2614 -0.9617
 2799TIP3    H129812   1.463   3.995  15.825  0.2387 -0.8139 -0.4051
 2799TIP3    H229813   1.454   3.847  15.795  0.6487 -0.6452 -1.3893
 2800TIP3   OH229814   5.563   5.624   0.080  0.2579  0.4538  0.4548
 2800TIP3    H129815   5.503   5.570   0.131 -2.1558  1.3789 -1.2464
 2800TIP3    H229816   5.522   5.631  -0.006  2.6519  1.4692 -0.6925
 2801TIP3   OH229817   6.119   5.349  15.629  0.1639 -0.0248  0.0432
 2801TIP3    H129818   6.050   5.312  15.575 -1.3729 -0.8298  2.3763
 2801TIP3    H229819   6.166   5.274  15.664 -0.1181  0.3476  1.2898
 2802TIP3   OH229820   2.804   1.930  14.547  0.1026 -0.3642  0.6431
 2802TIP3    H129821   2.740   1.985  14.592  0.0582  0.6634 -0.6387
 2802TIP3    H229822   2.783   1.841  14.577 -3.1743 -0.3302 -1.1272
 2803TIP3   OH229823   0.876   3.976  17.110 -0.5470  0.0500  0.4259
 2803TIP3    H129824   0.866   3.916  17.184  0.8065  0.3367  0.8820
 2803TIP3    H229825   0.869   4.063  17.149 -0.9067  0.2000  0.0331
 2804TIP3   OH229826   3.926   0.945  14.880  0.3272 -0.4119 -0.3759
 2804TIP3    H129827   3.947   1.031  14.916  0.0159 -0.1350 -0.8508
 2804TIP3    H229828   3.876   0.963  14.801 -1.3342 -1.0414  0.4874
 2805TIP3   OH229829   2.086   1.477  14.333 -0.3619 -0.6066 -0.3796
 2805TIP3    H129830   2.136   1.494  14.254  1.3784  1.0546  0.9879
 2805TIP3    H229831   2.020   1.413  14.306  0.0487  0.0109 -3.1764
 2806TIP3   OH229832   4.138   0.429  15.754 -0.5039  0.1377 -0.2118
 2806TIP3    H129833   4.075   0.464  15.817 -0.3091  1.0359 -0.4940
 2806TIP3    H229834   4.093   0.355  15.713 -0.0853 -1.4510  2.0283
 2807TIP3   OH229835   2.367   1.309  13.075  0.1552  0.0927  0.0309
 2807TIP3    H129836   2.340   1.218  13.063  1.4037 -0.2790 -0.0793
 2807TIP3    H229837   2.344   1.329  13.166 -1.4052  0.1477 -0.3349
 2808TIP3   OH229838   6.655   2.074  16.076  0.0616  0.3104 -0.4032
 2808TIP3    H129839   6.649   2.169  16.065 -1.1035  0.5563  1.7964
 2808TIP3    H229840   6.613   2.038  15.997  0.7270  1.5721 -1.3734
 2809TIP3   OH229841   1.533   0.043   3.029 -0.0373  0.5642  0.2983
 2809TIP3    H129842   1.537   0.124   3.080  0.3972  0.2165  0.8353
 2809TIP3    H229843   1.560   0.069   2.941 -0.2719  1.0710  0.3708
 2810TIP3   OH229844   4.417   2.511   4.205  0.0062  0.0433 -0.0309
 2810TIP3    H129845   4.339   2.491   4.154  0.0764 -1.1050  0.3007
 2810TIP3    H229846   4.412   2.606   4.220 -1.7671 -0.1394  0.7030
 2811TIP3   OH229847   5.252   1.302   2.494 -0.3713  0.3730  0.3578
 2811TIP3    H129848   5.339   1.293   2.533 -0.8572 -0.6831  1.2798
 2811TIP3    H229849   5.254   1.386   2.449  1.4083 -0.0178 -0.3853
 2812TIP3   OH229850   3.994   5.709   2.416 -0.1389 -0.3527  0.0176
 2812TIP3    H129851   4.061   5.641   2.409  1.2110  0.8939  0.3497
 2812TIP3    H229852   4.035   5.777   2.468 -0.9629  1.3051 -1.4090
 2813TIP3   OH229853   5.009   6.437   3.743 -0.6359  0.3657 -0.5615
 2813TIP3    H129854   4.969   6.521   3.766 -0.2782  0.5252 -0.5090
 2813TIP3    H229855   5.103   6.451   3.756 -0.4389  0.3728 -1.8637
 2814TIP3   OH229856   3.626   2.706  14.606 -0.4055 -0.0550  0.7078
 2814TIP3    H129857   3.588   2.643  14.544  1.4243  0.8330 -1.4344
 2814TIP3    H229858   3.578   2.787  14.591 -0.5930 -0.0775  1.1612
 2815TIP3   OH229859   6.037   1.699  13.453  0.1769 -0.3047  0.0380
 2815TIP3    H129860   6.002   1.761  13.517  0.4273  0.4271 -0.5222
 2815TIP3    H229861   6.032   1.745  13.370 -1.7560 -1.8637 -0.7837
 2816TIP3   OH229862   1.532   6.033  15.849  0.2754 -0.4948  0.0025
 2816TIP3    H129863   1.567   5.946  15.828 -0.5378 -0.8393  0.0208
 2816TIP3    H229864   1.604   6.077  15.895 -0.0923 -2.0978  2.3335
 2817TIP3   OH229865   5.573   2.804   4.189 -0.4286 -0.7972  0.1594
 2817TIP3    H129866   5.502   2.753   4.150 -0.2423 -0.0969 -1.1641
 2817TIP3    H229867   5.529   2.880   4.228 -0.3159  1.3885 -3.4491
 2818TIP3   OH229868   5.795   1.212  14.953 -0.2538 -0.5281 -0.6741
 2818TIP3    H129869   5.761   1.176  14.871 -1.0778  3.0183 -2.0423
 2818TIP3    H229870   5.733   1.182  15.020 -2.5757  0.6243 -2.1793
 2819TIP3   OH229871   6.000   0.226  13.677  0.2531  0.4872 -0.1897
 2819TIP3    H129872   6.025   0.154  13.619  1.1473  1.1259 -0.6211
 2819TIP3    H229873   6.077   0.283  13.679  0.0595  0.7322  1.2475
 2820TIP3   OH229874   6.326   0.717  16.011  0.7326 -0.6362  0.5434
 2820TIP3    H129875   6.251   0.755  15.966  0.1647 -0.5042  1.5758
 2820TIP3    H229876   6.388   0.697  15.941  1.2481  2.5002 -0.0443
 2821TIP3   OH229877   4.895   0.109  13.722 -0.6460  0.2140 -0.2810
 2821TIP3    H129878   4.865   0.028  13.764  0.8748 -1.1810 -1.7192
 2821TIP3    H229879   4.822   0.135  13.666 -0.7238 -0.8589 -0.7066
 2822TIP3   OH229880   2.991   3.961  14.352  0.2350 -0.0900  0.0779
 2822TIP3    H129881   2.952   3.897  14.411  2.8750 -2.9668 -1.0148
 2822TIP3    H229882   2.930   3.966  14.279 -0.5769 -0.4623  0.7153
 2823TIP3   OH229883   1.723   4.858  15.406 -0.1195  0.1353  0.0460
 2823TIP3    H129884   1.634   4.889  15.424 -0.2624 -0.5354  0.5300
 2823TIP3    H229885   1.715   4.762  15.405  0.4456  0.0845 -0.7046
 2824TIP3   OH229886   5.125   6.193  10.819  0.3769 -0.1585 -0.5160
 2824TIP3    H129887   5.068   6.219  10.892  0.0905  1.3483 -1.2458
 2824TIP3    H229888   5.210   6.178  10.859  0.1142  0.2110  0.1991
 2825TIP3   OH229889   4.810   1.411  14.685  0.5379  0.2356  0.2572
 2825TIP3    H129890   4.760   1.492  14.682  0.4010  0.1998  1.1982
 2825TIP3    H229891   4.830   1.398  14.778 -1.4723 -2.0079  0.4996
 2826TIP3   OH229892   0.336   0.414   5.269 -0.0128  0.3897 -0.0083
 2826TIP3    H129893   0.320   0.344   5.333  0.4344 -0.1280 -0.4527
 2826TIP3    H229894   0.391   0.373   5.203 -2.4177  0.1608 -2.0334
 2827TIP3   OH229895   3.229   5.490  12.811 -0.2002  0.2061  0.4569
 2827TIP3    H129896   3.203   5.549  12.882  1.3895  0.8520  0.5419
 2827TIP3    H229897   3.201   5.404  12.840 -1.0958  0.6941  1.0877
 2828TIP3   OH229898   4.976   0.965   0.361 -0.2416 -0.1579 -0.4048
 2828TIP3    H129899   4.905   1.028   0.373  1.3727  1.5699  0.4898
 2828TIP3    H229900   5.054   1.018   0.348  0.8495 -2.0054 -1.8948
 2829TIP3   OH229901   6.553   1.338  15.492  0.8187  0.8699  0.0425
 2829TIP3    H129902   6.585   1.269  15.433  0.8721  0.4308  0.5681
 2829TIP3    H229903   6.490   1.294  15.548 -1.1184  1.8404 -1.2820
 2830TIP3   OH229904   2.950   6.726  13.925  0.0428 -0.4955 -0.1007
 2830TIP3    H129905   3.000   6.689  13.852  2.3554  1.9424  0.0873
 2830TIP3    H229906   3.015   6.771  13.978 -2.0659  0.7718  1.5737
 2831TIP3   OH229907   3.669   4.796   4.245 -0.2969 -0.1553  0.0336
 2831TIP3    H129908   3.721   4.876   4.238  0.4896 -0.7562 -1.7418
 2831TIP3    H229909   3.697   4.755   4.326  2.5018 -0.7238 -1.1018
 2832TIP3   OH229910   2.429   1.473   2.265 -0.3929  0.1628 -0.3905
 2832TIP3    H129911   2.351   1.432   2.228  0.3659 -0.4213 -1.4126
 2832TIP3    H229912   2.403   1.499   2.353 -1.2378 -1.5583 -0.0950
 2833TIP3   OH229913   3.835   1.638  12.839  1.1503 -0.1292  0.2282
 2833TIP3    H129914   3.842   1.574  12.909  0.8212 -0.0270  0.3589
 2833TIP3    H229915   3.742   1.637  12.815  1.5232 -1.3017 -1.2841
 2834TIP3   OH229916   1.600   2.701  15.317  0.7170 -0.4765 -0.0504
 2834TIP3    H129917   1.528   2.638  15.313  0.7726 -0.6722  1.5210
 2834TIP3    H229918   1.558   2.786  15.302  0.4153 -0.7270 -0.6827
 2835TIP3   OH229919   4.329   4.010  13.982  0.4327  0.3448 -0.1712
 2835TIP3    H129920   4.394   3.995  14.051  0.7811 -2.0781 -0.9568
 2835TIP3    H229921   4.337   4.104  13.962  2.2085  0.5411  1.1954
 2836TIP3   OH229922   3.937   5.697   2.124 -0.2382  0.4550 -0.2336
 2836TIP3    H129923   3.858   5.736   2.087 -2.5319 -3.3191  0.1651
 2836TIP3    H229924   3.928   5.710   2.218  1.1817  2.4950 -0.3241
 2837TIP3   OH229925   4.703   5.236  14.739 -0.0246  0.2122  0.2537
 2837TIP3    H129926   4.780   5.286  14.711  1.1259 -0.6622  1.6910
 2837TIP3    H229927   4.655   5.296  14.795 -0.9489  1.0871 -1.4060
 2838TIP3   OH229928   2.252   3.030  13.122 -0.1971  0.1537  0.5248
 2838TIP3    H129929   2.285   2.983  13.199 -0.1463  1.6866  1.4982
 2838TIP3    H229930   2.163   3.057  13.147 -0.5276 -0.1003 -0.3287
 2839TIP3   OH229931   6.274   5.216   3.179 -0.2806  0.1022  0.3715
 2839TIP3    H129932   6.232   5.133   3.199 -2.9691  0.5065 -2.7746
 2839TIP3    H229933   6.358   5.192   3.140 -0.6164 -1.0948  0.3513
 2840TIP3   OH229934   3.259   4.261   2.778 -0.0430  0.3956 -0.4715
 2840TIP3    H129935   3.276   4.191   2.841 -0.2265  0.7318 -0.0401
 2840TIP3    H229936   3.321   4.330   2.802 -1.2168  1.1910  0.4182
 2841TIP3   OH229937   2.967   0.314   4.980 -0.2747  0.4249 -0.0352
 2841TIP3    H129938   2.937   0.404   4.995  0.1941  0.7431 -0.9226
 2841TIP3    H229939   2.888   0.261   4.986 -0.3325  0.6569  2.1828
 2842TIP3   OH229940   1.603   6.758  16.582 -0.0038  0.2803  0.0172
 2842TIP3    H129941   1.567   6.827  16.527  3.0284  0.6463 -1.7290
 2842TIP3    H229942   1.610   6.798  16.669  1.5439  2.2259 -0.9105
 2843TIP3   OH229943   3.809   1.928   4.231  0.4862 -0.1653  0.5335
 2843TIP3    H129944   3.874   1.868   4.194  0.0197 -0.5176  0.2753
 2843TIP3    H229945   3.821   1.920   4.326  1.4303  0.4568  0.4750
 2844TIP3   OH229946   4.869   2.699  13.273  0.0822 -0.0662  0.3111
 2844TIP3    H129947   4.950   2.690  13.223  0.3852  1.7762  0.4259
 2844TIP3    H229948   4.800   2.677  13.211  0.6291 -1.5380  0.1746
 2845TIP3   OH229949   0.188   1.389   2.097 -0.5800 -0.1915  0.4702
 2845TIP3    H129950   0.210   1.299   2.070  1.2201 -0.2797  2.0512
 2845TIP3    H229951   0.094   1.386   2.114 -0.4773 -1.9239  0.9343
 2846TIP3   OH229952   1.087   4.701  12.603 -0.0066  0.2074 -0.1227
 2846TIP3    H129953   0.996   4.720  12.623  0.0835  0.2101  0.2915
 2846TIP3    H229954   1.136   4.776  12.639  0.2613 -0.3352  0.6694
 2847TIP3   OH229955   0.495   0.318  16.575  0.2774  0.1158 -0.1598
 2847TIP3    H129956   0.460   0.388  16.520 -0.8362 -0.7996 -0.6757
 2847TIP3    H229957   0.421   0.258  16.587  0.4691  0.3149  2.4420
 2848TIP3   OH229958   0.925   5.066   4.910  0.1189  0.6198  0.0814
 2848TIP3    H129959   0.990   5.045   4.977  0.9489  0.1983 -0.8248
 2848TIP3    H229960   0.870   5.133   4.950  1.7853  1.8033  0.4942
 2849TIP3   OH229961   2.340   5.971   3.614  0.4222  0.4392 -0.1002
 2849TIP3    H129962   2.366   6.047   3.562  1.7096 -1.5759 -2.6305
 2849TIP3    H229963   2.421   5.923   3.628 -0.4711 -0.8634  0.7735
 2850TIP3   OH229964   2.517   6.640  11.687 -0.0372 -0.2408  0.0060
 2850TIP3    H129965   2.601   6.673  11.718  0.3265  0.2358 -1.3927
 2850TIP3    H229966   2.494   6.698  11.614 -1.5978 -0.3464  0.3789
 2851TIP3   OH229967   6.302   4.264  12.879  0.4200 -0.4014  0.1331
 2851TIP3    H129968   6.391   4.230  12.888  0.0451 -1.3729  0.2918
 2851TIP3    H229969   6.253   4.193  12.839 -0.4596 -0.1711  0.7589
 2852TIP3   OH229970   2.902   5.153   4.010 -0.1151 -0.1163 -0.2647
 2852TIP3    H129971   2.953   5.141   3.930  1.6818  0.7005  0.7053
 2852TIP3    H229972   2.878   5.065   4.036 -1.9710 -0.3535 -2.3983
 2853TIP3   OH229973   4.733   1.648   0.022 -0.8360  0.5216  0.3215
 2853TIP3    H129974   4.824   1.673   0.035 -0.6794  0.6042 -0.8160
 2853TIP3    H229975   4.714   1.673  -0.069 -0.6462 -3.4517 -0.9920
 2854TIP3   OH229976   4.425   1.907  15.601 -0.2223  0.8135 -0.1036
 2854TIP3    H129977   4.490   1.839  15.620  0.5492  1.8387  1.0913
 2854TIP3    H229978   4.434   1.923  15.508 -0.4151 -0.6864 -0.4189
 2855TIP3   OH229979   2.731   5.555   4.807  0.2581  0.3243  0.2304
 2855TIP3    H129980   2.740   5.512   4.722  1.5448  0.5511  0.2316
 2855TIP3    H229981   2.650   5.519   4.844 -0.3890  0.3308 -1.1437
 2856TIP3   OH229982   1.853   2.989   4.400  0.3410 -0.8968 -0.1598
 2856TIP3    H129983   1.774   3.012   4.448  0.5377 -2.3988  0.9178
 2856TIP3    H229984   1.836   2.902   4.364  1.2693 -0.9796 -0.4326
 2857TIP3   OH229985   2.984   5.420   1.055 -0.4153  0.1832  0.1330
 2857TIP3    H129986   3.018   5.391   0.971 -0.6548  1.6818 -0.5155
 2857TIP3    H229987   2.889   5.420   1.044 -0.5111 -0.8148  0.8354
 2858TIP3   OH229988   4.311   3.425  14.998  0.0455 -0.8861 -0.0499
 2858TIP3    H129989   4.309   3.517  15.022  2.1364 -1.1478  1.3699
 2858TIP3    H229990   4.357   3.423  14.914  1.9799 -0.7430  0.9480
 2859TIP3   OH229991   1.566   1.632  15.757 -0.1244  0.2446  0.6088
 2859TIP3    H129992   1.622   1.669  15.689 -1.0998 -2.8876 -2.1310
 2859TIP3    H229993   1.478   1.662  15.735 -0.1160  2.1011  2.7268
 2860TIP3   OH229994   2.936   5.442  14.756  0.3631  0.1848  0.2460
 2860TIP3    H129995   2.957   5.429  14.663 -0.8730  0.5450 -0.0918
 2860TIP3    H229996   2.875   5.371  14.776  0.1790  0.4579  0.6402
 2861TIP3   OH229997   1.173   3.184  17.145  0.3953 -0.2019  0.5116
 2861TIP3    H129998   1.232   3.116  17.178  1.3664  0.7846  0.8782
 2861TIP3    H229999   1.121   3.210  17.221 -0.4118 -0.9389  0.2294
 2862TIP3   OH230000   1.521   0.923  10.883  0.4772 -0.2388  0.4631
 2862TIP3    H130001   1.558   0.871  10.812 -0.4484 -0.1728 -0.0784
 2862TIP3    H230002   1.545   1.013  10.863 -0.2513 -0.1583 -0.0667
 2863TIP3   OH230003   3.562   2.702  12.092 -0.2504 -0.4699 -0.0650
 2863TIP3    H130004   3.566   2.790  12.131  2.3764 -0.1021 -0.9943
 2863TIP3    H230005   3.646   2.692  12.047 -0.7804 -3.2144 -0.5802
 2864TIP3   OH230006   0.383   4.584  11.541  0.2951  0.2467  0.3167
 2864TIP3    H130007   0.392   4.619  11.629 -2.9616 -0.0494  0.8874
 2864TIP3    H230008   0.367   4.490  11.554  0.7569  0.0130 -0.6848
 2865TIP3   OH230009   5.082   4.317   2.974 -0.0815  0.9674  0.1555
 2865TIP3    H130010   5.039   4.397   3.003  0.3910  1.0997  0.4857
 2865TIP3    H230011   5.011   4.252   2.972 -0.1076  0.9089  1.7355
 2866TIP3   OH230012   5.308   2.801  13.882  0.1196 -0.0467 -0.2428
 2866TIP3    H130013   5.238   2.761  13.935 -0.5182 -1.5320 -2.0726
 2866TIP3    H230014   5.271   2.805  13.793  1.8908  0.3759 -1.0033
 2867TIP3   OH230015   0.247   6.620  15.990 -0.2778 -0.1206  0.8796
 2867TIP3    H130016   0.310   6.691  15.978  2.5074 -2.1811  2.1199
 2867TIP3    H230017   0.196   6.646  16.067 -0.2667  1.1104  0.4952
 2868TIP3   OH230018   5.348   6.576   1.064  0.4043  0.2619 -0.6517
 2868TIP3    H130019   5.442   6.572   1.043  0.2727  1.8850 -1.7872
 2868TIP3    H230020   5.338   6.661   1.108 -0.7332  0.7987 -1.8746
 2869TIP3   OH230021   4.262   4.185  15.577  0.1060 -0.3340 -0.3407
 2869TIP3    H130022   4.306   4.232  15.647  0.5776  0.7998 -1.3551
 2869TIP3    H230023   4.314   4.105  15.565 -0.6147 -1.0887  1.2997
 2870TIP3   OH230024   5.431   3.512  16.590  0.3128  0.8455 -0.2679
 2870TIP3    H130025   5.449   3.606  16.590 -0.0629  0.9318  0.8746
 2870TIP3    H230026   5.505   3.473  16.543  0.5957  1.6844 -0.5361
 2871TIP3   OH230027   3.557   4.173   3.910 -0.2829  0.3936 -0.2184
 2871TIP3    H130028   3.603   4.256   3.918  1.0308 -0.1372 -1.7297
 2871TIP3    H230029   3.605   4.114   3.968  0.0169  0.2116 -0.6480
 2872TIP3   OH230030   5.166   4.451   2.123  0.3714 -0.1365  0.0923
 2872TIP3    H130031   5.203   4.498   2.049 -0.6813  1.0007  0.2506
 2872TIP3    H230032   5.081   4.493   2.138  1.1857  0.7315  2.9114
 2873TIP3   OH230033   6.269   3.212  17.218  0.4752 -0.2178  0.2343
 2873TIP3    H130034   6.333   3.173  17.277 -0.7695 -0.4698  1.4608
 2873TIP3    H230035   6.308   3.202  17.131  1.0837 -2.4642  0.7012
 2874TIP3   OH230036   1.659   3.823  11.811  0.0909  0.3012  0.0037
 2874TIP3    H130037   1.635   3.785  11.727  1.1818 -0.3110 -0.0477
 2874TIP3    H230038   1.751   3.800  11.822  0.6708  2.5456  0.1984
 2875TIP3   OH230039   4.167   2.111  14.900  0.4904 -0.2835  0.3241
 2875TIP3    H130040   4.213   2.193  14.882  0.7969 -0.4720  0.2453
 2875TIP3    H230041   4.235   2.051  14.928  0.5489 -1.0330 -1.3287
 2876TIP3   OH230042   3.940   3.738   0.964  0.0350  0.4223 -0.1933
 2876TIP3    H130043   3.987   3.681   0.903 -0.2540 -1.2868  1.0947
 2876TIP3    H230044   3.848   3.715   0.952 -0.3518  2.3189 -1.2781
 2877TIP3   OH230045   1.995   1.131   6.254 -0.5684  0.3573  0.3946
 2877TIP3    H130046   1.982   1.036   6.250 -0.0765  0.3335 -1.4840
 2877TIP3    H230047   2.090   1.143   6.252 -0.5620  0.8906  2.0199
 2878TIP3   OH230048   2.586   6.315  16.906 -0.2480  0.1888  0.1101
 2878TIP3    H130049   2.626   6.340  16.823 -0.4444  0.1686  0.0082
 2878TIP3    H230050   2.660   6.300  16.965  0.0024 -1.7489 -0.6184
 2879TIP3   OH230051   6.769   5.260  13.553  0.2148 -0.1450  0.3461
 2879TIP3    H130052   6.681   5.254  13.592 -0.1831 -0.4026 -0.5712
 2879TIP3    H230053   6.790   5.353  13.557 -0.0495 -0.0963  0.6765
 2880TIP3   OH230054   6.723   1.261   5.842 -0.2367 -0.5500 -0.7129
 2880TIP3    H130055   6.766   1.230   5.922  1.4896  1.8602 -0.5828
 2880TIP3    H230056   6.780   1.234   5.771  0.1192  0.3437 -0.7818
 2881TIP3   OH230057   4.729   2.379   5.889  0.3633  0.0298  0.2846
 2881TIP3    H130058   4.700   2.435   5.817  0.8546  2.0240  1.5679
 2881TIP3    H230059   4.689   2.294   5.870  1.7035  0.0258 -3.1119
 2882TIP3   OH230060   4.446   0.241  12.909 -0.5841  0.5203  0.2439
 2882TIP3    H130061   4.511   0.212  12.972 -1.8062 -0.9381  0.9052
 2882TIP3    H230062   4.362   0.228  12.953 -1.3847  1.1955 -1.0127
 2883TIP3   OH230063   1.658   0.052   5.242 -0.1788  0.4959  0.0871
 2883TIP3    H130064   1.571   0.028   5.273  0.9724 -1.3236  2.2252
 2883TIP3    H230065   1.682   0.129   5.293 -0.3493  0.7266 -0.1784
 2884TIP3   OH230066   3.965   3.575  12.129 -0.0891  0.1677 -0.0775
 2884TIP3    H130067   4.009   3.643  12.179 -0.3233  0.1237  0.1922
 2884TIP3    H230068   3.986   3.594  12.038 -0.6028  0.9297 -0.0481
 2885TIP3   OH230069   6.115   4.679  16.142  0.4093  0.0420 -0.2110
 2885TIP3    H130070   6.117   4.745  16.212  0.1036  0.8090 -0.9122
 2885TIP3    H230071   6.039   4.702  16.090 -1.3181 -2.4815  1.0236
 2886TIP3   OH230072   1.592   3.543  16.840 -0.1206 -0.0811  0.3993
 2886TIP3    H130073   1.651   3.599  16.890 -1.2934  0.0275  1.7254
 2886TIP3    H230074   1.534   3.604  16.794  0.6013 -0.1897 -0.6781
 2887TIP3   OH230075   6.540   3.432  14.467  0.3636  0.0611 -0.3957
 2887TIP3    H130076   6.540   3.390  14.381 -0.3965 -0.0702 -0.3389
 2887TIP3    H230077   6.486   3.510  14.456 -0.9607 -0.7163  0.3101
 2888TIP3   OH230078   5.229   6.049  12.170  0.1404  0.2053 -0.0875
 2888TIP3    H130079   5.225   6.083  12.260 -2.8532 -3.3662  1.3781
 2888TIP3    H230080   5.275   5.965  12.179  1.8921  0.8210 -2.4226
 2889TIP3   OH230081   1.347   4.497  11.394  0.1895 -0.6318 -0.3927
 2889TIP3    H130082   1.398   4.485  11.314  1.5748  0.6180  0.2592
 2889TIP3    H230083   1.385   4.574  11.436  0.2479 -1.8738  2.0293
 2890TIP3   OH230084   6.251   1.024   4.566 -0.1245  0.1536 -0.4149
 2890TIP3    H130085   6.208   1.096   4.519 -0.6859 -0.0974 -0.2923
 2890TIP3    H230086   6.190   0.951   4.560  0.3258 -0.2397 -0.3064
 2891TIP3   OH230087   6.610   0.181   5.869 -0.1984  0.1783 -0.3724
 2891TIP3    H130088   6.554   0.181   5.947 -0.2370 -0.9271 -0.3967
 2891TIP3    H230089   6.693   0.143   5.899 -0.6653 -1.5457 -1.1853
 2892TIP3   OH230090   3.948   2.399   1.008  0.7714 -0.7523 -0.5026
 2892TIP3    H130091   3.934   2.493   1.014 -0.8288 -0.8635 -1.7723
 2892TIP3    H230092   3.920   2.365   1.093  1.3240 -0.0936 -0.0549
 2893TIP3   OH230093   3.311   0.898   4.855  0.3368 -0.3995  0.5279
 2893TIP3    H130094   3.284   0.969   4.798  0.7997 -1.0922 -0.5775
 2893TIP3    H230095   3.399   0.923   4.884  0.1914 -0.1600  0.7725
 2894TIP3   OH230096   2.790   4.655  11.381  0.3345 -0.2712  0.1625
 2894TIP3    H130097   2.773   4.745  11.409  0.4270  0.1796 -1.1676
 2894TIP3    H230098   2.879   4.637  11.412  1.0144  0.7540 -1.1097
 2895TIP3   OH230099   6.505   4.596  11.401  0.2473  0.2939  0.3693
 2895TIP3    H130100   6.460   4.645  11.470  1.2974  0.7306  0.7661
 2895TIP3    H230101   6.547   4.663  11.348  0.2795 -0.0944 -0.0967
 2896TIP3   OH230102   4.905   3.677  12.600  0.7124  0.2152  0.4896
 2896TIP3    H130103   4.903   3.589  12.561  2.1568  0.8542 -1.1373
 2896TIP3    H230104   4.830   3.678  12.660  0.7453 -2.1619  0.6594
 2897TIP3   OH230105   1.120   4.692  15.838 -0.4520 -0.1717 -0.0418
 2897TIP3    H130106   1.126   4.640  15.758 -1.2912  1.2980 -1.1116
 2897TIP3    H230107   1.043   4.658  15.883  0.0847 -1.0754  0.2130
 2898TIP3   OH230108   3.961   4.134   1.179 -0.3347  0.4129  0.1168
 2898TIP3    H130109   3.892   4.110   1.117 -1.0285  2.0128  0.1989
 2898TIP3    H230110   4.028   4.176   1.124  0.2765 -0.5405  0.1237
 2899TIP3   OH230111   2.532   5.417   1.223  0.0332 -0.5013 -0.0519
 2899TIP3    H130112   2.468   5.348   1.237  0.6098 -0.7843  1.4266
 2899TIP3    H230113   2.521   5.475   1.299  0.3680  0.3744 -0.6535
 2900TIP3   OH230114   1.628   5.761  14.493  0.9320 -0.5716  0.0799
 2900TIP3    H130115   1.593   5.708  14.565  1.2280 -0.5070  0.2704
 2900TIP3    H230116   1.553   5.812  14.462  0.8076 -0.5961  0.3434
 2901TIP3   OH230117   4.044   4.545  14.679 -0.4504  0.1663 -0.3369
 2901TIP3    H130118   4.081   4.621  14.724 -1.7148  0.9756 -0.5902
 2901TIP3    H230119   4.028   4.481  14.748 -0.6838  0.6939  0.1107
 2902TIP3   OH230120   3.651   5.403   5.813  0.5295  0.4279 -0.3804
 2902TIP3    H130121   3.676   5.315   5.839 -0.6547 -0.1118 -0.9531
 2902TIP3    H230122   3.559   5.410   5.839  0.6177  1.4956 -0.3358
 2903TIP3   OH230123   1.864   3.989   5.182  0.3694 -0.1642  0.0533
 2903TIP3    H130124   1.782   3.951   5.150  0.3419  0.0848 -0.1782
 2903TIP3    H230125   1.873   3.957   5.271 -0.3278  0.3575  0.3174
 2904TIP3   OH230126   2.908   6.104  14.616 -0.0152  0.0292 -0.6345
 2904TIP3    H130127   2.915   6.143  14.528 -0.9810 -0.8849 -1.1415
 2904TIP3    H230128   2.964   6.025  14.611  0.7390  0.5176 -0.0906
 2905TIP3   OH230129   6.754   3.166  13.902  0.1253  0.3441  0.3183
 2905TIP3    H130130   6.828   3.187  13.845  1.1199 -0.4520  1.2496
 2905TIP3    H230131   6.677   3.200  13.856  0.8439 -0.4651 -1.5813
 2906TIP3   OH230132   0.531   4.768   4.088 -0.4666  0.0439  0.0218
 2906TIP3    H130133   0.575   4.851   4.071  0.3577 -0.4681 -0.4286
 2906TIP3    H230134   0.602   4.706   4.105 -1.0250 -0.7493 -0.4539
 2907TIP3   OH230135   4.161   0.651  14.980 -0.2129 -0.0085 -0.2844
 2907TIP3    H130136   4.178   0.570  15.028 -1.3754 -0.4275 -0.5453
 2907TIP3    H230137   4.142   0.623  14.891 -1.3717  0.4601 -0.2138
 2908TIP3   OH230138   4.542   6.331  11.465  0.1880  0.2507 -0.7483
 2908TIP3    H130139   4.507   6.390  11.531 -1.7764 -0.6742 -0.8659
 2908TIP3    H230140   4.547   6.384  11.386 -0.9096  0.4799 -0.6921
 2909TIP3   OH230141   5.140   1.517  13.889  0.1875 -0.2037 -0.5545
 2909TIP3    H130142   5.108   1.564  13.812  0.0035  0.1901 -0.2332
 2909TIP3    H230143   5.219   1.471  13.857  0.1286 -0.0208 -0.9683
 2910TIP3   OH230144   4.547   0.481   1.388  0.0726 -0.2942  0.1822
 2910TIP3    H130145   4.539   0.398   1.341  0.4753 -0.6206  0.6769
 2910TIP3    H230146   4.603   0.535   1.332 -0.5148 -0.2037 -0.3331
 2911TIP3   OH230147   5.123   4.132   0.451  0.0577 -0.3056  0.3715
 2911TIP3    H130148   5.163   4.094   0.373  1.2853  0.6126  0.5371
 2911TIP3    H230149   5.030   4.109   0.444  0.2923 -0.8911 -0.9577
 2912TIP3   OH230150   5.991   2.599   2.291  0.3073  0.0367  0.3973
 2912TIP3    H130151   5.920   2.560   2.239 -1.1781  0.3657  2.0880
 2912TIP3    H230152   6.063   2.609   2.229 -1.4203  0.5706 -1.6526
 2913TIP3   OH230153   3.811   0.044  15.401  0.3859  0.1951 -0.7036
 2913TIP3    H130154   3.879   0.103  15.368  0.7037 -0.5039 -1.3411
 2913TIP3    H230155   3.771   0.091  15.474 -0.6420  1.9987 -2.3362
 2914TIP3   OH230156   6.480   2.383   4.249  0.2404 -0.0883  0.2453
 2914TIP3    H130157   6.404   2.440   4.239 -0.0127 -0.0919  1.8481
 2914TIP3    H230158   6.443   2.294   4.252  0.5343 -0.2826 -1.1357
 2915TIP3   OH230159   4.027   4.592  11.772 -0.3815  0.0236 -0.0971
 2915TIP3    H130160   4.018   4.568  11.864 -1.7897  0.2471 -0.1445
 2915TIP3    H230161   3.938   4.618  11.746  0.2056  0.9445 -1.2439
 2916TIP3   OH230162   0.293   1.927   0.353  0.2967  0.4506 -0.0097
 2916TIP3    H130163   0.215   1.920   0.298 -1.2180  2.1131  1.7526
 2916TIP3    H230164   0.354   1.978   0.300 -1.2126  2.2295 -0.1846
 2917TIP3   OH230165   2.024   5.026   2.600  0.2111  0.1010 -0.2975
 2917TIP3    H130166   2.068   5.023   2.685 -1.0653  1.0282  0.4447
 2917TIP3    H230167   1.985   4.940   2.589 -0.5742  0.3231  0.6188
 2918TIP3   OH230168   2.721   4.883   5.620  0.9023 -0.1035  0.7391
 2918TIP3    H130169   2.756   4.831   5.548  1.5217  0.6583  0.4619
 2918TIP3    H230170   2.797   4.929   5.655  0.5357 -0.1393  1.6108
 2919TIP3   OH230171   1.123   4.757  10.788  0.1971  1.2143  0.6656
 2919TIP3    H130172   1.195   4.770  10.726  0.8854  1.2557  1.4624
 2919TIP3    H230173   1.106   4.663  10.785  0.0420  1.2520  0.2201
 2920TIP3   OH230174   6.088   1.144   3.983  0.0750  0.5027 -0.1767
 2920TIP3    H130175   6.080   1.188   3.898  2.3770  1.2607 -0.0830
 2920TIP3    H230176   6.177   1.108   3.983  0.3480  1.0164  2.1078
 2921TIP3   OH230177   6.031   0.153   4.341  0.5391  0.4470 -0.0422
 2921TIP3    H130178   6.027   0.242   4.374 -0.0612  0.4041  0.0223
 2921TIP3    H230179   6.073   0.103   4.411 -1.5359  0.1777  1.1006
 2922TIP3   OH230180   4.588   5.951   4.401 -0.1457  0.4217  0.1335
 2922TIP3    H130181   4.646   5.986   4.468 -0.1294 -1.7169  1.3359
 2922TIP3    H230182   4.633   5.873   4.369 -2.2380 -1.2707  1.0611
 2923TIP3   OH230183   6.602   0.912   1.126  0.5554 -0.2246 -0.7229
 2923TIP3    H130184   6.667   0.850   1.161  0.5836 -0.5853 -1.4072
 2923TIP3    H230185   6.522   0.893   1.176  1.2015  0.8697  0.8079
 2924TIP3   OH230186   6.186   3.326  14.361 -1.0694 -0.5999  0.0293
 2924TIP3    H130187   6.206   3.341  14.454  1.3631 -1.7706 -0.2304
 2924TIP3    H230188   6.129   3.399  14.337  1.1040  1.7802  1.5695
 2925TIP3   OH230189   0.210   4.987   0.260 -0.1341  0.0517 -0.9824
 2925TIP3    H130190   0.227   4.923   0.330 -1.3269 -0.4253 -1.1001
 2925TIP3    H230191   0.294   5.029   0.245  0.2746 -0.2367  0.3478
 2926TIP3   OH230192   1.476   6.451  15.045  0.6694 -0.1516  0.4609
 2926TIP3    H130193   1.467   6.373  14.991 -0.8183 -0.3352  0.9309
 2926TIP3    H230194   1.457   6.422  15.134 -0.7708  0.8687  0.5355
 2927TIP3   OH230195   6.339   3.549   2.029 -0.4089 -0.0760 -0.1981
 2927TIP3    H130196   6.258   3.502   2.047  0.6999 -2.1440 -0.3308
 2927TIP3    H230197   6.408   3.485   2.043  1.1684  1.3544 -1.0231
 2928TIP3   OH230198   2.596   0.642   3.681  0.2546 -0.0284  0.0574
 2928TIP3    H130199   2.596   0.737   3.684  0.3869  0.0152 -0.9860
 2928TIP3    H230200   2.661   0.615   3.746  1.4278  0.6512 -0.8006
 2929TIP3   OH230201   3.823   6.621   1.075 -0.0410  0.4359 -0.2890
 2929TIP3    H130202   3.900   6.644   1.128 -0.1173 -0.7066  0.3479
 2929TIP3    H230203   3.826   6.682   1.001  2.6357 -0.9032 -1.4004
 2930TIP3   OH230204   4.427   1.523  17.183 -0.8453  0.0528 -0.1393
 2930TIP3    H130205   4.449   1.432  17.204  3.7307  0.8518 -0.5120
 2930TIP3    H230206   4.407   1.562  17.268  0.5711 -0.5799  0.5283
 2931TIP3   OH230207   1.103   2.248   2.016  0.6172  0.5787 -0.4112
 2931TIP3    H130208   1.174   2.184   2.015  1.0187  1.0145 -0.3462
 2931TIP3    H230209   1.101   2.280   2.106 -1.2950 -1.1858  0.2550
 2932TIP3   OH230210   4.950   4.076  16.243 -0.4702 -0.0604  0.2539
 2932TIP3    H130211   5.045   4.079  16.246 -0.4405 -0.8175  0.1643
 2932TIP3    H230212   4.922   4.095  16.333 -0.3503  3.1782 -0.2788
 2933TIP3   OH230213   2.022   1.271   2.653  0.1708 -0.2939  0.1579
 2933TIP3    H130214   1.959   1.271   2.581  0.7245 -1.4990 -0.3510
 2933TIP3    H230215   2.107   1.281   2.610  0.6782 -2.8624  0.4346
 2934TIP3   OH230216   1.728   1.884  13.873  0.2521 -0.2135  0.0927
 2934TIP3    H130217   1.710   1.873  13.966 -0.8029  0.3208 -0.0420
 2934TIP3    H230218   1.642   1.891  13.832  0.7120 -0.1496 -0.8885
 2935TIP3   OH230219   3.667   0.013  12.643  0.4861 -0.3068  0.1785
 2935TIP3    H130220   3.686   0.099  12.606  1.8316 -0.7576 -0.2750
 2935TIP3    H230221   3.573   0.001  12.631  0.5546  0.3972 -1.3191
 2936TIP3   OH230222   0.942   5.815  11.439  0.0096  0.0392 -0.2415
 2936TIP3    H130223   0.937   5.897  11.390  0.6315  0.9145  1.1020
 2936TIP3    H230224   0.865   5.817  11.496  0.0080 -0.3198 -0.2308
 2937TIP3   OH230225   1.834   5.045   3.444 -0.0990  0.0886  0.2974
 2937TIP3    H130226   1.890   5.118   3.471  0.6716 -0.1416 -0.6613
 2937TIP3    H230227   1.795   5.014   3.526 -0.0484  1.2439  0.7825
 2938TIP3   OH230228   5.381   3.301  11.816  0.3088 -0.0912  0.0636
 2938TIP3    H130229   5.354   3.224  11.767  1.1066 -0.3867  0.0816
 2938TIP3    H230230   5.302   3.329  11.862  0.2455 -1.5103  0.8842
 2939TIP3   OH230231   6.234   4.285  14.681 -0.2383  0.6531  0.4169
 2939TIP3    H130232   6.275   4.230  14.614 -2.8220 -1.1519  0.1866
 2939TIP3    H230233   6.216   4.225  14.753  0.1641  2.0265  1.7085
 2940TIP3   OH230234   5.268   0.643   1.181  0.4112 -0.1383 -0.0581
 2940TIP3    H130235   5.262   0.698   1.259  0.8915  0.8780 -0.7227
 2940TIP3    H230236   5.362   0.628   1.170  0.2530 -1.7167  0.5327
 2941TIP3   OH230237   1.523   1.738  14.852 -0.2252 -0.0382 -0.5279
 2941TIP3    H130238   1.455   1.772  14.794  0.7179  3.1597  0.0568
 2941TIP3    H230239   1.576   1.682  14.796 -0.5232  1.3170 -2.2689
 2942TIP3   OH230240   0.529   1.386  12.447 -0.2276 -0.1691 -0.7668
 2942TIP3    H130241   0.552   1.301  12.483  1.5464  0.6903  0.2727
 2942TIP3    H230242   0.472   1.426  12.513 -1.1642 -0.5712 -1.3124
 2943TIP3   OH230243   2.297   1.543   4.905 -0.2289 -0.4631 -0.1046
 2943TIP3    H130244   2.350   1.574   4.832 -0.2425 -0.7573 -0.2398
 2943TIP3    H230245   2.260   1.461   4.874 -0.5416 -0.3976  0.0910
 2944TIP3   OH230246   1.907   2.246   4.934  0.1990  0.5534  0.3091
 2944TIP3    H130247   1.924   2.318   4.995 -0.5433 -1.0848  2.5779
 2944TIP3    H230248   1.963   2.175   4.964 -2.9291 -1.5694  1.5884
 2945TIP3   OH230249   0.410   3.080  11.701 -0.0691  0.1164  0.7732
 2945TIP3    H130250   0.374   3.023  11.768  0.1915  0.6857  1.4134
 2945TIP3    H230251   0.344   3.082  11.632 -0.6280  0.0302  1.3003
 2946TIP3   OH230252   2.856   4.089   2.626  0.5977 -0.0516 -0.5247
 2946TIP3    H130253   2.845   4.090   2.531 -2.0155 -0.3750 -0.2949
 2946TIP3    H230254   2.810   4.167   2.656  0.7273 -0.3639  0.5371
 2947TIP3   OH230255   6.406   3.215  11.382 -0.5732  0.1310  0.5667
 2947TIP3    H130256   6.315   3.189  11.366 -0.3330 -0.2456 -0.2501
 2947TIP3    H230257   6.411   3.306  11.353 -0.3220 -0.3218 -0.8805
 2948TIP3   OH230258   6.355   2.299   5.396 -0.9647  0.0231 -0.1328
 2948TIP3    H130259   6.445   2.276   5.419 -0.7350  0.7315 -0.2936
 2948TIP3    H230260   6.308   2.216   5.394 -0.5679 -0.2438  1.0461
 2949TIP3   OH230261   6.170   4.125   0.754  0.8042 -0.0382  0.5507
 2949TIP3    H130262   6.187   4.173   0.835  0.3625  1.5026 -0.2444
 2949TIP3    H230263   6.176   4.190   0.685  1.1091 -1.3155 -0.6779
 2950TIP3   OH230264   5.214   0.789  12.581  0.3193  0.5061 -0.6990
 2950TIP3    H130265   5.201   0.850  12.654  0.1949  0.4533 -0.6778
 2950TIP3    H230266   5.131   0.791  12.533 -0.2515 -0.8265  0.1762
 2951TIP3   OH230267   1.135   6.012  13.578  0.3325  0.3024 -0.1527
 2951TIP3    H130268   1.102   6.101  13.587  0.9710  0.3973  1.7509
 2951TIP3    H230269   1.217   6.012  13.628  0.5269 -1.2488 -0.4284
 2952TIP3   OH230270   5.890   3.792  13.252  0.1194  0.9795  0.2247
 2952TIP3    H130271   5.821   3.804  13.318 -2.0326  0.3062 -1.7779
 2952TIP3    H230272   5.931   3.878  13.245 -0.6876  1.4838  1.2825
 2953TIP3   OH230273   1.484   2.090  15.555  0.3963 -0.1160 -0.3788
 2953TIP3    H130274   1.549   2.087  15.625  3.3066 -0.4047 -2.8689
 2953TIP3    H230275   1.434   2.170  15.573  2.5239  1.0544  0.8407
 2954TIP3   OH230276   1.299   1.181  14.357  0.0931 -0.4100 -0.0079
 2954TIP3    H130277   1.379   1.233  14.354 -0.3711  0.2752 -1.2422
 2954TIP3    H230278   1.236   1.236  14.402 -0.0388 -0.4332 -0.1638
 2955TIP3   OH230279   0.521   4.565  16.708 -0.4722  0.1436  1.0461
 2955TIP3    H130280   0.524   4.620  16.786  0.1734  1.7191 -0.0519
 2955TIP3    H230281   0.435   4.583  16.670 -0.0243  0.8827  0.3620
 2956TIP3   OH230282   0.785   0.075  15.713 -0.1606  0.2830  0.0707
 2956TIP3    H130283   0.729  -0.001  15.700 -0.2941  0.1930  1.1209
 2956TIP3    H230284   0.874   0.041  15.703 -0.2600  0.4463 -1.7063
 2957TIP3   OH230285   2.128   3.365   5.511 -0.5454  0.1014 -0.1165
 2957TIP3    H130286   2.128   3.296   5.445  0.8160 -0.3935  0.3643
 2957TIP3    H230287   2.035   3.381   5.529 -0.8915 -1.2924 -0.5411
 2958TIP3   OH230288   0.420   2.354   2.686  0.3397 -0.2460  0.4320
 2958TIP3    H130289   0.414   2.424   2.751  0.8497  0.1970  0.0172
 2958TIP3    H230290   0.366   2.384   2.614  0.0075 -0.6024  0.5327
 2959TIP3   OH230291   0.261   6.726  11.494  0.0254 -0.6591  0.1111
 2959TIP3    H130292   0.349   6.764  11.497 -0.2456  0.0844 -0.6266
 2959TIP3    H230293   0.208   6.785  11.548 -0.7237  1.0507 -2.2625
 2960TIP3   OH230294   1.007   2.508   5.222 -0.1417 -0.6542  0.7744
 2960TIP3    H130295   1.016   2.589   5.272 -1.4496 -0.4885  0.7763
 2960TIP3    H230296   0.969   2.446   5.284  0.1472 -1.0525  0.5578
 2961TIP3   OH230297   6.500   5.099   3.863  0.2883  0.3613  0.5056
 2961TIP3    H130298   6.547   5.016   3.863 -1.3147 -0.6289  2.1816
 2961TIP3    H230299   6.564   5.163   3.894  1.5823 -0.1742 -0.9281
 2962TIP3   OH230300   1.580   6.041  12.617  1.2222 -0.2916 -0.8554
 2962TIP3    H130301   1.601   6.096  12.541  0.4438  1.0046 -0.1521
 2962TIP3    H230302   1.495   6.002  12.595  1.3292 -0.4809 -0.9412
 2963TIP3   OH230303   2.407   6.407   5.969 -0.5449  0.0039  0.6191
 2963TIP3    H130304   2.332   6.430   6.024  0.6190 -0.7314  2.6543
 2963TIP3    H230305   2.464   6.357   6.028  1.8343  1.0736 -0.6442
 2964TIP3   OH230306   1.297   3.807  12.630 -0.4498 -0.5678  0.3939
 2964TIP3    H130307   1.272   3.851  12.712  0.7660  0.4017  0.2863
 2964TIP3    H230308   1.317   3.879  12.570  2.7435 -1.1547  0.5746
 2965TIP3   OH230309   2.136   1.976  11.503  0.4665  0.1258 -0.3009
 2965TIP3    H130310   2.185   1.996  11.423  1.8746 -0.9368  0.2508
 2965TIP3    H230311   2.202   1.980  11.573 -0.0455 -2.0495  0.3816
 2966TIP3   OH230312   4.456   4.630  15.715 -0.1349  0.5894 -0.5598
 2966TIP3    H130313   4.371   4.640  15.758 -0.2722  0.3604 -0.7765
 2966TIP3    H230314   4.482   4.719  15.694  0.3314  0.7796  0.7544
 2967TIP3   OH230315   6.268   2.903  11.198  0.5443 -0.9587 -0.1939
 2967TIP3    H130316   6.246   2.822  11.245 -0.3097 -0.3406  0.5230
 2967TIP3    H230317   6.312   2.956  11.264  0.6683 -0.6523 -0.5252
 2968TIP3   OH230318   3.595   3.038  15.431 -0.2644 -0.1130  0.0999
 2968TIP3    H130319   3.506   3.037  15.466  0.1260 -1.7494  1.1630
 2968TIP3    H230320   3.634   3.117  15.466 -1.8946  1.8033 -2.0996
 2969TIP3   OH230321   5.911   1.030   4.799  0.1797  0.2311  0.8450
 2969TIP3    H130322   5.909   0.997   4.889  1.1980  0.6984  1.0589
 2969TIP3    H230323   6.000   1.065   4.789  0.5907 -1.1617 -0.8230
 2970TIP3   OH230324   2.194   2.858   2.768  0.0802  0.2123 -0.1145
 2970TIP3    H130325   2.182   2.809   2.686 -0.3109  0.4341 -0.1920
 2970TIP3    H230326   2.282   2.834   2.797 -0.1147 -0.5607 -0.1380
 2971TIP3   OH230327   1.935   3.756  12.929  0.3427  0.0969  0.3354
 2971TIP3    H130328   1.868   3.812  12.888  1.5806  0.8930 -0.6746
 2971TIP3    H230329   2.002   3.817  12.960  0.6477 -0.6904  1.2859
 2972TIP3   OH230330   4.737   4.398   3.213 -0.7304 -0.3488  0.6985
 2972TIP3    H130331   4.823   4.366   3.242 -0.1721  2.0391  1.9265
 2972TIP3    H230332   4.685   4.403   3.292 -1.3981 -0.0280  0.2452
 2973TIP3   OH230333   3.420   2.852   2.623 -0.2089  0.2324 -0.0167
 2973TIP3    H130334   3.483   2.909   2.579 -0.1082  0.0489 -0.1119
 2973TIP3    H230335   3.385   2.905   2.694 -0.7594  0.7052 -0.6398
 2974TIP3   OH230336   2.419   5.895   1.771  0.0286 -0.2082 -0.7442
 2974TIP3    H130337   2.488   5.843   1.731 -0.0798  0.6473 -2.1177
 2974TIP3    H230338   2.358   5.831   1.808  2.2253 -0.9782  1.8316
 2975TIP3   OH230339   3.910   5.934   6.140 -0.4714  0.2425 -0.2230
 2975TIP3    H130340   3.956   5.900   6.216 -0.0182  0.5706 -0.3469
 2975TIP3    H230341   3.818   5.940   6.168 -0.0956  1.7695  0.8088
 2976TIP3   OH230342   2.145   3.559   2.406  0.0562 -0.0345 -0.4536
 2976TIP3    H130343   2.228   3.553   2.357  0.1094 -1.0827 -0.2482
 2976TIP3    H230344   2.156   3.499   2.480 -1.2019 -0.8343 -0.8857
 2977TIP3   OH230345   0.100   1.689   2.002  0.3144 -0.0116 -0.6205
 2977TIP3    H130346   0.094   1.749   1.927  1.2319  0.4996 -0.3013
 2977TIP3    H230347   0.091   1.602   1.965 -0.5381  0.2881 -1.1581
 2978TIP3   OH230348   6.443   2.279   4.827  0.3413 -0.2812  0.1031
 2978TIP3    H130349   6.509   2.216   4.798 -0.2772 -0.7886 -0.1973
 2978TIP3    H230350   6.362   2.229   4.833  0.1432  0.1433  1.2933
 2979TIP3   OH230351   2.527   3.507   3.030  0.7029 -0.0160 -0.3407
 2979TIP3    H130352   2.477   3.450   2.971  0.7063  0.1312 -0.4857
 2979TIP3    H230353   2.517   3.466   3.116  1.6301 -0.8705 -0.6211
 2980TIP3   OH230354   6.746   5.296  13.264  0.0737 -0.2672 -0.0549
 2980TIP3    H130355   6.733   5.204  13.242 -1.1747 -0.4520  1.2520
 2980TIP3    H230356   6.658   5.328  13.286  0.1701  1.7522 -2.1868
 2981TIP3   OH230357   6.141   0.443  16.271 -0.7711  0.3864 -0.3954
 2981TIP3    H130358   6.092   0.503  16.214  0.6336  0.8478 -1.1675
 2981TIP3    H230359   6.144   0.488  16.355  1.0400  1.9172 -1.1964
 2982TIP3   OH230360   2.683   2.582  17.043 -0.6181 -0.7278 -0.0073
 2982TIP3    H130361   2.725   2.504  17.008 -0.3821 -0.1686 -1.0238
 2982TIP3    H230362   2.737   2.608  17.117  0.6724 -0.2105 -1.0911
 2983TIP3   OH230363   6.607   6.268  15.844 -0.4222  0.3057 -0.0163
 2983TIP3    H130364   6.570   6.183  15.867 -1.2900  0.2558 -1.4424
 2983TIP3    H230365   6.654   6.252  15.762  2.4258  0.4919  1.4350
 2984TIP3   OH230366   1.907   1.110   5.564  0.2324  0.2499  0.6481
 2984TIP3    H130367   1.999   1.094   5.544 -0.3005 -1.6172 -0.6044
 2984TIP3    H230368   1.908   1.182   5.626  2.4970  0.6910  0.1859
 2985TIP3   OH230369   1.150   0.876   4.902 -0.0506 -0.0960 -0.2553
 2985TIP3    H130370   1.073   0.820   4.894  0.2487 -0.3912 -1.2698
 2985TIP3    H230371   1.222   0.815   4.921  0.7629 -0.5036 -3.8664
 2986TIP3   OH230372   3.292   6.472  15.714 -0.2466 -0.1633  0.0035
 2986TIP3    H130373   3.237   6.548  15.697 -0.2472  0.0657  1.0001
 2986TIP3    H230374   3.380   6.501  15.690 -0.5110 -0.4917 -1.4771
 2987TIP3   OH230375   3.984   6.111   3.788  0.0335 -0.3108 -0.2458
 2987TIP3    H130376   3.910   6.060   3.820  0.2356 -0.7543 -0.4769
 2987TIP3    H230377   4.037   6.049   3.739  1.2333 -0.3000  0.9826
 2988TIP3   OH230378   4.536   3.579   4.243  0.3925 -0.3705  0.3475
 2988TIP3    H130379   4.519   3.597   4.150  2.2343 -0.2263  0.0017
 2988TIP3    H230380   4.463   3.621   4.289 -0.1988  0.1280 -0.9843
 2989TIP3   OH230381   0.245   1.295  15.367 -0.1070 -0.7499 -0.2361
 2989TIP3    H130382   0.312   1.360  15.349  0.3179 -1.3078 -0.6731
 2989TIP3    H230383   0.229   1.303  15.461 -0.6833  0.5729 -0.4152
 2990TIP3   OH230384   3.263   5.543   5.490  0.2524  0.1023  0.0958
 2990TIP3    H130385   3.176   5.512   5.465  1.1164 -3.9678  1.5164
 2990TIP3    H230386   3.250   5.590   5.572 -0.6289 -0.1704  0.1144
 2991TIP3   OH230387   6.764   1.146  16.442  0.4155 -0.2056  0.0680
 2991TIP3    H130388   6.671   1.166  16.458  0.3933  0.0904 -0.3924
 2991TIP3    H230389   6.762   1.067  16.387  0.4282 -0.0671 -0.1319
 2992TIP3   OH230390   1.576   6.016  15.534 -0.3625 -0.5450  0.4001
 2992TIP3    H130391   1.484   6.000  15.517 -0.9405  1.6192  1.1835
 2992TIP3    H230392   1.581   6.108  15.558  2.1016 -0.4117 -0.2594
 2993TIP3   OH230393   4.383   1.518  14.321  0.2503  0.3744 -0.5682
 2993TIP3    H130394   4.356   1.450  14.382  0.5395  0.9798  0.2502
 2993TIP3    H230395   4.426   1.471  14.249 -0.7097 -0.3929 -0.6524
 2994TIP3   OH230396   4.037   5.061  16.818 -0.4234 -0.3250  0.1153
 2994TIP3    H130397   4.129   5.077  16.800 -0.8282  2.6099  0.2134
 2994TIP3    H230398   4.031   5.057  16.914 -0.2751 -1.5921  0.0846
 2995TIP3   OH230399   4.843   5.588   2.946 -0.8435  1.0168 -0.1223
 2995TIP3    H130400   4.756   5.562   2.973 -1.1927  1.3934 -0.8489
 2995TIP3    H230401   4.833   5.616   2.855  0.1653  0.3872 -0.4536
 2996TIP3   OH230402   0.118   6.110  15.338 -0.4880 -0.5612  0.0718
 2996TIP3    H130403   0.150   6.092  15.427  0.0683  1.5066  0.3511
 2996TIP3    H230404   0.196   6.137  15.290 -1.4760  5.0304  0.8703
 2997TIP3   OH230405   1.273   0.288   5.033  0.0080  0.0381 -0.1753
 2997TIP3    H130406   1.302   0.247   4.952  2.3635 -0.0954  0.6721
 2997TIP3    H230407   1.251   0.216   5.091  1.2634  0.0189  0.3023
 2998TIP3   OH230408   1.008   3.506   0.708  0.1953  0.0712 -0.0607
 2998TIP3    H130409   1.070   3.579   0.712  1.3054 -0.5949 -2.8013
 2998TIP3    H230410   0.923   3.549   0.695  0.2768  0.9348  1.9478
 2999TIP3   OH230411   2.119   2.943   3.390 -0.0718  0.0366 -0.0229
 2999TIP3    H130412   2.118   2.859   3.344 -0.3933 -0.1793  0.3628
 2999TIP3    H230413   2.196   2.939   3.446 -0.1905 -0.0858  0.1354
 3000TIP3   OH230414   5.810   5.666   2.241 -0.4275  0.0261 -0.5831
 3000TIP3    H130415   5.836   5.724   2.170  0.9860  0.7465  0.4571
 3000TIP3    H230416   5.893   5.638   2.281 -1.1700 -0.1371  0.9395
 3001TIP3   OH230417   0.572   1.923   3.576 -0.2978  0.5780  0.2210
 3001TIP3    H130418   0.620   1.890   3.500 -2.2334  0.4180 -1.0061
 3001TIP3    H230419   0.639   1.938   3.642  1.1124 -2.7749 -0.2356
 3002TIP3   OH230420   4.618   5.215   3.794 -0.8243  0.0104 -0.4283
 3002TIP3    H130421   4.632   5.276   3.866 -2.4838 -0.2829  0.1727
 3002TIP3    H230422   4.621   5.270   3.715 -1.4244  0.7265  0.0436
 3003TIP3   OH230423   5.254   1.036  15.724  0.0151  0.0950  0.3871
 3003TIP3    H130424   5.197   1.107  15.752 -0.4647 -0.3379  0.5100
 3003TIP3    H230425   5.299   1.071  15.647 -0.9572  0.1859 -0.1572
 3004TIP3   OH230426   6.271   5.520   0.957 -0.1292  0.0541 -0.4700
 3004TIP3    H130427   6.212   5.583   0.915 -1.1904 -0.8711 -0.3907
 3004TIP3    H230428   6.265   5.541   1.050 -1.1254 -0.6965 -0.3615
 3005TIP3   OH230429   1.332   3.892   2.454 -0.3500 -0.0032 -0.1910
 3005TIP3    H130430   1.357   3.868   2.365  0.0810 -0.5004  0.0542
 3005TIP3    H230431   1.382   3.972   2.472 -0.3260  0.0163 -0.3434
 3006TIP3   OH230432   3.293   0.257   5.726  0.1321 -0.2369  0.5121
 3006TIP3    H130433   3.307   0.281   5.634  1.9336 -3.2585 -0.1708
 3006TIP3    H230434   3.356   0.310   5.775 -0.1795  0.7196 -0.1027
 3007TIP3   OH230435   4.713   2.767   1.767  0.0193  0.3866 -0.6452
 3007TIP3    H130436   4.631   2.798   1.727 -0.2349 -0.0456 -0.4669
 3007TIP3    H230437   4.696   2.768   1.861  0.5676  1.2522 -0.5457
 3008TIP3   OH230438   5.933   2.123   1.236 -0.3302  0.3815 -0.0292
 3008TIP3    H130439   5.984   2.077   1.304  0.1085  0.6574 -0.1719
 3008TIP3    H230440   5.850   2.074   1.232 -0.4318  0.4678  0.8292
 3009TIP3   OH230441   3.913   3.890  13.987 -0.6752  0.3098 -0.8701
 3009TIP3    H130442   3.852   3.964  13.994 -1.2268 -0.1658 -0.5448
 3009TIP3    H230443   3.961   3.906  13.905 -0.6340  1.1376 -0.6939
 3010TIP3   OH230444   3.012   2.623   4.361  0.0064  0.0200 -0.2641
 3010TIP3    H130445   3.094   2.584   4.392  0.8624  0.9924 -1.2292
 3010TIP3    H230446   3.011   2.605   4.267 -0.2810  1.0793 -0.4732
 3011TIP3   OH230447   0.461   1.634   5.019 -0.2197 -0.0398  0.1454
 3011TIP3    H130448   0.449   1.694   4.945  1.3737  0.3333  0.1438
 3011TIP3    H230449   0.418   1.553   4.992 -1.8809  0.8960 -0.1118
 3012TIP3   OH230450   0.044   3.314   4.815  0.5451 -0.4560  0.1456
 3012TIP3    H130451   0.065   3.286   4.726  0.0372 -0.3515 -0.0097
 3012TIP3    H230452   0.126   3.302   4.863  0.8147 -0.5508 -0.3240
 3013TIP3   OH230453   0.180   2.114   3.677  0.1853  0.0034  0.5600
 3013TIP3    H130454   0.234   2.142   3.751  0.1493  1.3335  0.1039
 3013TIP3    H230455   0.100   2.165   3.685 -0.0913 -0.3294 -0.0388
 3014TIP3   OH230456   0.161   3.318   2.671  0.4540 -0.2732  0.6491
 3014TIP3    H130457   0.203   3.397   2.704 -0.6117  1.0531 -0.9816
 3014TIP3    H230458   0.214   3.246   2.705  4.0613  1.2410 -1.2702
 3015TIP3   OH230459   2.265   2.524  11.938 -0.7339  0.0061 -0.2081
 3015TIP3    H130460   2.202   2.477  11.884  0.4869 -2.8309  0.6538
 3015TIP3    H230461   2.228   2.524  12.026 -1.1075  1.5158 -0.3327
 3016TIP3   OH230462   1.942   0.290   3.327  0.2009 -0.5675  0.6202
 3016TIP3    H130463   1.989   0.269   3.407 -0.2643  0.6674  1.2402
 3016TIP3    H230464   1.904   0.207   3.299  1.3554 -1.2496  1.0075
 3017TIP3   OH230465   1.324   1.489  13.915 -0.0487 -0.6226 -0.4689
 3017TIP3    H130466   1.312   1.402  13.877  0.9279 -0.5262 -1.0307
 3017TIP3    H230467   1.396   1.527  13.865  1.0110 -0.3228  1.1994
 3018TIP3   OH230468   0.347   1.152   5.884 -0.1128 -0.3325 -0.5045
 3018TIP3    H130469   0.312   1.078   5.835  1.1200 -0.3039 -1.4704
 3018TIP3    H230470   0.430   1.120   5.919 -0.1358  0.2226  0.0724
 3019TIP3   OH230471   5.923   1.715   4.138  0.0283  0.0764  0.1476
 3019TIP3    H130472   5.894   1.789   4.191  0.6130 -0.2663  0.9580
 3019TIP3    H230473   5.846   1.692   4.087  0.2773  2.2783 -1.3750
 3020TIP3   OH230474   0.075   2.702   0.611 -0.0672  0.0575 -0.0692
 3020TIP3    H130475   0.100   2.621   0.567 -2.5683 -1.5600  1.2243
 3020TIP3    H230476   0.108   2.691   0.701 -0.2057  0.5746  0.0462
 3021TIP3   OH230477   4.898   6.295  10.406 -0.5733  0.4970 -0.1765
 3021TIP3    H130478   4.883   6.200  10.400 -0.0940  0.4400 -0.5048
 3021TIP3    H230479   4.961   6.304  10.477 -0.6657  0.5721 -0.1050
 3022TIP3   OH230480   5.938   2.878   0.551 -0.6452 -0.1019  0.2503
 3022TIP3    H130481   5.912   2.827   0.627  2.0229 -2.7598 -0.4448
 3022TIP3    H230482   5.892   2.837   0.478 -0.5168  0.2063 -0.0055
 3023TIP3   OH230483   3.962   4.064   6.295  1.0571  0.2901  0.2076
 3023TIP3    H130484   3.895   4.057   6.364 -1.8621 -0.0808 -2.4519
 3023TIP3    H230485   3.993   4.155   6.301  1.3016  0.1177  2.2946
 3024TIP3   OH230486   2.807   5.241   2.001  0.3069  1.1809 -0.1514
 3024TIP3    H130487   2.724   5.197   1.981  1.0212 -1.0846  1.3482
 3024TIP3    H230488   2.784   5.308   2.065 -0.1917 -1.0514  2.1868
 3025TIP3   OH230489   4.474   2.684   1.256  0.2346 -0.5760  0.1751
 3025TIP3    H130490   4.564   2.717   1.256 -0.2580  0.8441 -0.6354
 3025TIP3    H230491   4.448   2.684   1.164 -0.3039 -1.8654  0.2956
 3026TIP3   OH230492   2.053   4.081  12.716  0.0890 -0.0195 -0.4528
 3026TIP3    H130493   2.096   4.159  12.680 -0.0548  1.4244  2.2468
 3026TIP3    H230494   1.961   4.093  12.695  0.3167 -0.7329 -2.0860
 3027TIP3   OH230495   1.023   1.808   2.146  0.3352  0.6379  0.6341
 3027TIP3    H130496   1.009   1.902   2.151 -0.9627  0.4322  1.3348
 3027TIP3    H230497   1.022   1.779   2.238 -2.4032 -0.4445  0.3463
 3028TIP3   OH230498   1.165   5.366  15.912 -0.2471 -0.6522  0.3470
 3028TIP3    H130499   1.094   5.401  15.966 -2.0699 -1.0708 -1.6591
 3028TIP3    H230500   1.152   5.271  15.915 -0.9930 -0.6514 -1.5345
 3029TIP3   OH230501   3.513   3.893  17.080 -0.0661  0.2510 -0.7103
 3029TIP3    H130502   3.438   3.879  17.138  1.6055  0.0671  1.5445
 3029TIP3    H230503   3.589   3.863  17.130  1.4434 -0.7531 -3.3566
 3030TIP3   OH230504   6.212   1.476   0.891 -0.5760  0.1911 -0.1421
 3030TIP3    H130505   6.284   1.413   0.889 -0.3826  0.4011  0.1366
 3030TIP3    H230506   6.152   1.442   0.957 -1.1837 -0.4654 -1.0050
 3031TIP3   OH230507   1.032   1.938   0.869 -0.2495 -0.8787 -0.4978
 3031TIP3    H130508   1.067   1.956   0.782 -1.3802 -0.4883 -0.8891
 3031TIP3    H230509   1.087   1.868   0.903  1.0429 -0.1366 -0.9860
 3032TIP3   OH230510   6.593   6.542  17.184  0.3914 -0.3985  0.2723
 3032TIP3    H130511   6.529   6.589  17.130 -0.1742 -1.0120  0.4044
 3032TIP3    H230512   6.541   6.502  17.253  1.1195  0.4960  1.3816
 3033TIP3   OH230513   1.277   1.034   3.883  0.7685  0.0489  0.0497
 3033TIP3    H130514   1.269   1.060   3.791 -0.1552 -1.4955 -0.3269
 3033TIP3    H230515   1.191   1.053   3.921  0.0163 -2.4383 -0.2685
 3034TIP3   OH230516   2.549   2.341  12.727 -0.1870 -0.2913 -0.3658
 3034TIP3    H130517   2.526   2.272  12.664  1.9673 -0.9645 -0.4866
 3034TIP3    H230518   2.539   2.423  12.677 -0.9766 -0.6260 -0.7790
 3035TIP3   OH230519   1.433   4.563   3.214 -0.6410  0.6649  0.2364
 3035TIP3    H130520   1.373   4.622   3.261  0.2043  1.8058 -0.0753
 3035TIP3    H230521   1.519   4.601   3.228 -0.1858  0.0588 -0.8409
 3036TIP3   OH230522   3.358   0.210   2.948  0.9175 -0.3348  0.5394
 3036TIP3    H130523   3.382   0.117   2.940  0.2738 -0.4877  0.3070
 3036TIP3    H230524   3.390   0.236   3.035  1.8517 -0.5420  0.2656
 3037TIP3   OH230525   6.250   4.471   1.846  0.1754  0.5479  0.4972
 3037TIP3    H130526   6.175   4.414   1.833  1.6359 -1.6287  1.1077
 3037TIP3    H230527   6.266   4.471   1.940 -0.2580  2.6784  0.6286
 3038TIP3   OH230528   1.404   5.276  14.738 -0.4098  0.2475 -0.0636
 3038TIP3    H130529   1.333   5.331  14.772 -1.4680 -0.1982 -1.4574
 3038TIP3    H230530   1.481   5.332  14.741 -0.8298  0.8076  1.3179
 3039TIP3   OH230531   0.525   1.433  16.321  0.1216 -0.1745  0.3957
 3039TIP3    H130532   0.515   1.524  16.292  2.2323 -0.2896 -0.8464
 3039TIP3    H230533   0.534   1.440  16.416  0.3186  0.9356  0.3150
 3040TIP3   OH230534   1.142   6.485  12.108  0.4397  0.0147  0.7613
 3040TIP3    H130535   1.220   6.474  12.163  0.7247  1.5154  0.6767
 3040TIP3    H230536   1.170   6.458  12.021 -0.0921 -2.6582  1.3234
 3041TIP3   OH230537   4.357   5.920  12.351  0.5217 -0.4975  0.2680
 3041TIP3    H130538   4.431   5.869  12.383  1.3432  0.7643  0.4409
 3041TIP3    H230539   4.396   5.992  12.301 -0.6720 -1.2699 -1.9224
 3042TIP3   OH230540   3.960   3.402   4.333 -0.3577  0.3223 -0.1987
 3042TIP3    H130541   3.930   3.492   4.320 -0.2284  0.2303 -1.2480
 3042TIP3    H230542   3.921   3.353   4.261  0.3993 -0.2586 -0.2314
 3043TIP3   OH230543   6.606   4.611  13.310 -0.2885 -0.4882 -0.7531
 3043TIP3    H130544   6.526   4.560  13.326 -2.0557  1.4202 -2.9445
 3043TIP3    H230545   6.585   4.699  13.341  1.1924 -0.0649 -0.8777
 3044TIP3   OH230546   3.803   6.641   4.450 -0.1391  0.0388 -0.5519
 3044TIP3    H130547   3.799   6.593   4.367 -0.3998 -1.8465  0.4748
 3044TIP3    H230548   3.829   6.730   4.426  1.1103 -0.7938 -2.5194
 3045TIP3   OH230549   0.447   1.364   4.348 -0.1249 -0.4235 -0.1157
 3045TIP3    H130550   0.409   1.424   4.284 -1.1189 -0.2052  0.6610
 3045TIP3    H230551   0.453   1.280   4.302  1.3595  0.2469 -1.2410
 3046TIP3   OH230552   5.930   2.941  16.009  0.1656  0.7353  0.2561
 3046TIP3    H130553   5.995   2.979  16.068  0.0798  0.6713  0.3922
 3046TIP3    H230554   5.971   2.861  15.977  0.4132  1.0204 -0.1563
 3047TIP3   OH230555   0.114   6.021  13.035 -0.6272  0.0170  0.2525
 3047TIP3    H130556   0.114   5.959  12.962  2.1888  1.3540 -1.0198
 3047TIP3    H230557   0.042   6.081  13.016 -1.1939 -0.8132 -0.3147
 3048TIP3   OH230558   5.406   5.566  11.075  0.1182  0.1112 -0.1543
 3048TIP3    H130559   5.455   5.537  10.998 -0.2894  0.5009 -0.5690
 3048TIP3    H230560   5.456   5.641  11.109 -0.5731  0.9726 -1.0088
 3049TIP3   OH230561   0.402   2.776   1.221  0.2540  0.1722  0.2433
 3049TIP3    H130562   0.327   2.716   1.221  0.7131 -0.4328 -1.0475
 3049TIP3    H230563   0.386   2.834   1.296 -0.7574 -0.8653  0.8654
 3050TIP3   OH230564   2.235   4.712  14.236  0.3228 -0.0526 -0.5448
 3050TIP3    H130565   2.254   4.633  14.287 -0.1352 -0.3389 -0.8048
 3050TIP3    H230566   2.317   4.731  14.191  0.6106 -0.0302 -0.0115
 3051TIP3   OH230567   6.272   1.165   2.878 -0.0110  0.1069 -0.3455
 3051TIP3    H130568   6.228   1.163   2.963 -0.9117 -1.0715 -0.8112
 3051TIP3    H230569   6.303   1.255   2.869  0.1944  0.2233  1.2692
 3052TIP3   OH230570   2.979   6.107  12.472  0.0446 -0.7143  0.6171
 3052TIP3    H130571   2.884   6.103  12.463  0.1724 -1.2262 -0.6930
 3052TIP3    H230572   3.004   6.020  12.503 -0.0932  0.1138  3.3083
 3053TIP3   OH230573   0.894   5.332  10.122  0.0675  0.1995 -0.5895
 3053TIP3    H130574   0.940   5.331  10.205 -0.7637 -1.3879 -0.1060
 3053TIP3    H230575   0.943   5.272  10.066 -0.4515 -0.2152 -0.6099
 3054TIP3   OH230576   4.982   2.208  16.901  0.2162 -0.6468 -0.3692
 3054TIP3    H130577   4.981   2.166  16.986  1.0849 -1.4220 -0.7231
 3054TIP3    H230578   4.977   2.302  16.920 -0.3759 -0.8487  0.4915
 3055TIP3   OH230579   0.756   2.206  12.198 -0.2038  0.5187  0.2012
 3055TIP3    H130580   0.835   2.200  12.251 -0.3118 -0.5151  0.2532
 3055TIP3    H230581   0.685   2.178  12.256 -0.2865 -0.9176 -0.5583
 3056TIP3   OH230582   6.632   4.600   3.721 -0.2200 -0.3149  0.0717
 3056TIP3    H130583   6.628   4.678   3.667  1.1192 -0.2703  0.0148
 3056TIP3    H230584   6.543   4.590   3.754 -1.0337 -0.2570 -1.9815
 3057TIP3   OH230585   5.264   1.615  14.649 -0.0690 -0.1215 -0.0874
 3057TIP3    H130586   5.197   1.548  14.636 -1.4888  0.5921  2.6361
 3057TIP3    H230587   5.242   1.684  14.586  1.8345 -2.3023 -3.4425
 3058TIP3   OH230588   3.482   0.552  14.662 -0.6132 -0.1874 -0.4201
 3058TIP3    H130589   3.474   0.601  14.744  1.4269  1.3413 -1.0550
 3058TIP3    H230590   3.484   0.460  14.690  1.7655  0.3400  1.5271
 3059TIP3   OH230591   0.483   2.205   1.503 -0.6191 -0.7701  0.8656
 3059TIP3    H130592   0.560   2.165   1.543 -0.6052 -2.0569 -0.3367
 3059TIP3    H230593   0.462   2.146   1.430 -0.5848  1.4907 -1.0641
 3060TIP3   OH230594   1.923   3.424  15.325 -0.1557 -0.2535 -0.0671
 3060TIP3    H130595   1.842   3.455  15.365  0.1714 -0.1048  0.4824
 3060TIP3    H230596   1.992   3.476  15.366  0.2324 -0.4810 -0.4244
 3061TIP3   OH230597   5.348   3.396  15.073 -0.7710 -0.2061  0.5047
 3061TIP3    H130598   5.277   3.340  15.041 -0.9880  0.5720 -0.4078
 3061TIP3    H230599   5.305   3.456  15.134 -1.1174  0.9379 -0.8212
 3062TIP3   OH230600   5.543   5.750   2.370 -0.3655 -0.3743  0.3279
 3062TIP3    H130601   5.570   5.682   2.432 -2.2285 -0.5249  1.0261
 3062TIP3    H230602   5.601   5.738   2.294  1.3988 -0.7285  1.6592
 3063TIP3   OH230603   0.386   4.284   3.185 -0.1543 -0.2222 -0.4304
 3063TIP3    H130604   0.312   4.322   3.138  0.7319  1.4392 -0.5388
 3063TIP3    H230605   0.401   4.199   3.143  1.2097  1.5641 -3.8495
 3064TIP3   OH230606   4.164   5.696  10.418 -0.3737  0.3812 -0.1623
 3064TIP3    H130607   4.099   5.631  10.391  1.2894 -2.0413  1.2921
 3064TIP3    H230608   4.128   5.734  10.498 -0.2513 -0.5976  0.3688
 3065TIP3   OH230609   0.055   4.972   4.162 -0.8123 -0.5923 -0.6936
 3065TIP3    H130610  -0.016   4.922   4.202 -1.7836  1.7415  0.7287
 3065TIP3    H230611   0.024   5.063   4.162  1.9951  0.4936 -0.3763
 3066TIP3   OH230612   6.414   0.061   1.449 -0.6783 -0.4348 -0.4846
 3066TIP3    H130613   6.361   0.135   1.421  1.8143  2.0204  0.8302
 3066TIP3    H230614   6.504   0.085   1.428  0.2751 -3.0576  0.1028
 3067TIP3   OH230615   1.685   4.133   0.071  0.0465 -0.0586  0.1447
 3067TIP3    H130616   1.622   4.108   0.003 -0.5488  1.7823 -0.0198
 3067TIP3    H230617   1.633   4.178   0.137  0.9265 -0.1142  0.8983
 3068TIP3   OH230618   4.695   1.009  14.928  0.0809 -0.1015  0.0926
 3068TIP3    H130619   4.743   0.970  15.000  2.8050  2.1318 -0.3050
 3068TIP3    H230620   4.733   0.969  14.849  1.4719  1.6508 -0.2219
 3069TIP3   OH230621   1.812   1.623   0.216 -0.4722  0.4778 -0.4382
 3069TIP3    H130622   1.843   1.710   0.242 -0.2615 -0.0464  1.2203
 3069TIP3    H230623   1.725   1.616   0.254 -0.4298 -0.0877 -0.4259
 3070TIP3   OH230624   6.709   0.662  13.157  0.9764  0.2082 -0.6865
 3070TIP3    H130625   6.796   0.626  13.140  1.3421  1.2515 -1.1197
 3070TIP3    H230626   6.722   0.757  13.156 -0.1509  0.3760 -0.6779
 3071TIP3   OH230627   4.092   3.884  10.811  0.0517 -0.1124 -0.5422
 3071TIP3    H130628   4.075   3.977  10.800  1.0363  0.4267  1.8205
 3071TIP3    H230629   4.005   3.845  10.825 -0.2009  0.9187  1.0485
 3072TIP3   OH230630   2.404   3.416  14.532  0.2009  0.2263 -0.6016
 3072TIP3    H130631   2.455   3.492  14.562 -0.0276  0.7299 -1.4722
 3072TIP3    H230632   2.313   3.446  14.534 -0.2268 -0.9947  1.9432
 3073TIP3   OH230633   1.588   2.467   1.510 -0.0085 -0.3088  0.0752
 3073TIP3    H130634   1.541   2.466   1.427 -0.2011  1.6889  0.1273
 3073TIP3    H230635   1.644   2.544   1.506  0.6420 -0.6720  1.4508
 3074TIP3   OH230636   5.431   1.275   1.142  0.3078  0.1539 -0.6259
 3074TIP3    H130637   5.420   1.226   1.224 -0.6113  1.3091 -0.0234
 3074TIP3    H230638   5.391   1.360   1.160 -0.7481  0.1162 -2.5863
 3075TIP3   OH230639   1.105   1.732   1.748 -0.0531  0.2587 -0.4753
 3075TIP3    H130640   1.066   1.818   1.762  1.2912  0.7907  0.1702
 3075TIP3    H230641   1.188   1.751   1.704  1.2363 -0.5094  1.4866
 3076TIP3   OH230642   6.325   5.704   2.896 -0.2535 -0.0555 -0.3199
 3076TIP3    H130643   6.345   5.649   2.821 -2.3689 -2.2704  0.6167
 3076TIP3    H230644   6.254   5.760   2.866 -1.6615 -1.5056  0.1932
 3077TIP3   OH230645   2.828   1.592   2.933  0.1605  0.1476 -0.0355
 3077TIP3    H130646   2.742   1.629   2.956  0.2024  0.8745 -1.0043
 3077TIP3    H230647   2.891   1.659   2.961  0.4860 -0.6952  1.3459
 3078TIP3   OH230648   5.454   1.574   0.158  0.3656 -0.0780 -0.0289
 3078TIP3    H130649   5.529   1.628   0.130  0.4682 -0.2339 -0.0586
 3078TIP3    H230650   5.387   1.637   0.183  1.0442  0.0848  1.4897
 3079TIP3   OH230651   0.234   0.703  14.142  0.4061 -0.3648  0.0427
 3079TIP3    H130652   0.242   0.754  14.061  0.9632 -0.0149  0.3095
 3079TIP3    H230653   0.234   0.769  14.211 -0.2596 -0.6479  0.3248
 3080TIP3   OH230654   6.569   1.795   0.140 -0.0398 -0.2304  0.2294
 3080TIP3    H130655   6.650   1.767   0.098  0.5939  0.1290  1.1910
 3080TIP3    H230656   6.577   1.890   0.147 -0.2734 -0.2544  0.8668
 3081TIP3   OH230657   6.147   4.678  14.244  0.4186  0.3841  0.1284
 3081TIP3    H130658   6.232   4.638  14.226  1.2967  1.1320  2.2468
 3081TIP3    H230659   6.120   4.717  14.161  2.0196 -0.1090 -0.6572
 3082TIP3   OH230660   1.865   3.190   0.140 -0.4489  0.5177 -0.3412
 3082TIP3    H130661   1.821   3.260   0.188  0.4648 -0.3631  1.9247
 3082TIP3    H230662   1.958   3.214   0.143 -0.2979  0.0128 -0.9386
 3083TIP3   OH230663   3.252   5.996  15.622  0.0345 -0.0060 -0.0951
 3083TIP3    H130664   3.315   5.963  15.686 -0.7939  0.9313  1.2584
 3083TIP3    H230665   3.235   6.086  15.650  0.4584  0.8159 -2.2856
 3084TIP3   OH230666   4.999   0.618   5.705 -0.3689  0.2967  0.4312
 3084TIP3    H130667   5.012   0.571   5.787  1.9454 -0.4299 -0.2612
 3084TIP3    H230668   4.916   0.585   5.671  1.3684 -3.9357 -0.3085
 3085TIP3   OH230669   0.735   0.730   4.626  0.3668 -0.5289 -0.3672
 3085TIP3    H130670   0.686   0.756   4.548  0.2954 -0.3806 -0.2730
 3085TIP3    H230671   0.788   0.806   4.648 -0.4884 -0.1306  0.4121
 3086TIP3   OH230672   3.072   4.149  15.128  0.2055 -0.1781 -0.2211
 3086TIP3    H130673   3.026   4.119  15.050  1.3803  1.1587 -1.4978
 3086TIP3    H230674   3.026   4.230  15.154  0.4884 -0.0229 -0.1955
 3087TIP3   OH230675   3.527   4.720  12.213 -0.1953  0.4697  0.1968
 3087TIP3    H130676   3.458   4.773  12.254 -0.9938  0.7615 -1.4511
 3087TIP3    H230677   3.561   4.666  12.284 -2.7959 -0.4135  0.8567
 3088TIP3   OH230678   0.392   1.919   5.823 -0.4551 -0.8078  0.2213
 3088TIP3    H130679   0.363   1.917   5.732 -1.0014  2.0337  0.2446
 3088TIP3    H230680   0.481   1.955   5.819 -0.3376 -1.0275  0.7740
 3089TIP3   OH230681   3.721   4.138  15.269  0.6461  0.2410 -0.3876
 3089TIP3    H130682   3.788   4.154  15.335  1.5066  0.3921 -1.2759
 3089TIP3    H230683   3.655   4.205  15.284  1.2650  0.8189 -0.2249
 3090TIP3   OH230684   5.594   0.914   3.539  0.2525  0.4846 -0.6347
 3090TIP3    H130685   5.673   0.860   3.538 -0.0381  0.0456 -0.1323
 3090TIP3    H230686   5.535   0.869   3.598 -0.4670  0.6856 -1.1842
 3091TIP3   OH230687   5.754   4.898   0.571 -0.1252  0.3515  0.5933
 3091TIP3    H130688   5.837   4.944   0.581  0.5631 -1.0179  1.3898
 3091TIP3    H230689   5.750   4.876   0.478  1.3739 -1.2763  0.8590
 3092TIP3   OH230690   1.885   5.216   6.767  0.1960 -0.2334 -0.3381
 3092TIP3    H130691   1.800   5.243   6.734  0.6547  1.7082 -0.0608
 3092TIP3    H230692   1.924   5.164   6.696 -0.4613  0.4357 -1.2003
 3093TIP3   OH230693   3.359   1.104  12.909  0.8985 -0.1840 -1.1025
 3093TIP3    H130694   3.318   1.017  12.906 -0.3921  0.3713 -0.2675
 3093TIP3    H230695   3.309   1.156  12.847 -2.2402  1.4828  2.4164
 3094TIP3   OH230696   4.358   5.176  13.917  0.2654  0.1606  0.2032
 3094TIP3    H130697   4.296   5.135  13.977  1.6963  0.1286  1.7185
 3094TIP3    H230698   4.388   5.104  13.861  0.2049 -0.1735  0.5975
 3095TIP3   OH230699   1.747   0.878  12.312 -0.0405  0.3383 -0.1083
 3095TIP3    H130700   1.747   0.803  12.252  1.7591 -1.5220  1.9857
 3095TIP3    H230701   1.800   0.944  12.268 -2.0799  0.6748 -2.2281
 3096TIP3   OH230702   1.339   3.372   3.312  1.0716 -0.5358 -0.2837
 3096TIP3    H130703   1.321   3.347   3.221  0.2705 -0.1071 -0.2503
 3096TIP3    H230704   1.260   3.418   3.340  2.2609  1.5591 -0.1599
 3097TIP3   OH230705   6.247   1.780  11.738 -0.2276  0.4620 -0.0285
 3097TIP3    H130706   6.323   1.837  11.749  0.6730 -0.7482  0.2273
 3097TIP3    H230707   6.224   1.788  11.645  0.1829  0.8738 -0.0948
 3098TIP3   OH230708   2.327   3.226   0.377 -0.1826 -0.2219  0.0535
 3098TIP3    H130709   2.359   3.313   0.399 -0.6556  0.1336 -0.6200
 3098TIP3    H230710   2.346   3.173   0.454  0.2474  0.4380  0.4106
 3099TIP3   OH230711   3.654   3.565   0.554  0.4064 -0.0356 -0.0879
 3099TIP3    H130712   3.565   3.533   0.568  0.1062 -0.0040 -1.6636
 3099TIP3    H230713   3.641   3.654   0.520  0.9574 -0.4186 -1.3739
 3100TIP3   OH230714   1.814   4.559  12.381  0.1069 -0.4474 -0.0153
 3100TIP3    H130715   1.768   4.569  12.298 -0.6639 -0.3139  0.4148
 3100TIP3    H230716   1.810   4.645  12.422  1.5973 -0.1818 -0.3873
 3101TIP3   OH230717   4.372   4.940   5.198 -0.2425  0.2627  0.2795
 3101TIP3    H130718   4.348   4.857   5.238 -1.1002  0.0680 -0.6230
 3101TIP3    H230719   4.464   4.953   5.224 -0.3666 -0.5183  1.1570
 3102TIP3   OH230720   0.289   0.325  12.574 -0.0130  0.2503 -0.1380
 3102TIP3    H130721   0.380   0.338  12.549 -0.3167 -0.2873 -1.5795
 3102TIP3    H230722   0.293   0.291  12.663  1.2640 -1.2864 -0.7521
 3103TIP3   OH230723   0.385   5.133  16.209 -0.0325  0.2201  0.1310
 3103TIP3    H130724   0.377   5.049  16.254  0.7129 -0.5456 -1.0743
 3103TIP3    H230725   0.438   5.187  16.267  1.4717 -0.9650 -0.0606
 3104TIP3   OH230726   3.911   3.141  11.886  0.2952  0.2194  0.6657
 3104TIP3    H130727   3.999   3.162  11.918  0.0250  0.8359  1.0242
 3104TIP3    H230728   3.925   3.116  11.794  0.5558  3.1624 -0.2114
 3105TIP3   OH230729   6.366   0.058   4.076  0.1960 -0.0598 -0.0025
 3105TIP3    H130730   6.390   0.064   3.984  1.9990  0.6652  0.4850
 3105TIP3    H230731   6.401   0.137   4.116  2.1213 -1.7419  1.8461
 3106TIP3   OH230732   6.120   6.730   2.255  0.3534 -0.5956  0.2148
 3106TIP3    H130733   6.192   6.684   2.298 -0.4278  0.1620  2.4432
 3106TIP3    H230734   6.049   6.666   2.251  0.2360 -0.4919  0.6021
 3107TIP3   OH230735   0.134   4.317   3.020 -0.3333 -0.0381  0.1288
 3107TIP3    H130736   0.079   4.313   3.099  0.0423 -0.6114  0.3621
 3107TIP3    H230737   0.125   4.231   2.980 -0.2377  0.1335 -0.2619
 3108TIP3   OH230738   5.992   3.969  15.415 -0.3287 -0.1709 -0.4607
 3108TIP3    H130739   5.916   4.028  15.411 -0.4335 -0.3143 -0.6000
 3108TIP3    H230740   5.972   3.901  15.351  0.5104  0.4798 -1.4413
 3109TIP3   OH230741   5.516   5.523  12.498  0.4269  0.4690 -0.4813
 3109TIP3    H130742   5.599   5.518  12.545  0.8134  0.6190 -1.1381
 3109TIP3    H230743   5.482   5.433  12.501  0.6658  0.3839 -0.2994
 3110TIP3   OH230744   1.553   5.531   3.294  0.5437  0.3294 -0.0008
 3110TIP3    H130745   1.475   5.547   3.347 -0.2057  0.4487 -1.1048
 3110TIP3    H230746   1.521   5.483   3.217  1.5442  0.4144 -0.4913
 3111TIP3   OH230747   4.543   4.080   1.593  0.6908  0.1274 -0.3944
 3111TIP3    H130748   4.505   4.144   1.534  1.2419  0.1501 -0.7351
 3111TIP3    H230749   4.634   4.073   1.565  0.8943 -0.0497  0.2926
 3112TIP3   OH230750   3.016   5.282   4.443 -0.1707 -0.0512 -0.4538
 3112TIP3    H130751   2.993   5.313   4.356  2.2603 -0.4956 -1.3299
 3112TIP3    H230752   2.960   5.206   4.458 -1.7047  0.9545 -0.9457
 3113TIP3   OH230753   3.089   1.822   4.069  0.2001  0.9689  0.0449
 3113TIP3    H130754   3.064   1.737   4.105 -1.7115  1.3659 -0.2712
 3113TIP3    H230755   3.175   1.806   4.030 -0.1412 -0.8436 -0.0698
 3114TIP3   OH230756   5.902   2.907   1.816 -0.5256 -0.4397  0.3386
 3114TIP3    H130757   5.937   2.929   1.902 -0.6641  0.7042  0.1117
 3114TIP3    H230758   5.884   2.813   1.821  1.5255 -0.8511  0.8354
 3115TIP3   OH230759   1.490   2.082   3.165 -0.4457 -0.0731  0.2226
 3115TIP3    H130760   1.473   1.988   3.157  0.0042 -0.4656  3.0891
 3115TIP3    H230761   1.553   2.090   3.236 -0.9159  2.4550  0.4467
 3116TIP3   OH230762   0.878   6.449  15.886  0.0680 -0.2843  0.5407
 3116TIP3    H130763   0.868   6.503  15.808  2.0530 -0.5825  0.0157
 3116TIP3    H230764   0.836   6.366  15.863 -0.1612 -0.0601  0.1421
 3117TIP3   OH230765   6.651   3.622   3.771  0.0720 -0.2404  0.0788
 3117TIP3    H130766   6.724   3.666   3.727 -1.6444  1.9286 -0.7418
 3117TIP3    H230767   6.619   3.686   3.834 -0.8827 -1.3174  0.7284
 3118TIP3   OH230768   3.315   4.507  12.152 -0.3241 -0.6833  0.6985
 3118TIP3    H130769   3.369   4.585  12.135 -0.2151 -0.4610  1.9621
 3118TIP3    H230770   3.378   4.436  12.163 -0.4539 -1.6819 -3.3335
 3119TIP3   OH230771   0.470   5.707   1.399 -0.1925  0.3976 -0.1734
 3119TIP3    H130772   0.413   5.656   1.341  0.4913 -0.6013  0.0204
 3119TIP3    H230773   0.508   5.774   1.341 -0.2005 -0.0402 -0.6960
 3120TIP3   OH230774   2.782   0.229  15.460  0.7823  0.5050  0.3837
 3120TIP3    H130775   2.802   0.310  15.508  0.1768  0.6714  0.3566
 3120TIP3    H230776   2.818   0.245  15.372 -1.7439  1.9061 -0.5151
 3121TIP3   OH230777   4.727   6.564   0.195 -0.0337 -0.4884 -0.0387
 3121TIP3    H130778   4.661   6.633   0.204 -1.3416 -1.7238  0.3462
 3121TIP3    H230779   4.733   6.548   0.101 -0.4399 -0.5008 -0.0642
 3122TIP3   OH230780   3.271   1.690  15.144  0.2900  0.1785 -0.3855
 3122TIP3    H130781   3.308   1.716  15.229 -0.3544  1.7588 -0.5583
 3122TIP3    H230782   3.177   1.686  15.159  0.2006  0.1256 -0.9431
 3123TIP3   OH230783   3.014   6.632   2.272 -0.0168 -0.0687  0.0004
 3123TIP3    H130784   3.010   6.717   2.317 -0.8193  0.6972 -1.4455
 3123TIP3    H230785   2.961   6.574   2.326  1.2476  0.0947  1.4746
 3124TIP3   OH230786   2.363   3.032  15.113  0.2289  0.0214 -0.0965
 3124TIP3    H130787   2.303   2.960  15.096 -0.1300  0.7716 -2.3594
 3124TIP3    H230788   2.316   3.089  15.174 -0.6153 -0.2890 -0.4400
 3125TIP3   OH230789   5.556   0.588  14.213  0.0025 -0.5478 -0.6692
 3125TIP3    H130790   5.476   0.606  14.262  0.9595  2.4738 -0.0218
 3125TIP3    H230791   5.537   0.507  14.165 -3.1549 -0.3175 -0.0149
 3126TIP3   OH230792   5.733   4.631  12.118 -0.3444 -0.2926  0.2879
 3126TIP3    H130793   5.727   4.721  12.149  0.5066 -0.0616 -0.2010
 3126TIP3    H230794   5.791   4.587  12.180 -1.2110 -0.6711  0.8604
 3127TIP3   OH230795   4.976   3.558   4.768  0.2962 -0.3158  0.5360
 3127TIP3    H130796   4.941   3.482   4.722  0.1502  0.3998 -0.5608
 3127TIP3    H230797   5.051   3.586   4.716 -1.7268  2.4293 -1.2107
 3128TIP3   OH230798   5.903   4.100   1.239  0.2765  0.5029  0.4783
 3128TIP3    H130799   5.854   4.157   1.179  1.8467 -0.3006 -1.6910
 3128TIP3    H230800   5.900   4.014   1.197  0.0226 -0.4924  2.4499
 3129TIP3   OH230801   3.312   0.062   4.346  0.2344  0.0871 -0.2128
 3129TIP3    H130802   3.275   0.137   4.299 -0.6008 -0.3482 -0.2701
 3129TIP3    H230803   3.407   0.072   4.336  0.1383 -1.1938 -4.0180
 3130TIP3   OH230804   4.574   4.669  14.000 -0.1763 -0.0284  0.2317
 3130TIP3    H130805   4.522   4.745  14.027 -0.6729 -0.2545 -0.0800
 3130TIP3    H230806   4.529   4.635  13.923 -1.4785 -2.2097  1.8478
 3131TIP3   OH230807   4.673   0.445   0.446 -0.2308 -0.3721 -0.1170
 3131TIP3    H130808   4.614   0.517   0.423  1.6715  2.6232  3.3511
 3131TIP3    H230809   4.733   0.438   0.371 -1.6678  0.2033 -1.3763
 3132TIP3   OH230810   5.363   1.716   2.556 -0.1428 -0.2358 -0.4529
 3132TIP3    H130811   5.278   1.747   2.586 -0.3608 -0.5639 -0.7228
 3132TIP3    H230812   5.347   1.684   2.467 -0.1141 -1.9772  0.1402
 3133TIP3   OH230813   2.964   2.513  10.770  0.4123 -0.2125 -0.1213
 3133TIP3    H130814   2.906   2.464  10.829 -0.3175  0.6883 -0.0708
 3133TIP3    H230815   2.977   2.454  10.695  0.7825 -1.0861  0.6066
 3134TIP3   OH230816   1.715   2.498   6.089 -0.0160  0.8671  0.1656
 3134TIP3    H130817   1.644   2.554   6.058  0.1582 -0.3007 -2.5851
 3134TIP3    H230818   1.676   2.411   6.096  0.8798  0.4147 -0.3395
 3135TIP3   OH230819   0.213   5.583  12.240 -0.4163  0.0554 -0.3740
 3135TIP3    H130820   0.280   5.534  12.192  0.8437  0.8712  0.4764
 3135TIP3    H230821   0.253   5.669  12.254 -0.8749 -0.0400  1.7871
 3136TIP3   OH230822   5.519   6.624  14.000  0.4583  0.7223  0.5304
 3136TIP3    H130823   5.599   6.674  14.018 -0.4368  1.7327  1.9710
 3136TIP3    H230824   5.503   6.574  14.081  0.1907 -0.2735 -0.1255
 3137TIP3   OH230825   0.870   5.204   4.675 -0.0877  0.1797  0.2158
 3137TIP3    H130826   0.861   5.153   4.756  0.0464  0.4302  0.3894
 3137TIP3    H230827   0.779   5.221   4.648 -0.1569 -1.1965 -0.5143
 3138TIP3   OH230828   5.796   3.338  12.593  0.5382  0.1073  0.7969
 3138TIP3    H130829   5.840   3.363  12.674  0.0982 -0.1944  1.1337
 3138TIP3    H230830   5.739   3.412  12.572  1.0602  0.4180  0.4633
 3139TIP3   OH230831   5.762   3.356   5.936  0.3380 -0.2137 -0.7584
 3139TIP3    H130832   5.755   3.383   6.028  0.7732  0.7858 -0.9975
 3139TIP3    H230833   5.856   3.353   5.919  0.3783  3.5319 -2.1894
 3140TIP3   OH230834   2.618   5.105   6.184  0.1951 -0.3503 -0.1776
 3140TIP3    H130835   2.632   5.124   6.277  0.1610  1.4164 -0.4952
 3140TIP3    H230836   2.524   5.117   6.170 -0.0148 -1.8260 -0.2186
 3141TIP3   OH230837   3.100   0.207  12.926 -0.5903  0.3456 -0.2960
 3141TIP3    H130838   3.190   0.232  12.904 -1.3713  2.4669 -1.4004
 3141TIP3    H230839   3.050   0.288  12.917 -2.5151 -0.6272  0.9845
 3142TIP3   OH230840   3.483   2.196  13.375 -0.6838  0.4473 -0.3801
 3142TIP3    H130841   3.497   2.276  13.426 -0.7818 -1.4363  2.9008
 3142TIP3    H230842   3.395   2.168  13.398 -0.1895 -1.2439 -0.4500
 3143TIP3   OH230843   5.896   3.503   4.016 -0.3568  0.6128  0.7403
 3143TIP3    H130844   5.833   3.548   4.072 -1.2594  0.4940 -0.1447
 3143TIP3    H230845   5.910   3.563   3.942  0.3984  0.5413  0.8183
 3144TIP3   OH230846   2.201   6.384  13.440 -0.6351  0.1716 -0.4869
 3144TIP3    H130847   2.147   6.308  13.461 -1.4016  1.2137  1.5693
 3144TIP3    H230848   2.246   6.359  13.359 -2.0816 -1.8089 -0.7673
 3145TIP3   OH230849   2.833   3.335   5.461 -0.3847  0.6176 -0.3692
 3145TIP3    H130850   2.858   3.245   5.439 -0.4305  0.5784 -0.2629
 3145TIP3    H230851   2.797   3.329   5.549  1.6637  1.0840  0.5554
 3146TIP3   OH230852   0.402   4.652  12.977  0.2700  0.2183  0.9444
 3146TIP3    H130853   0.411   4.675  13.070 -1.8367  0.4764  1.1310
 3146TIP3    H230854   0.402   4.736  12.932  1.1078  0.1022  0.7203
 3147TIP3   OH230855   0.088   5.827  16.767 -1.2482 -0.1031 -0.0635
 3147TIP3    H130856   0.054   5.847  16.680 -0.0284  0.6455 -0.3869
 3147TIP3    H230857   0.010   5.817  16.821 -2.1013 -1.9288 -1.4916
 3148TIP3   OH230858   4.476   0.402   1.662 -0.5514  0.1197  0.5867
 3148TIP3    H130859   4.382   0.382   1.663 -1.0792  2.3697  0.7970
 3148TIP3    H230860   4.489   0.451   1.580  0.6918 -1.1251 -0.0036
 3149TIP3   OH230861   3.958   6.127   5.448  0.5336  0.0041  0.5769
 3149TIP3    H130862   3.961   6.034   5.471  0.4377 -0.2487 -0.3783
 3149TIP3    H230863   4.043   6.144   5.407  0.0384 -0.0087 -0.4755
 3150TIP3   OH230864   1.678   3.309  10.951  0.3750 -0.1935 -0.1035
 3150TIP3    H130865   1.617   3.235  10.943  0.3963 -0.2989  0.6782
 3150TIP3    H230866   1.759   3.270  10.983  0.1112  0.2933  1.1968
 3151TIP3   OH230867   4.150   3.040  12.647  0.4682 -0.5083  0.2197
 3151TIP3    H130868   4.234   3.058  12.687  0.1963  0.8881  0.2295
 3151TIP3    H230869   4.154   3.084  12.562 -0.1276 -0.6942  0.0876
 3152TIP3   OH230870   3.339   3.664  16.805 -0.6717 -0.0179  0.3542
 3152TIP3    H130871   3.295   3.714  16.874 -1.2838 -0.1009  0.0262
 3152TIP3    H230872   3.281   3.590  16.787  0.5440 -1.2418  1.2987
 3153TIP3   OH230873   5.313   1.276  16.363  0.0985 -0.0070 -0.3112
 3153TIP3    H130874   5.235   1.225  16.387  0.6036 -0.5685  0.1918
 3153TIP3    H230875   5.343   1.236  16.281  1.2416 -1.4359  0.7412
 3154TIP3   OH230876   0.442   1.078   2.249 -0.4093 -0.0677 -0.1966
 3154TIP3    H130877   0.455   1.164   2.209 -1.6447  0.4086  0.3575
 3154TIP3    H230878   0.512   1.023   2.213 -0.2384  0.8834 -1.3723
 3155TIP3   OH230879   4.696   3.855   1.236  0.1265 -0.6525  0.0650
 3155TIP3    H130880   4.637   3.825   1.168 -0.3732  1.5418 -0.5371
 3155TIP3    H230881   4.638   3.876   1.310  0.3579 -0.3618  0.1653
 3156TIP3   OH230882   1.092   2.380  16.732  0.3361  0.0473  0.5358
 3156TIP3    H130883   1.179   2.403  16.764  0.2771  1.9443 -0.4789
 3156TIP3    H230884   1.032   2.425  16.791  0.0647 -0.5559  0.7239
 3157TIP3   OH230885   1.510   2.075   0.422 -0.5339  0.4104  0.4175
 3157TIP3    H130886   1.509   2.037   0.335 -1.6209 -0.5692  0.8363
 3157TIP3    H230887   1.599   2.059   0.454 -0.1482  0.7312 -0.4737
 3158TIP3   OH230888   1.945   0.979  12.139  0.3713 -0.0964 -0.2684
 3158TIP3    H130889   2.027   0.993  12.092 -0.9703  1.5641 -2.2558
 3158TIP3    H230890   1.902   1.064  12.139 -1.8868 -1.1597 -0.3277
 3159TIP3   OH230891   2.899   4.364   3.536 -0.3025 -0.8452 -0.2980
 3159TIP3    H130892   2.990   4.341   3.515  0.5768 -0.1463  2.3329
 3159TIP3    H230893   2.886   4.329   3.624 -1.6958  1.3584  0.4440
 3160TIP3   OH230894   4.626   2.322   2.450 -0.8084 -0.4429 -1.2511
 3160TIP3    H130895   4.722   2.330   2.449 -0.8903  0.9733 -0.2965
 3160TIP3    H230896   4.595   2.411   2.441 -1.9703 -0.2487  2.6962
 3161TIP3   OH230897   6.612   6.335   2.498 -0.4192 -0.1141 -0.0455
 3161TIP3    H130898   6.556   6.397   2.545 -0.1090 -0.8508  1.3556
 3161TIP3    H230899   6.673   6.302   2.565  4.4407  3.4608 -2.1266
 3162TIP3   OH230900   3.055   4.103  15.810  0.4052 -0.6624 -0.5563
 3162TIP3    H130901   3.040   4.009  15.806  1.3726 -0.9313  1.1882
 3162TIP3    H230902   2.996   4.134  15.878  1.5189 -0.3631  0.3004
 3163TIP3   OH230903   5.985   5.877  15.539 -0.1869 -0.1360  0.0169
 3163TIP3    H130904   5.939   5.896  15.457 -0.5549  0.5253  0.3727
 3163TIP3    H230905   5.984   5.781  15.544 -1.0461 -0.1517 -0.2526
 3164TIP3   OH230906   4.026   1.938  15.051  0.1718 -0.7281  0.2308
 3164TIP3    H130907   3.950   1.900  15.008  0.7315 -1.6585  0.0474
 3164TIP3    H230908   4.045   2.017  15.000 -1.3507  0.1819  0.9715
 3165TIP3   OH230909   5.504   2.622  13.849  0.0780  0.3846  0.0872
 3165TIP3    H130910   5.427   2.661  13.890 -0.6951 -1.4458  0.4440
 3165TIP3    H230911   5.571   2.691  13.854 -1.7456  2.3398 -1.0292
 3166TIP3   OH230912   1.432   3.180   0.381  0.2975  0.4648 -0.0929
 3166TIP3    H130913   1.354   3.125   0.384  0.5363  0.0933 -0.5235
 3166TIP3    H230914   1.479   3.160   0.462  0.1646  0.3679 -0.0399
 3167TIP3   OH230915   6.740   0.537   6.592  0.7238  0.5067  0.4697
 3167TIP3    H130916   6.660   0.503   6.551  0.6849  1.6597 -0.4767
 3167TIP3    H230917   6.727   0.632   6.593  1.7683  0.6504  0.9862
 3168TIP3   OH230918   6.524   0.153   2.693 -0.0890 -0.2120 -0.1879
 3168TIP3    H130919   6.440   0.130   2.734 -0.7489  2.7473  0.3933
 3168TIP3    H230920   6.513   0.129   2.601 -1.0698 -1.0802  0.1383
 3169TIP3   OH230921   4.069   2.453  15.415 -0.3036 -0.2583  0.7290
 3169TIP3    H130922   4.083   2.386  15.483 -0.5384  0.8721  1.9174
 3169TIP3    H230923   4.064   2.403  15.333  2.0701 -1.5047  1.2524
 3170TIP3   OH230924   0.799   0.587  16.845 -0.2794 -0.1423 -0.5065
 3170TIP3    H130925   0.748   0.667  16.859  0.5232  0.6144 -1.7772
 3170TIP3    H230926   0.837   0.568  16.931  0.7951  1.7312 -0.5153
 3171TIP3   OH230927   5.332   4.682  12.942 -0.1558 -0.1861  0.8227
 3171TIP3    H130928   5.343   4.776  12.955 -0.5521 -0.2755  1.8410
 3171TIP3    H230929   5.421   4.646  12.949  0.1263  0.1928 -0.4447
 3172TIP3   OH230930   2.720   0.536   0.266 -0.8231  0.7895  0.1792
 3172TIP3    H130931   2.687   0.624   0.288 -0.3207  1.1723 -0.5525
 3172TIP3    H230932   2.652   0.500   0.209 -1.2961  0.4758  0.9259
 3173TIP3   OH230933   4.417   2.795  14.862  0.3863 -0.0132  0.9229
 3173TIP3    H130934   4.408   2.850  14.939 -1.4611 -0.0720  0.7855
 3173TIP3    H230935   4.331   2.755  14.850  1.0519 -1.1794 -0.2979
 3174TIP3   OH230936   2.031   5.013   4.217 -0.8545 -0.2924 -0.1341
 3174TIP3    H130937   2.111   4.982   4.260  0.1588  1.1902 -0.8530
 3174TIP3    H230938   2.055   5.022   4.125 -2.1066 -0.6085 -0.5061
 3175TIP3   OH230939   0.433   4.600  12.057 -0.3379 -0.0196 -0.6491
 3175TIP3    H130940   0.357   4.619  12.112  2.7484  2.9763  3.2683
 3175TIP3    H230941   0.467   4.517  12.090 -0.0511  0.3753  0.0723
 3176TIP3   OH230942   5.539   5.268  13.348 -0.3342  0.9102 -0.0206
 3176TIP3    H130943   5.557   5.234  13.261  0.1422  0.4367  0.2543
 3176TIP3    H230944   5.496   5.195  13.394 -2.6824  1.8657 -0.5305
 3177TIP3   OH230945   4.626   3.955   1.872 -0.4825  0.1571  0.2411
 3177TIP3    H130946   4.630   3.982   1.780  0.1927  3.3057  1.0584
 3177TIP3    H230947   4.549   4.001   1.907 -1.0884 -1.4619  1.1611
 3178TIP3   OH230948   2.113   0.056  15.824  0.6834 -0.0745  0.5349
 3178TIP3    H130949   2.079   0.096  15.903  0.4041  0.7987 -0.0124
 3178TIP3    H230950   2.105   0.124  15.757 -0.1474 -1.1587 -0.5093
 3179TIP3   OH230951   1.463   3.489  13.484  0.4880  0.6033  0.7314
 3179TIP3    H130952   1.471   3.575  13.525 -0.1355  0.5083  1.0757
 3179TIP3    H230953   1.525   3.433  13.532  0.4342  0.7149  0.9337
 3180TIP3   OH230954   3.501   2.193  16.080  0.5026 -0.0675 -0.5006
 3180TIP3    H130955   3.508   2.218  15.988 -0.3271  2.8645  0.1497
 3180TIP3    H230956   3.590   2.193  16.113  0.7922 -1.0199 -1.2293
 3181TIP3   OH230957   1.879   4.577   1.291  0.4255 -0.0591  0.1632
 3181TIP3    H130958   1.897   4.661   1.248  1.4814 -0.1965  0.3021
 3181TIP3    H230959   1.924   4.584   1.375  0.0601 -0.5612  0.4015
 3182TIP3   OH230960   3.693   6.305  15.219 -0.1434 -0.1386 -0.4252
 3182TIP3    H130961   3.776   6.258  15.218  0.4008  0.3386  3.6825
 3182TIP3    H230962   3.640   6.260  15.285 -1.5864  1.8759 -0.0886
 3183TIP3   OH230963   5.849   5.093   3.275 -0.2364 -0.3290 -0.1378
 3183TIP3    H130964   5.881   5.128   3.192  0.7636 -0.6270  0.1035
 3183TIP3    H230965   5.774   5.148   3.297  1.3579  1.7912  0.3058
 3184TIP3   OH230966   3.529   0.211  16.938 -0.4264 -0.0515 -0.4184
 3184TIP3    H130967   3.495   0.241  16.854 -1.8015  0.2496  0.2222
 3184TIP3    H230968   3.533   0.290  16.992  0.3401 -0.2614 -0.1587
 3185TIP3   OH230969   6.080   3.711  10.763  0.2064 -0.7532  0.3350
 3185TIP3    H130970   6.085   3.791  10.710 -1.8096 -1.1250 -0.4962
 3185TIP3    H230971   6.000   3.721  10.815 -0.6139 -2.5827 -0.4627
 3186TIP3   OH230972   4.227   6.122  12.725  0.2905 -0.1419 -0.3966
 3186TIP3    H130973   4.254   6.050  12.667  1.2110 -1.2828  1.3562
 3186TIP3    H230974   4.244   6.089  12.813  0.7592  2.2535  0.4720
 3187TIP3   OH230975   1.561   6.377   2.062  0.1853  0.4764  0.0633
 3187TIP3    H130976   1.631   6.441   2.050  0.9914 -0.1582  1.2302
 3187TIP3    H230977   1.591   6.320   2.132 -1.9031  0.7237  1.2497
 3188TIP3   OH230978   0.662   1.713   1.341  0.2900  0.2511 -0.2133
 3188TIP3    H130979   0.595   1.749   1.283 -1.6609 -2.6620  0.0115
 3188TIP3    H230980   0.723   1.668   1.283 -1.1934 -1.9296 -0.2177
 3189TIP3   OH230981   0.787   4.036  15.368  0.1649  0.1564 -0.2862
 3189TIP3    H130982   0.736   3.998  15.440  0.2097  0.3838 -0.1325
 3189TIP3    H230983   0.878   4.029  15.396  0.3917 -1.9470 -1.3605
 3190TIP3   OH230984   0.482   1.145  14.747  0.0027  1.0764 -0.0299
 3190TIP3    H130985   0.532   1.085  14.692  0.1010 -0.6128  1.7967
 3190TIP3    H230986   0.390   1.122  14.730 -0.1439  2.5886 -1.6249
 3191TIP3   OH230987   0.259   6.557  13.063  0.1396  0.0599  0.2335
 3191TIP3    H130988   0.176   6.601  13.081 -0.5587 -0.7353 -0.9137
 3191TIP3    H230989   0.293   6.535  13.150 -0.1512  1.6139  0.7762
 3192TIP3   OH230990   6.409   3.341   5.406  0.1125  0.3543  0.0204
 3192TIP3    H130991   6.414   3.418   5.350 -1.0418  0.7156  0.3871
 3192TIP3    H230992   6.428   3.267   5.348  0.7734  0.8671 -0.4282
 3193TIP3   OH230993   4.091   3.224   5.959  0.4820 -0.0724  0.4431
 3193TIP3    H130994   4.018   3.280   5.932  0.3697 -0.4355 -0.0181
 3193TIP3    H230995   4.169   3.278   5.947  0.3168  0.2061  0.6272
 3194TIP3   OH230996   0.571   1.306   2.428 -0.1314 -0.4945 -0.5283
 3194TIP3    H130997   0.633   1.233   2.433  0.7143  0.2771  0.7546
 3194TIP3    H230998   0.574   1.332   2.336 -0.4738 -2.0726 -1.0221
 3195TIP3   OH230999   6.731   2.531  11.391  0.2347  0.5970 -0.2070
 3195TIP3    H131000   6.664   2.484  11.341 -0.3486  2.2798 -1.0947
 3195TIP3    H231001   6.799   2.552  11.327 -0.4779  2.6955 -0.3820
 3196TIP3   OH231002   2.705   6.652  11.209 -0.6314  0.4287 -0.2610
 3196TIP3    H131003   2.749   6.682  11.289  0.5788 -0.7090 -0.4788
 3196TIP3    H231004   2.774   6.646  11.144 -1.3191 -0.2734 -0.9424
 3197TIP3   OH231005   2.408   3.197   6.186 -0.2344  0.3475  0.2543
 3197TIP3    H131006   2.497   3.178   6.214 -0.8601 -0.7677  1.6307
 3197TIP3    H231007   2.357   3.201   6.267 -1.6393 -0.1316 -0.5571
 3198TIP3   OH231008   5.388   0.474  12.468 -0.2549  0.3303 -0.1599
 3198TIP3    H131009   5.418   0.432  12.549 -2.8114  2.0748  1.8985
 3198TIP3    H231010   5.419   0.564  12.475 -1.9271  0.9537 -0.2012
 3199TIP3   OH231011   6.129   2.267  14.227  0.2611  0.0440 -0.1265
 3199TIP3    H131012   6.222   2.281  14.243  0.5562 -2.1660  0.4248
 3199TIP3    H231013   6.125   2.187  14.175 -1.3105  0.6638 -1.0436
 3200TIP3   OH231014   4.407   1.238  13.501 -0.1732 -0.3802 -0.0562
 3200TIP3    H131015   4.462   1.310  13.534 -0.8810 -0.1000  0.5375
 3200TIP3    H231016   4.319   1.276  13.497 -0.6525 -1.3687  0.7775
 3201TIP3   OH231017   2.555   0.694  16.533 -0.2621 -0.1846  0.3573
 3201TIP3    H131018   2.531   0.746  16.610 -2.0715  0.3728 -0.5263
 3201TIP3    H231019   2.646   0.717  16.515 -1.0094  2.8763 -0.0998
 3202TIP3   OH231020   2.661   2.677   2.493  0.2695  0.1646 -0.3309
 3202TIP3    H131021   2.597   2.700   2.561 -0.2609 -2.2878  0.0961
 3202TIP3    H231022   2.746   2.684   2.536  0.0039 -0.4145  0.2971
 3203TIP3   OH231023   6.515   3.200   6.527 -0.5440 -0.4230 -0.0710
 3203TIP3    H131024   6.549   3.220   6.440  0.5925  0.1006  0.4721
 3203TIP3    H231025   6.547   3.271   6.583 -2.0102 -0.2490  0.6122
 3204TIP3   OH231026   0.738   3.080   2.778  0.5709  0.2466  0.1122
 3204TIP3    H131027   0.773   3.018   2.715  1.2798 -0.0910  0.8271
 3204TIP3    H231028   0.688   3.027   2.840 -0.3171  0.6017 -0.2813
 3205TIP3   OH231029   5.788   4.448  15.289 -0.1984 -0.0983  0.2469
 3205TIP3    H131030   5.792   4.444  15.194 -0.6325 -0.7589  0.2522
 3205TIP3    H231031   5.877   4.472  15.316  0.0069 -0.2231 -0.3064
 3206TIP3   OH231032   1.046   2.101  16.661  0.3656 -0.1534  0.0342
 3206TIP3    H131033   1.048   2.193  16.688  3.0207  0.5125 -1.9482
 3206TIP3    H231034   0.986   2.100  16.586 -0.2089 -0.2147  0.4855
 3207TIP3   OH231035   4.012   6.121   5.978  0.0647 -0.7625 -1.0551
 3207TIP3    H131036   4.076   6.160   6.038 -1.7391 -0.0946  0.5392
 3207TIP3    H231037   3.974   6.048   6.028 -0.7386 -0.8559 -1.7730
 3208TIP3   OH231038   3.652   6.689  11.681 -0.2445 -0.0913  1.2610
 3208TIP3    H131039   3.704   6.666  11.604 -1.7072 -1.0650  0.5097
 3208TIP3    H231040   3.695   6.766  11.718  0.3516  0.5571 -0.6897
 3209TIP3   OH231041   4.448   5.061   4.474 -0.4204  0.1751 -0.3956
 3209TIP3    H131042   4.407   5.058   4.561  1.3968 -0.4571  0.4770
 3209TIP3    H231043   4.469   5.153   4.460  1.7500 -0.0423  1.0811
 3210TIP3   OH231044   5.914   3.746  15.612 -0.1004 -0.3661 -0.1608
 3210TIP3    H131045   5.920   3.819  15.550  1.3973 -0.1775  0.1635
 3210TIP3    H231046   5.942   3.670  15.561  0.1755 -0.3756  0.0003
 3211TIP3   OH231047   1.917   1.953   6.097  0.4007  0.5664 -0.4967
 3211TIP3    H131048   1.944   1.871   6.139 -0.9530  0.0895 -0.4801
 3211TIP3    H231049   1.985   2.016   6.121  0.8489 -0.2619  0.5098
 3212TIP3   OH231050   6.468   5.183  14.153 -0.3881  0.3755 -0.4691
 3212TIP3    H131051   6.508   5.266  14.178 -1.7594  1.1342 -0.6659
 3212TIP3    H231052   6.391   5.175  14.209  0.5147 -1.5156  0.5873
 3213TIP3   OH231053   1.312   2.430   4.779 -0.0875 -0.1069 -0.9419
 3213TIP3    H131054   1.357   2.346   4.774  1.7041  0.7711 -0.4041
 3213TIP3    H231055   1.242   2.416   4.842  0.3624 -1.1280 -0.6424
 3214TIP3   OH231056   0.791   0.507  11.969 -0.0899 -0.6342 -0.6628
 3214TIP3    H131057   0.885   0.499  11.985 -0.4215 -1.6670  1.1103
 3214TIP3    H231058   0.752   0.500  12.057 -1.9052 -1.8674 -1.5174
 3215TIP3   OH231059   1.489   5.558   5.929 -0.2002  0.6338  0.1225
 3215TIP3    H131060   1.535   5.606   5.997  0.6538  1.1647 -0.8014
 3215TIP3    H231061   1.411   5.523   5.972  0.5251  0.6108  1.4559
 3216TIP3   OH231062   5.785   5.966  11.932 -0.0446 -0.2339 -0.3333
 3216TIP3    H131063   5.871   5.986  11.896  0.4477  0.2022  1.0055
 3216TIP3    H231064   5.729   5.949  11.856  1.5138 -1.7716 -1.1960
 3217TIP3   OH231065   2.274   3.989   0.495 -0.0759 -0.8114  0.7599
 3217TIP3    H131066   2.236   3.935   0.564  2.3362 -1.6955  1.5124
 3217TIP3    H231067   2.335   4.047   0.541  2.0063 -1.7871 -0.5788
 3218TIP3   OH231068   2.244   4.125  16.822  1.0728 -0.1315 -0.1077
 3218TIP3    H131069   2.174   4.169  16.773  1.1683 -0.6012 -0.6736
 3218TIP3    H231070   2.226   4.147  16.914 -0.3945 -1.0357 -0.1494
 3219TIP3   OH231071   5.690   2.277   6.036  0.3796  0.1142  0.0307
 3219TIP3    H131072   5.606   2.321   6.049 -0.2136 -1.0786  0.3939
 3219TIP3    H231073   5.741   2.299   6.114 -0.7241 -1.5813  1.3007
 3220TIP3   OH231074   4.176   2.231   3.798 -0.5948 -0.2053  0.7069
 3220TIP3    H131075   4.209   2.319   3.819 -0.7305  0.3428 -1.2199
 3220TIP3    H231076   4.098   2.221   3.854 -1.4664  1.5531 -0.1042
 3221TIP3   OH231077   5.223   1.287   3.379 -0.1524 -0.7566 -0.0783
 3221TIP3    H131078   5.144   1.252   3.421 -1.4363  0.9113 -0.9784
 3221TIP3    H231079   5.239   1.228   3.305 -0.5248 -1.1271  0.1297
 3222TIP3   OH231080   2.587   4.805   5.021 -0.4584 -0.0224  0.1039
 3222TIP3    H131081   2.550   4.743   5.084  1.1950  0.0211  1.2099
 3222TIP3    H231082   2.512   4.850   4.983 -1.5690 -1.0099  1.0661
 3223TIP3   OH231083   1.048   4.677   2.134 -0.4305  0.0282  0.1330
 3223TIP3    H131084   1.075   4.759   2.094  0.4276  0.8123  2.1587
 3223TIP3    H231085   0.992   4.704   2.208 -3.4094 -1.4053 -1.4239
 3224TIP3   OH231086   5.588   6.532   3.667 -0.1145  0.4077 -1.5415
 3224TIP3    H131087   5.626   6.616   3.693 -0.6183  0.1593  0.1097
 3224TIP3    H231088   5.583   6.482   3.748  0.3465 -1.3080 -2.5217
 3225TIP3   OH231089   0.852   1.436  12.749 -0.0203  0.0855 -0.0497
 3225TIP3    H131090   0.816   1.390  12.825  1.0329 -1.1713 -0.2828
 3225TIP3    H231091   0.849   1.372  12.678  2.9322 -0.2295 -0.0098
 3226TIP3   OH231092   5.900   5.433  14.638 -0.2705 -0.3221  0.1865
 3226TIP3    H131093   5.934   5.504  14.693  2.9016 -0.4754 -1.3710
 3226TIP3    H231094   5.944   5.354  14.672  1.4222 -0.4847 -2.1063
 3227TIP3   OH231095   1.215   5.206   2.090 -0.5507 -0.4563  0.1669
 3227TIP3    H131096   1.192   5.270   2.023  1.0997  1.0177  0.9362
 3227TIP3    H231097   1.310   5.212   2.097 -0.5089 -1.9548  1.3067
 3228TIP3   OH231098   6.703   2.572  12.249 -0.0219  0.1281 -0.2149
 3228TIP3    H131099   6.757   2.508  12.295  0.1061  1.3753  1.4568
 3228TIP3    H231100   6.657   2.521  12.182 -0.4482 -1.8392  1.4790
 3229TIP3   OH231101   4.520   1.349   0.974  0.2004 -0.0885 -0.3340
 3229TIP3    H131102   4.607   1.377   1.003  0.0577  1.6709 -1.4370
 3229TIP3    H231103   4.533   1.263   0.936  1.3200 -0.1676  0.1921
 3230TIP3   OH231104   2.894   5.158   1.542 -0.3666  0.1798  0.1545
 3230TIP3    H131105   2.964   5.093   1.537 -1.1685 -0.6576 -0.4849
 3230TIP3    H231106   2.813   5.108   1.533 -0.9748  1.3391 -1.2711
 3231TIP3   OH231107   4.237   5.870   4.293 -0.5303  0.5833 -0.6329
 3231TIP3    H131108   4.259   5.779   4.311 -0.0582  0.8942  0.4085
 3231TIP3    H231109   4.227   5.874   4.198  2.8894  0.1694 -1.1137
 3232TIP3   OH231110   3.065   0.308  15.767 -0.1534 -0.0656  0.4953
 3232TIP3    H131111   3.131   0.376  15.753  0.2723 -0.7148 -0.7503
 3232TIP3    H231112   3.068   0.254  15.688 -0.3337 -1.6790  1.5515
 3233TIP3   OH231113   2.098   2.283   1.114 -0.8030  0.5141 -0.1237
 3233TIP3    H131114   2.139   2.370   1.108 -0.5369  0.2858 -2.2624
 3233TIP3    H231115   2.026   2.286   1.052 -1.3605 -0.5139  0.4558
 3234TIP3   OH231116   5.395   0.250   1.683 -0.2310  0.5476  0.1699
 3234TIP3    H131117   5.413   0.160   1.708  1.8980  0.5848 -0.9781
 3234TIP3    H231118   5.414   0.301   1.763 -1.0521  0.0487  0.7004
 3235TIP3   OH231119   1.564   0.742   4.845  0.8394  0.2694  0.1477
 3235TIP3    H131120   1.598   0.680   4.780  1.1861  1.8244 -1.2236
 3235TIP3    H231121   1.530   0.815   4.793 -2.5704 -0.1483  1.5378
 3236TIP3   OH231122   5.826   6.347  14.911 -0.1717  0.0136 -0.0954
 3236TIP3    H131123   5.731   6.362  14.909 -0.3731 -1.0806  0.4119
 3236TIP3    H231124   5.843   6.292  14.834 -0.1650 -0.8659  0.5200
 3237TIP3   OH231125   4.378   5.634  14.707 -0.2865  0.0930 -0.1215
 3237TIP3    H131126   4.290   5.601  14.687 -0.2396 -0.3870  0.4527
 3237TIP3    H231127   4.432   5.602  14.634 -0.0295 -2.0392  0.9385
 3238TIP3   OH231128   1.083   4.713  16.649  0.2297 -0.1749 -0.1937
 3238TIP3    H131129   1.091   4.756  16.564 -0.2626 -1.0871 -0.7109
 3238TIP3    H231130   1.102   4.620  16.631 -1.7212 -0.7078  0.3349
 3239TIP3   OH231131   1.794   1.961   0.469  0.1287  0.6036  0.1350
 3239TIP3    H131132   1.833   1.933   0.552 -0.4736 -2.5952 -0.5262
 3239TIP3    H231133   1.753   1.882   0.434 -1.8443  2.4434 -2.0241
 3240TIP3   OH231134   2.613   5.216   4.695 -0.1189  0.0145  0.4194
 3240TIP3    H131135   2.631   5.302   4.658 -0.7247  0.7462  1.7525
 3240TIP3    H231136   2.594   5.233   4.787 -1.0739 -1.4503  0.5244
 3241TIP3   OH231137   0.971   4.852  11.020 -0.2797  0.1911  0.1292
 3241TIP3    H131138   1.053   4.897  11.041 -0.5221  0.4824  0.4822
 3241TIP3    H231139   0.990   4.801  10.942  0.6914 -0.9909  1.0953
 3242TIP3   OH231140   2.088   5.394  14.663  0.4129 -0.3623  0.2724
 3242TIP3    H131141   2.146   5.466  14.637  1.3268 -1.0130  0.4501
 3242TIP3    H231142   2.030   5.382  14.588 -0.8346  1.5904  0.8520
 3243TIP3   OH231143   0.439   5.203  11.324 -0.2315  0.2848 -0.2059
 3243TIP3    H131144   0.453   5.146  11.249  0.1631 -1.6461  1.2748
 3243TIP3    H231145   0.348   5.231  11.316 -0.5038 -0.7307 -0.8570
 3244TIP3   OH231146   4.834   3.123  15.123  0.3007  0.0399 -0.2933
 3244TIP3    H131147   4.762   3.115  15.186 -0.4161 -1.1144 -1.2250
 3244TIP3    H231148   4.912   3.095  15.172  0.0686  0.9182  0.6047
 3245TIP3   OH231149   0.913   3.992   2.988  0.6247  0.0750  0.1598
 3245TIP3    H131150   0.917   4.085   3.012  0.8939  0.1772 -0.2661
 3245TIP3    H231151   1.002   3.959   3.005  1.4231  0.6209 -2.5051
 3246TIP3   OH231152   5.421   6.638  12.504 -0.0844 -0.5949  0.9066
 3246TIP3    H131153   5.438   6.649  12.411  1.5211 -1.4060  1.0649
 3246TIP3    H231154   5.368   6.559  12.510  0.7881 -1.2100  0.7298
 3247TIP3   OH231155   6.272   4.996   6.455  0.3222 -0.2700  0.3734
 3247TIP3    H131156   6.331   5.066   6.482 -1.7708  1.3102  1.1427
 3247TIP3    H231157   6.297   4.979   6.364  0.2507  2.2730 -0.2133
 3248TIP3   OH231158   3.413   6.190   3.534 -0.0144  0.3886  0.0754
 3248TIP3    H131159   3.344   6.132   3.501 -0.2989  1.5229 -1.4478
 3248TIP3    H231160   3.395   6.275   3.493  1.9248  0.8725  0.1083
 3249TIP3   OH231161   5.381   1.849   0.461  0.2602  0.5366 -0.1709
 3249TIP3    H131162   5.333   1.870   0.541 -1.1250  1.2839 -1.1453
 3249TIP3    H231163   5.402   1.756   0.469  0.5137  0.6988  1.2259
 3250TIP3   OH231164   3.057   1.556  14.913 -0.3531 -0.5965 -0.1745
 3250TIP3    H131165   3.002   1.505  14.854  0.0908  0.0317 -1.1430
 3250TIP3    H231166   3.144   1.520  14.903 -0.5726 -1.6558  1.4366
 3251TIP3   OH231167   3.232   1.432   1.562 -0.2411 -0.1159 -0.2032
 3251TIP3    H131168   3.141   1.439   1.590  0.3421  0.4520  1.7077
 3251TIP3    H231169   3.227   1.411   1.469 -2.3126 -0.0822 -0.1439
 3252TIP3   OH231170   3.384   4.002   6.352  0.0207  0.7379  0.2962
 3252TIP3    H131171   3.431   4.069   6.303  0.2136  0.1177 -0.4008
 3252TIP3    H231172   3.392   3.923   6.297 -0.9912  0.3831  0.6353
 3253TIP3   OH231173   5.139   6.455   3.351 -0.2975 -0.4181  0.1713
 3253TIP3    H131174   5.049   6.422   3.360 -0.8261  1.1915  1.3300
 3253TIP3    H231175   5.184   6.423   3.428  0.2323 -1.4865 -0.5686
 3254TIP3   OH231176   4.631   0.616  14.586 -0.3301  0.1274 -0.2111
 3254TIP3    H131177   4.725   0.622  14.606 -0.1631 -2.0548 -0.0626
 3254TIP3    H231178   4.626   0.623  14.491 -0.0480  0.4426 -0.2063
 3255TIP3   OH231179   5.930   4.122   2.669 -0.3525  0.1334  0.7165
 3255TIP3    H131180   5.897   4.128   2.759 -0.2218  0.3119  0.7529
 3255TIP3    H231181   5.916   4.209   2.633 -2.2006 -0.4328 -0.0757
 3256TIP3   OH231182   3.610   5.574  13.577  0.0139  0.2851  0.3284
 3256TIP3    H131183   3.687   5.598  13.628  0.6793 -0.9045 -0.0756
 3256TIP3    H231184   3.635   5.592  13.486  0.1035 -0.8097  0.1252
 3257TIP3   OH231185   6.620   3.645  13.175 -0.3006  0.0142 -0.1396
 3257TIP3    H131186   6.636   3.734  13.142 -0.4771  0.1590  0.1566
 3257TIP3    H231187   6.552   3.610  13.118 -0.7952  0.3601  0.2324
 3258TIP3   OH231188   4.378   0.594   4.097  0.2316 -0.0085  0.5571
 3258TIP3    H131189   4.410   0.651   4.167  0.7738 -0.2930  0.5466
 3258TIP3    H231190   4.292   0.564   4.128  0.2416  0.2786  0.8665
 3259TIP3   OH231191   4.476   6.261   3.395  0.0855 -0.1556 -0.5063
 3259TIP3    H131192   4.529   6.305   3.329  0.2818 -0.8704 -0.8399
 3259TIP3    H231193   4.504   6.169   3.391  0.2307 -0.1806  0.7047
 3260TIP3   OH231194   5.101   5.508   2.576 -0.2460  0.2699  0.2288
 3260TIP3    H131195   5.015   5.484   2.541 -0.0895 -0.1273  0.1079
 3260TIP3    H231196   5.087   5.593   2.618 -0.2451  1.2506 -1.6278
 3261TIP3   OH231197   2.377   1.615  13.534 -0.2738 -0.2268  0.3427
 3261TIP3    H131198   2.457   1.566  13.553  1.1762  1.3862 -1.2425
 3261TIP3    H231199   2.406   1.706  13.527 -1.9314  0.2131 -1.8991
 3262TIP3   OH231200   1.413   1.553   3.141  0.1281  0.4837 -0.2657
 3262TIP3    H131201   1.385   1.567   3.050  0.1300 -0.2050 -0.3754
 3262TIP3    H231202   1.374   1.470   3.166  0.6546  0.3559  0.1525
 3263TIP3   OH231203   0.567   1.870   4.492  0.4793 -0.7404 -0.3518
 3263TIP3    H131204   0.507   1.925   4.543  0.3088 -2.2207  1.1507
 3263TIP3    H231205   0.519   1.849   4.412  0.5784  1.2977 -0.9910
 3264TIP3   OH231206   6.679   5.920   4.373  0.0462 -0.2229 -0.2086
 3264TIP3    H131207   6.617   5.902   4.443  0.7683 -2.4052 -0.0332
 3264TIP3    H231208   6.765   5.910   4.414  0.4838  0.2568 -0.9913
 3265TIP3   OH231209   3.550   0.423  11.808  0.3172 -0.2394  0.1382
 3265TIP3    H131210   3.531   0.382  11.724 -0.4940  3.8571 -1.9543
 3265TIP3    H231211   3.469   0.414  11.858  0.1011 -0.9301 -0.3211
 3266TIP3   OH231212   6.215   2.402   5.607 -0.1000  0.0850  0.0968
 3266TIP3    H131213   6.263   2.362   5.534 -1.8695 -1.6596 -0.1759
 3266TIP3    H231214   6.126   2.414   5.574 -0.5266  0.8314  1.4310
 3267TIP3   OH231215   3.627   4.630  13.280 -0.3404 -0.4798 -0.0591
 3267TIP3    H131216   3.588   4.706  13.323  0.1462 -0.7586  0.9123
 3267TIP3    H231217   3.629   4.653  13.187  0.4507  1.0065  0.2887
 3268TIP3   OH231218   1.866   2.310   3.421  0.3957  0.2001 -0.3069
 3268TIP3    H131219   1.839   2.395   3.387  0.2086  0.4313  0.3987
 3268TIP3    H231220   1.893   2.328   3.511 -1.9735 -0.8549  0.6970
 3269TIP3   OH231221   1.231   2.539   1.119 -0.3026  0.1070 -0.2181
 3269TIP3    H131222   1.209   2.557   1.027 -0.8377  0.3013 -0.0524
 3269TIP3    H231223   1.171   2.468   1.144  0.5801 -0.7027 -0.3381
 3270TIP3   OH231224   4.911   3.247   2.785 -0.6276 -0.7517 -0.0733
 3270TIP3    H131225   4.898   3.285   2.872  0.7802 -0.8156  0.1901
 3270TIP3    H231226   4.860   3.303   2.727  0.7379  1.1114  0.4092
 3271TIP3   OH231227   0.352   0.371  15.336 -0.2100  0.8889 -0.1495
 3271TIP3    H131228   0.398   0.414  15.408 -0.5352  2.9952 -1.1222
 3271TIP3    H231229   0.273   0.423  15.323 -0.6328 -0.0133 -1.3931
 3272TIP3   OH231230   0.313   1.022  12.434 -0.0648 -0.3932  0.1334
 3272TIP3    H131231   0.343   0.976  12.356  0.5873  0.3966 -0.0998
 3272TIP3    H231232   0.237   0.973  12.464 -1.8021  0.6113 -2.3331
 3273TIP3   OH231233   0.913   3.721   4.289 -0.3240  0.2350 -0.2616
 3273TIP3    H131234   0.956   3.759   4.212  1.0359  2.6967  1.5988
 3273TIP3    H231235   0.823   3.753   4.284 -0.4576 -0.2197 -1.1472
 3274TIP3   OH231236   3.081   5.145  11.912  0.2668 -0.0668 -0.2165
 3274TIP3    H131237   3.046   5.222  11.868  0.7277  0.5125  0.4028
 3274TIP3    H231238   3.119   5.092  11.842 -2.5965 -1.1939 -1.0759
 3275TIP3   OH231239   3.248   2.997   3.405  0.0600 -0.7667  0.4090
 3275TIP3    H131240   3.247   2.948   3.487 -1.0385  0.4357  1.1405
 3275TIP3    H231241   3.267   3.087   3.430 -4.1063  0.4410 -0.0948
 3276TIP3   OH231242   2.191   4.688   0.943 -0.3536 -0.3637 -0.5605
 3276TIP3    H131243   2.098   4.705   0.927 -0.2690 -0.4893 -1.2214
 3276TIP3    H231244   2.197   4.674   1.037 -1.0019 -0.3392 -0.5100
 3277TIP3   OH231245   1.134   1.958   4.637  0.1565  0.0683  0.0213
 3277TIP3    H131246   1.181   1.961   4.554 -1.8252  0.0695 -1.1553
 3277TIP3    H231247   1.103   2.047   4.651 -0.0738 -0.0739  0.4326
 3278TIP3   OH231248   6.342   0.482   2.632 -0.2420 -0.8357  0.1689
 3278TIP3    H131249   6.284   0.500   2.559 -0.1446 -3.0488 -0.5520
 3278TIP3    H231250   6.423   0.529   2.611 -0.4222 -0.9587 -0.8549
 3279TIP3   OH231251   3.388   1.798  11.009  0.0217 -0.1091  0.0080
 3279TIP3    H131252   3.451   1.736  10.973 -1.4920 -1.1961 -0.8972
 3279TIP3    H231253   3.345   1.836  10.933 -1.1448 -0.2033  0.5902
 3280TIP3   OH231254   3.487   2.856   6.836  0.2827 -0.1035 -0.2061
 3280TIP3    H131255   3.452   2.938   6.871  0.2673 -0.3682  0.4198
 3280TIP3    H231256   3.433   2.788   6.877  0.5584 -0.4436 -0.4035
 3281TIP3   OH231257   0.085   1.105   3.319 -0.2894 -0.2378  0.0649
 3281TIP3    H131258  -0.004   1.103   3.354 -0.1446  2.2059  0.7294
 3281TIP3    H231259   0.085   1.179   3.259  1.7543  1.0597  1.5438
 3282TIP3   OH231260   5.905   4.291   0.559  0.3784  0.9290 -0.4876
 3282TIP3    H131261   5.815   4.259   0.550  1.1113 -2.4701  2.1153
 3282TIP3    H231262   5.948   4.265   0.478 -0.1604 -0.9101 -0.2267
 3283TIP3   OH231263   1.664   1.430  14.681  0.1144  0.0035 -0.1417
 3283TIP3    H131264   1.672   1.355  14.740  0.8999  0.3338  0.1874
 3283TIP3    H231265   1.753   1.465  14.673 -0.2299  0.8947 -0.2862
 3284TIP3   OH231266   3.444   2.073   6.446  0.0734 -0.0148 -0.2116
 3284TIP3    H131267   3.537   2.089   6.432  0.6792  1.0325  3.7116
 3284TIP3    H231268   3.402   2.156   6.426  0.3255  0.1916  0.0993
 3285TIP3   OH231269   6.332   5.550   2.657  0.4721 -0.5968  0.2304
 3285TIP3    H131270   6.304   5.519   2.571 -1.3401  0.2542  0.4741
 3285TIP3    H231271   6.298   5.484   2.718 -1.9958  0.8985  0.6089
 3286TIP3   OH231272   0.407   1.464  14.317 -0.1129 -0.1862  0.2104
 3286TIP3    H131273   0.367   1.546  14.287  1.7506  0.8007  0.2973
 3286TIP3    H231274   0.426   1.479  14.410  0.4612 -0.6261  0.1684
 3287TIP3   OH231275   3.265   4.833  15.902 -1.2003 -0.0277 -0.5357
 3287TIP3    H131276   3.197   4.896  15.879 -0.9764 -0.3300 -2.0975
 3287TIP3    H231277   3.242   4.754  15.854 -0.9281 -0.8406  0.6283
 3288TIP3   OH231278   0.477   5.379  16.871 -0.0331 -0.5296 -0.0283
 3288TIP3    H131279   0.459   5.410  16.960  0.4275  0.3270 -0.2163
 3288TIP3    H231280   0.395   5.394  16.823 -0.2531 -0.9080  0.2264
 3289TIP3   OH231281   0.505   5.485  10.776 -0.3499  0.0722  0.8364
 3289TIP3    H131282   0.423   5.535  10.780 -0.0327  0.5955  0.8457
 3289TIP3    H231283   0.572   5.550  10.755 -0.0983 -0.5358 -0.3071
 3290TIP3   OH231284   1.541   3.424  14.215  0.0576 -0.1559 -0.5565
 3290TIP3    H131285   1.449   3.448  14.219  0.6429  2.2031  1.5657
 3290TIP3    H231286   1.583   3.497  14.170  0.8489 -1.6804 -2.4434
 3291TIP3   OH231287   5.332   2.168  15.338  0.1408 -0.1515 -0.6499
 3291TIP3    H131288   5.364   2.106  15.403  1.3262  0.4522 -0.6399
 3291TIP3    H231289   5.392   2.242  15.343  0.0754  0.0536 -2.2053
 3292TIP3   OH231290   0.256   4.101   6.404  0.7638  0.3111  0.4383
 3292TIP3    H131291   0.188   4.161   6.374  1.8535  0.4025 -2.1254
 3292TIP3    H231292   0.316   4.155   6.455 -0.5661  0.4114  1.9411
 3293TIP3   OH231293   1.755   1.321  11.897 -0.7205  0.1858 -0.0265
 3293TIP3    H131294   1.810   1.397  11.880 -2.7712  1.7912  0.0247
 3293TIP3    H231295   1.681   1.332  11.836 -0.9793 -1.8963 -0.1499
 3294TIP3   OH231296   2.085   3.090   1.205 -0.6865 -0.0888 -0.2810
 3294TIP3    H131297   2.178   3.111   1.204 -0.4760 -0.9731 -0.3484
 3294TIP3    H231298   2.054   3.115   1.118 -0.6441  0.7505 -0.0591
 3295TIP3   OH231299   1.837   4.908  16.292 -0.3437  0.0243 -0.1152
 3295TIP3    H131300   1.860   4.841  16.356  0.4236  1.2459  0.9279
 3295TIP3    H231301   1.769   4.867  16.238 -1.6695 -0.7644  2.0000
 3296TIP3   OH231302   4.639   5.095  16.657  0.3011  0.3771  0.1520
 3296TIP3    H131303   4.716   5.109  16.713 -0.5722 -0.6701  1.6706
 3296TIP3    H231304   4.586   5.032  16.704  0.1947 -1.7459 -2.5636
 3297TIP3   OH231305   0.450   4.706  13.979 -0.2116  0.4905 -0.6613
 3297TIP3    H131306   0.443   4.622  14.024 -1.1937  0.4966 -0.7791
 3297TIP3    H231307   0.396   4.696  13.900 -0.1204  1.1437 -0.8164
 3298TIP3   OH231308   3.727   1.331  11.170  0.1459 -0.1358 -0.0290
 3298TIP3    H131309   3.730   1.355  11.077 -1.2170  0.3571  0.0226
 3298TIP3    H231310   3.705   1.238  11.171 -0.0821 -0.0850 -0.2063
 3299TIP3   OH231311   5.752   6.588   3.074 -0.1779  0.5746  0.7390
 3299TIP3    H131312   5.789   6.618   3.157  1.8352  1.2119 -0.3201
 3299TIP3    H231313   5.686   6.654   3.052 -0.1499  0.8380  1.4163
 3300TIP3   OH231314   2.499   3.174   0.153  0.1893  0.1862 -0.1682
 3300TIP3    H131315   2.573   3.235   0.144  0.2695  0.0306 -0.5865
 3300TIP3    H231316   2.472   3.182   0.244 -0.1867  1.2901 -0.3672
 3301TIP3   OH231317   3.477   3.823   1.618 -0.0725  0.4737  0.1586
 3301TIP3    H131318   3.480   3.730   1.642  0.7231  0.4034 -0.1673
 3301TIP3    H231319   3.496   3.870   1.699 -1.3732  0.3905  0.5216
 3302TIP3   OH231320   1.131   5.543   3.742  0.1298  0.5054  0.1534
 3302TIP3    H131321   1.098   5.621   3.698 -1.2722 -0.3353 -0.3553
 3302TIP3    H231322   1.112   5.471   3.682  1.0269 -0.2889  0.7810
 3303TIP3   OH231323   6.081   5.612  12.743  0.6625 -0.3722 -0.2675
 3303TIP3    H131324   6.049   5.675  12.679  0.3691 -0.1697  0.0769
 3303TIP3    H231325   6.038   5.529  12.718 -0.1541 -0.1017  0.1949
 3304TIP3   OH231326   1.836   1.492  15.323  0.0659 -0.1443 -0.3715
 3304TIP3    H131327   1.927   1.507  15.348  0.4964  0.3455 -2.0731
 3304TIP3    H231328   1.793   1.577  15.337 -0.5013 -0.7210  1.7219
 3305TIP3   OH231329   5.639   6.464  12.814 -0.4444  0.2726  0.2442
 3305TIP3    H131330   5.556   6.491  12.853 -0.5270  1.2774 -0.5810
 3305TIP3    H231331   5.664   6.385  12.861 -1.4391  0.4506  1.0844
 3306TIP3   OH231332   1.559   3.043   0.596  0.1800 -0.1316 -0.7864
 3306TIP3    H131333   1.530   3.037   0.688  0.9099 -1.7713 -0.6208
 3306TIP3    H231334   1.530   2.961   0.557 -0.8503  0.8980 -2.2827
 3307TIP3   OH231335   0.366   1.234   4.584 -0.5253 -0.0187  0.5538
 3307TIP3    H131336   0.336   1.291   4.513 -1.1119 -0.2618  0.5932
 3307TIP3    H231337   0.285   1.204   4.625 -0.1961  0.9680  2.0126
 3308TIP3   OH231338   6.547   5.068   2.081  0.2621  0.0425 -0.1478
 3308TIP3    H131339   6.565   5.131   2.012  0.4626  0.0995 -0.0443
 3308TIP3    H231340   6.522   5.121   2.156  1.2181  0.0432  0.1793
 3309TIP3   OH231341   0.194   0.663  12.011  0.0606  0.2499 -0.5948
 3309TIP3    H131342   0.138   0.588  12.032 -0.6983  1.1208  0.6703
 3309TIP3    H231343   0.145   0.711  11.944 -0.5072  0.7601  0.1708
 3310TIP3   OH231344   1.039   3.787   2.809 -0.4892 -0.7147  0.3235
 3310TIP3    H131345   0.988   3.720   2.762  0.0161 -0.4671 -0.6032
 3310TIP3    H231346   0.974   3.832   2.864 -0.5727 -3.0716  2.3265
 3311TIP3   OH231347   6.765   6.247   2.727  0.2645  0.3445  0.0987
 3311TIP3    H131348   6.722   6.161   2.734 -1.6050  1.3590  2.2911
 3311TIP3    H231349   6.836   6.243   2.791  0.2261  0.4054  0.1447
 3312TIP3   OH231350   3.308   3.904  10.663  0.2354  0.4117 -0.1092
 3312TIP3    H131351   3.238   3.956  10.622  0.4338 -0.3228 -1.4307
 3312TIP3    H231352   3.271   3.816  10.669  0.8039  0.1691 -0.1737
 3313TIP3   OH231353   6.517   4.602   1.172  0.1717 -0.0230  0.0788
 3313TIP3    H131354   6.597   4.583   1.123  1.0890 -2.9321  2.4093
 3313TIP3    H231355   6.546   4.656   1.245 -0.1295 -0.3352  0.4344
 3314TIP3   OH231356   3.806   5.297  14.165  0.1175  0.3348  0.1748
 3314TIP3    H131357   3.880   5.294  14.225  1.1020  1.6855 -0.9151
 3314TIP3    H231358   3.744   5.357  14.205  0.0344 -0.0350  0.6090
 3315TIP3   OH231359   5.030   3.852  11.708 -0.4378  0.3294  0.0197
 3315TIP3    H131360   5.083   3.904  11.768  0.9195 -0.8973 -0.0355
 3315TIP3    H231361   5.092   3.821  11.642 -1.6896  0.7423 -1.4001
 3316TIP3   OH231362   3.551   5.618   0.543 -0.1199 -0.0678 -0.2453
 3316TIP3    H131363   3.613   5.600   0.473 -1.9861 -1.1447 -1.7217
 3316TIP3    H231364   3.605   5.630   0.621  1.8918 -1.6153 -1.3150
 3317TIP3   OH231365   2.804   6.372  12.290 -0.0804  0.2350  0.0971
 3317TIP3    H131366   2.791   6.294  12.344 -1.7960  0.2603 -0.2200
 3317TIP3    H231367   2.782   6.445  12.347 -0.8371  0.3243 -0.2894
 3318TIP3   OH231368   5.562   5.206   3.977  0.2783 -0.2967  0.8172
 3318TIP3    H131369   5.592   5.206   3.886  0.7169 -0.0629  0.9563
 3318TIP3    H231370   5.639   5.179   4.028 -0.1042 -0.9097  1.0770
 3319TIP3   OH231371   4.994   6.682   3.207  0.3707  0.2249  0.2500
 3319TIP3    H131372   5.043   6.764   3.205  0.5856  0.1345  1.2317
 3319TIP3    H231373   5.051   6.622   3.255 -0.5230 -0.0012  1.0479
 3320TIP3   OH231374   3.387   0.501   6.559  0.1107 -0.0139  0.1422
 3320TIP3    H131375   3.377   0.554   6.638 -0.2708  1.1597 -0.6791
 3320TIP3    H231376   3.331   0.543   6.494  0.2386 -1.0955 -0.7004
 3321TIP3   OH231377   5.666   5.918  14.759 -0.7916 -0.4094  0.5845
 3321TIP3    H131378   5.730   5.975  14.801 -0.3170 -0.7896  0.3832
 3321TIP3    H231379   5.674   5.937  14.665 -0.1146 -1.3124  0.4425
 3322TIP3   OH231380   4.975   0.155   3.480  0.0608  1.0136 -0.6943
 3322TIP3    H131381   5.025   0.090   3.431  1.4177  3.2644 -2.4854
 3322TIP3    H231382   4.884   0.142   3.450  0.2443 -0.2570 -0.7515
 3323TIP3   OH231383   4.561   2.042  11.715 -0.4627  0.1627 -0.1996
 3323TIP3    H131384   4.580   2.088  11.797  0.0814 -1.2687  0.5150
 3323TIP3    H231385   4.581   2.106  11.647  1.8927  0.5070  0.7034
 3324TIP3   OH231386   2.294   5.218   4.687 -0.0611 -0.4082  0.0991
 3324TIP3    H131387   2.272   5.212   4.594  1.2366  0.3486 -0.2764
 3324TIP3    H231388   2.301   5.312   4.705 -1.4175 -0.4879  1.2671
 3325TIP3   OH231389   4.428   5.129  12.144  0.0467 -0.8633  0.4480
 3325TIP3    H131390   4.503   5.187  12.131 -0.4946 -0.1289  0.5216
 3325TIP3    H231391   4.447   5.083  12.226 -0.1990  0.3148  1.1855
 3326TIP3   OH231392   1.864   4.200  14.228  0.2899 -0.1834  0.0366
 3326TIP3    H131393   1.906   4.278  14.192 -2.0434  1.2249  0.1072
 3326TIP3    H231394   1.861   4.138  14.155  2.0937 -0.2120 -0.0469
 3327TIP3   OH231395   5.236   1.064   6.359 -0.3564  0.3035  0.2523
 3327TIP3    H131396   5.299   1.036   6.425 -1.4659 -0.7907  0.9179
 3327TIP3    H231397   5.278   1.044   6.275  0.9701  1.4804  0.5996
 3328TIP3   OH231398   3.044   4.981  15.885  0.2497  0.2082 -0.1929
 3328TIP3    H131399   3.044   5.074  15.862 -0.9597  0.3805  0.4548
 3328TIP3    H231400   2.969   4.944  15.840  0.9422 -0.5588 -0.7567
 3329TIP3   OH231401   5.908   1.979   0.094  0.5300  0.3596 -0.0134
 3329TIP3    H131402   5.934   2.003   0.005  0.3961  1.9706  0.3565
 3329TIP3    H231403   5.854   2.052   0.124 -0.2655 -0.6323  1.0393
 3330TIP3   OH231404   3.528   3.786   3.777  0.5905 -0.8246  0.4809
 3330TIP3    H131405   3.550   3.786   3.870  0.3162 -2.0113  0.5582
 3330TIP3    H231406   3.448   3.734   3.770  0.2111 -0.1604 -0.3378
 3331TIP3   OH231407   1.462   0.931  11.363  0.0768 -0.3214 -0.2327
 3331TIP3    H131408   1.414   0.950  11.282 -1.8011  0.7256  1.0438
 3331TIP3    H231409   1.523   1.005  11.373 -0.8389  0.4124  0.1017
 3332TIP3   OH231410   1.040   2.143  15.966  0.1968  0.1966  0.5578
 3332TIP3    H131411   1.058   2.195  16.045  2.8568 -0.1569  0.2793
 3332TIP3    H231412   1.119   2.152  15.913 -1.1390 -0.3878 -1.6417
 3333TIP3   OH231413   5.948   4.232  11.356 -0.1265 -0.2435  0.0502
 3333TIP3    H131414   5.883   4.161  11.352  1.4107 -1.7172  0.0767
 3333TIP3    H231415   5.896   4.312  11.354 -2.0984 -1.3290  2.1753
 3334TIP3   OH231416   2.684   4.614  10.750  0.2492 -0.4042 -0.5080
 3334TIP3    H131417   2.758   4.582  10.698  1.0945 -0.9860  0.9732
 3334TIP3    H231418   2.607   4.579  10.705  0.7251  1.3488 -2.8653
 3335TIP3   OH231419   1.939   6.125  12.598 -0.2866  0.2349  0.8369
 3335TIP3    H131420   1.975   6.203  12.640 -0.1109  0.1505  0.8407
 3335TIP3    H231421   1.976   6.125  12.510 -0.2059  0.0978  0.8714
 3336TIP3   OH231422   3.779   0.882  11.954 -0.3010  0.6499  0.1597
 3336TIP3    H131423   3.772   0.921  11.866 -1.8966 -0.0412 -0.0482
 3336TIP3    H231424   3.872   0.864  11.964 -0.2379 -0.6033 -2.0021
 3337TIP3   OH231425   5.942   1.666  15.649 -0.1859 -0.5026  0.2718
 3337TIP3    H131426   5.884   1.626  15.584 -1.0509 -0.6123  1.1024
 3337TIP3    H231427   6.025   1.678  15.602 -1.0407  0.2346 -1.1210
 3338TIP3   OH231428   0.132   2.017   0.561  0.6831  0.0880 -0.2091
 3338TIP3    H131429   0.190   1.994   0.488 -0.9385 -1.7964 -0.9991
 3338TIP3    H231430   0.045   1.992   0.531 -0.3828  1.5694  1.4671
 3339TIP3   OH231431   1.818   1.078   4.024 -0.3237  0.3171 -0.2117
 3339TIP3    H131432   1.840   0.999   3.974  0.0882 -0.3315  0.9445
 3339TIP3    H231433   1.887   1.140   4.004  0.1906 -0.1664  0.0298
 3340TIP3   OH231434   0.359   6.170  14.633 -0.2708 -0.1391 -0.6440
 3340TIP3    H131435   0.362   6.122  14.550  0.5712  0.0625 -0.7391
 3340TIP3    H231436   0.374   6.104  14.700 -1.1258 -0.3320 -0.6253
 3341TIP3   OH231437   4.513   6.177   1.416  0.2435 -0.2435 -0.1316
 3341TIP3    H131438   4.503   6.110   1.483  0.4507 -0.8337 -0.6901
 3341TIP3    H231439   4.598   6.216   1.433  0.6634 -0.9584 -0.5512
 3342TIP3   OH231440   0.210   3.534   2.837 -0.1887 -0.1541  0.4104
 3342TIP3    H131441   0.174   3.623   2.831 -0.5893 -0.3757 -0.9221
 3342TIP3    H231442   0.301   3.547   2.860 -0.3673  0.5793  0.7414
 3343TIP3   OH231443   2.891   0.024  15.625  0.2312  0.0337 -0.0797
 3343TIP3    H131444   2.871   0.045  15.717 -2.1353  1.7764 -0.8959
 3343TIP3    H231445   2.848   0.093  15.575  1.0986 -1.1204 -2.5561
 3344TIP3   OH231446   3.011   2.277   2.200 -0.2769  0.2339 -0.8546
 3344TIP3    H131447   3.102   2.305   2.192 -0.2518  0.1053 -1.0211
 3344TIP3    H231448   3.011   2.217   2.274 -0.4224  1.0572 -0.1646
 3345TIP3   OH231449   3.715   3.458  15.435 -0.3352 -0.2567 -0.3493
 3345TIP3    H131450   3.797   3.432  15.476  0.8849  0.8136 -1.9669
 3345TIP3    H231451   3.697   3.545  15.469 -0.1683 -0.0215 -0.8451
 3346TIP3   OH231452   0.788   0.744   1.498 -0.2750 -0.3127 -0.3548
 3346TIP3    H131453   0.776   0.733   1.404 -0.5896  1.5174 -0.5785
 3346TIP3    H231454   0.796   0.655   1.533  0.4635 -1.0069 -2.1783
 3347TIP3   OH231455   1.398   0.064  12.295 -0.5321 -0.2604  0.0285
 3347TIP3    H131456   1.450   0.025  12.225 -0.4935  0.3674 -0.2963
 3347TIP3    H231457   1.463   0.091  12.360 -0.5467 -0.5970  0.1824
 3348TIP3   OH231458   0.568   5.822  11.892  0.1260 -0.0710 -0.3913
 3348TIP3    H131459   0.602   5.911  11.879 -0.2258 -0.1152 -1.6795
 3348TIP3    H231460   0.595   5.800  11.982  3.1126  0.0745 -1.1460
 3349TIP3   OH231461   5.019   2.970   1.048  0.0297  0.1460 -0.3754
 3349TIP3    H131462   4.930   3.006   1.044  0.1811  0.3848 -2.1891
 3349TIP3    H231463   5.036   2.937   0.960  1.5234 -0.4564  0.1104
 3350TIP3   OH231464   1.625   2.562   4.756 -0.8393  0.4605  0.0789
 3350TIP3    H131465   1.625   2.657   4.749 -1.6221  0.4614 -0.0555
 3350TIP3    H231466   1.715   2.539   4.778 -0.4931  1.1763 -0.5752
 3351TIP3   OH231467   1.053   3.333  15.108  0.6787  0.2902 -0.0503
 3351TIP3    H131468   1.077   3.426  15.118  0.1097  0.5320 -0.8422
 3351TIP3    H231469   1.135   3.290  15.085  0.9101  0.6310  0.1187
 3352TIP3   OH231470   6.582   2.643   5.666  0.0723  0.0053 -0.4504
 3352TIP3    H131471   6.672   2.649   5.698 -0.7520  2.0495  1.7982
 3352TIP3    H231472   6.556   2.552   5.684  1.3327 -0.3231 -0.1858
 3353TIP3   OH231473   2.416   2.757   6.698 -0.0790 -0.1064  0.3288
 3353TIP3    H131474   2.339   2.766   6.642 -0.0646  0.3212  0.3803
 3353TIP3    H231475   2.420   2.663   6.717 -1.3463  0.0346  1.4031
 3354TIP3   OH231476   5.493   3.445  13.580  0.1893 -0.6191  0.0950
 3354TIP3    H131477   5.521   3.502  13.508 -0.2623 -1.0368 -0.4276
 3354TIP3    H231478   5.430   3.497  13.629 -1.8894 -1.3471 -1.6357
 3355TIP3   OH231479   3.596   1.731   3.654 -0.0766  0.0101  0.0915
 3355TIP3    H131480   3.592   1.730   3.559  0.4272  0.2068  0.0691
 3355TIP3    H231481   3.519   1.781   3.681 -1.0098 -1.2394 -0.1629
 3356TIP3   OH231482   2.176   0.683   4.033  0.0302 -0.6791  0.4252
 3356TIP3    H131483   2.235   0.756   4.015 -0.2639 -0.7998 -1.1577
 3356TIP3    H231484   2.166   0.683   4.129  2.2832 -0.4282  0.7163
 3357TIP3   OH231485   2.232   5.423  16.263  0.3595  0.0723 -0.0413
 3357TIP3    H131486   2.320   5.385  16.259  0.0961 -0.4700 -2.0878
 3357TIP3    H231487   2.203   5.409  16.353  2.0632 -0.4358  0.4556
 3358TIP3   OH231488   3.851   5.818   0.088 -0.6681  0.2609  0.1266
 3358TIP3    H131489   3.886   5.907   0.086  0.1528 -0.0481 -1.6268
 3358TIP3    H231490   3.926   5.763   0.111 -0.8053 -0.0977 -0.2577
 3359TIP3   OH231491   4.422   1.489  15.908  0.2037  0.0730 -0.0266
 3359TIP3    H131492   4.516   1.497  15.919 -0.0157  2.7993  0.6149
 3359TIP3    H231493   4.388   1.576  15.927 -2.4711 -0.8406 -0.1711
 3360TIP3   OH231494   0.606   5.532   4.638  0.1441 -0.2320  0.4060
 3360TIP3    H131495   0.645   5.605   4.591  1.1644 -2.1895 -2.0318
 3360TIP3    H231496   0.512   5.546   4.633  0.3200  0.8658 -0.0409
 3361TIP3   OH231497   1.364   1.088   1.116  0.2848 -0.3189  0.3589
 3361TIP3    H131498   1.445   1.127   1.150  1.0710 -0.5066 -1.2389
 3361TIP3    H231499   1.374   0.994   1.131 -0.2377 -0.2338  1.3471
 3362TIP3   OH231500   1.113   1.578   3.119  0.7444  0.8786 -0.5043
 3362TIP3    H131501   1.131   1.484   3.129  0.3348  0.8878  0.4040
 3362TIP3    H231502   1.157   1.618   3.194 -0.8156  1.1912  0.2664
 3363TIP3   OH231503   4.917   5.383  14.699  0.2800  0.0212 -0.3405
 3363TIP3    H131504   4.922   5.478  14.686  0.6351  0.4478  2.3547
 3363TIP3    H231505   5.005   5.358  14.727  0.5164 -1.3679 -2.1286
 3364TIP3   OH231506   5.026   0.309  13.478 -0.7734  0.4188  0.4090
 3364TIP3    H131507   5.078   0.282  13.402  0.0087  3.5279 -0.2848
 3364TIP3    H231508   4.967   0.235  13.493  1.3980 -1.7732 -0.9937
 3365TIP3   OH231509   6.070   0.789  16.708  0.5669  0.1769 -0.2179
 3365TIP3    H131510   6.037   0.878  16.693 -1.3127 -0.4590 -0.1686
 3365TIP3    H231511   5.997   0.744  16.750  2.2814 -0.7906  1.9019
 3366TIP3   OH231512   1.713   1.258  15.681  0.1415  0.5946  0.1288
 3366TIP3    H131513   1.754   1.338  15.715  0.8166  1.2409 -2.0829
 3366TIP3    H231514   1.783   1.211  15.637 -0.2963 -1.1773  1.2079
 3367TIP3   OH231515   6.173   6.515   0.782  0.1732  0.2082  0.0016
 3367TIP3    H131516   6.236   6.443   0.778  0.4217  0.4482 -0.4967
 3367TIP3    H231517   6.173   6.543   0.873 -0.5804 -0.9977  0.3858
 3368TIP3   OH231518   2.557   6.302  14.605 -0.6724 -0.0641 -0.1345
 3368TIP3    H131519   2.485   6.353  14.569 -1.2106 -0.5394  0.2448
 3368TIP3    H231520   2.541   6.301  14.699  0.1925  0.3701  0.0273
 3369TIP3   OH231521   4.540   3.312  15.247 -0.0698  0.5415  0.0023
 3369TIP3    H131522   4.542   3.391  15.193 -0.7825  0.2467 -0.4737
 3369TIP3    H231523   4.456   3.272  15.227  0.3408 -0.4091  0.1399
 3370TIP3   OH231524   5.553   6.670   4.175 -0.1726  0.3973 -0.4307
 3370TIP3    H131525   5.471   6.622   4.167  0.3167 -0.5446 -0.0217
 3370TIP3    H231526   5.609   6.613   4.229 -0.3818  2.5056  2.2318
 3371TIP3   OH231527   6.045   4.235   0.334  0.1959 -0.2838  0.2562
 3371TIP3    H131528   6.066   4.247   0.242 -0.2284 -1.6210 -0.0328
 3371TIP3    H231529   6.103   4.164   0.363 -1.5418 -1.7824  0.2746
 3372TIP3   OH231530   0.815   0.317   4.252  0.1619 -0.5483  0.1942
 3372TIP3    H131531   0.766   0.398   4.269  0.0534 -0.2575 -1.4168
 3372TIP3    H231532   0.906   0.346   4.239  0.2150 -0.7459  0.1152
 3373TIP3   OH231533   4.134   5.156  10.709  0.9247 -0.3545  0.1179
 3373TIP3    H131534   4.081   5.151  10.789  0.4660  0.2673 -0.1425
 3373TIP3    H231535   4.108   5.079  10.659 -0.0058  0.1271 -0.1642
 3374TIP3   OH231536   2.827   1.809   4.716  0.1180  0.4370 -0.2690
 3374TIP3    H131537   2.816   1.859   4.635 -1.4417  0.8699  0.1795
 3374TIP3    H231538   2.765   1.736   4.707 -0.0227  0.4566  0.4927
 3375TIP3   OH231539   1.584   0.910   0.009  0.4065 -0.1811  0.2190
 3375TIP3    H131540   1.627   0.968   0.072 -0.2909 -0.2854  0.8089
 3375TIP3    H231541   1.496   0.946  -0.001  0.8845  0.5741 -1.6864
 3376TIP3   OH231542   6.281   4.108   5.602 -0.4176  0.0890 -0.1473
 3376TIP3    H131543   6.232   4.071   5.676 -0.4295 -0.4793 -0.4323
 3376TIP3    H231544   6.288   4.036   5.539 -1.0497  0.7734 -1.0248
 3377TIP3   OH231545   5.131   5.429  11.961  0.3045  0.2038 -0.4347
 3377TIP3    H131546   5.173   5.509  11.929 -1.0543  1.1789  0.1087
 3377TIP3    H231547   5.038   5.441  11.940 -0.4662  0.3126  2.6335
 3378TIP3   OH231548   3.844   3.143   5.439 -0.0238  0.5560 -0.2358
 3378TIP3    H131549   3.787   3.183   5.504 -1.0792  2.3742 -2.1560
 3378TIP3    H231550   3.826   3.049   5.446 -0.8566  0.7986  1.3654
 3379TIP3   OH231551   1.371   3.036  14.660  0.0532  0.0761 -0.2487
 3379TIP3    H131552   1.309   3.102  14.690  1.5985  1.1060  0.8457
 3379TIP3    H231553   1.405   3.070  14.577  0.2850  0.3029 -0.0652
 3380TIP3   OH231554   5.880   4.038   3.059 -0.4119  0.3126  0.0655
 3380TIP3    H131555   5.924   4.052   3.143 -1.9449 -3.0726  1.6192
 3380TIP3    H231556   5.916   3.954   3.028 -1.9599  0.0775 -1.1935
 3381TIP3   OH231557   3.720   3.512   3.776  0.1832  0.1710  0.3793
 3381TIP3    H131558   3.812   3.489   3.779  0.2581  0.4899  0.7230
 3381TIP3    H231559   3.719   3.606   3.756 -0.0457  0.2860  0.9036
 3382TIP3   OH231560   5.131   1.692   2.191  0.1511 -0.4754 -0.0108
 3382TIP3    H131561   5.066   1.763   2.187  2.2512  1.5195 -0.3570
 3382TIP3    H231562   5.123   1.649   2.106 -0.9794 -0.5192  0.0988
 3383TIP3   OH231563   3.746   2.888   6.745  1.0095 -0.3052 -0.0561
 3383TIP3    H131564   3.759   2.982   6.730  0.6817 -0.0858  0.9312
 3383TIP3    H231565   3.651   2.879   6.758  1.3080 -0.2588  2.8536
 3384TIP3   OH231566   1.112   3.796   0.746  0.3542 -0.3974  0.2955
 3384TIP3    H131567   1.031   3.790   0.796 -1.1294 -1.3419 -2.0853
 3384TIP3    H231568   1.115   3.887   0.716 -0.7947 -0.7832 -1.0722
 3385TIP3   OH231569   3.048   3.556   3.110  0.0063  0.6181  0.1862
 3385TIP3    H131570   3.076   3.642   3.079 -0.2255  0.4931 -0.3852
 3385TIP3    H231571   2.966   3.540   3.064  0.2001 -0.0333  0.0599
 3386TIP3   OH231572   2.889   3.806  11.880 -0.5175 -0.0473 -0.5653
 3386TIP3    H131573   2.877   3.817  11.785 -1.4279 -0.5488 -0.5260
 3386TIP3    H231574   2.982   3.786  11.891 -0.2547  0.7163 -1.2790
 3387TIP3   OH231575   6.742   4.983   1.179 -0.7730  0.4392 -0.1410
 3387TIP3    H131576   6.765   4.958   1.269 -1.2349 -0.3575 -0.2361
 3387TIP3    H231577   6.808   5.048   1.155 -0.9500  1.0480  0.9563
 3388TIP3   OH231578   0.135   0.581  14.950 -0.2094 -0.2181 -0.0908
 3388TIP3    H131579   0.129   0.595  14.855 -0.7168 -3.7104 -0.6816
 3388TIP3    H231580   0.227   0.594  14.970  0.1579 -0.7245 -1.3312
 3389TIP3   OH231581   3.105   3.642  11.424  0.0169 -0.7559 -0.2486
 3389TIP3    H131582   3.075   3.680  11.342  0.1310 -0.0354  0.0346
 3389TIP3    H231583   3.188   3.600  11.403  0.2772 -0.1601 -0.3974
 3390TIP3   OH231584   4.103   3.418   1.017  0.4344  0.6963 -0.9031
 3390TIP3    H131585   4.175   3.444   0.960  1.0217  0.2656 -0.3566
 3390TIP3    H231586   4.051   3.358   0.963  0.0683  1.5697 -1.5444
 3391TIP3   OH231587   4.948   3.888   1.668 -0.0036 -0.0613 -0.1025
 3391TIP3    H131588   4.949   3.967   1.722 -0.5367  0.4743 -0.8540
 3391TIP3    H231589   4.911   3.916   1.584 -0.0424 -1.0719 -0.4440
 3392TIP3   OH231590   1.722   5.321   0.835  0.1523 -0.0602 -0.5457
 3392TIP3    H131591   1.721   5.234   0.796  1.3918  0.2022 -1.2374
 3392TIP3    H231592   1.793   5.367   0.788  0.8701  0.6658  1.1718
 3393TIP3   OH231593   3.501   2.350   2.063  0.4160 -0.0432  0.1250
 3393TIP3    H131594   3.591   2.316   2.071  0.4997  0.2508  0.4877
 3393TIP3    H231595   3.508   2.442   2.090 -0.1763 -0.2879  1.1614
 3394TIP3   OH231596   2.715   2.700  16.251 -0.5726  0.3174 -0.6156
 3394TIP3    H131597   2.727   2.745  16.334 -0.0485 -1.2672  0.2187
 3394TIP3    H231598   2.765   2.619  16.260  0.0841  0.4112 -2.7523
 3395TIP3   OH231599   6.107   1.216   3.705 -0.5701 -0.1581  0.0491
 3395TIP3    H131600   6.200   1.213   3.728 -0.4177 -1.2761 -0.6463
 3395TIP3    H231601   6.095   1.304   3.668  0.3903 -0.2572 -0.5319
 3396TIP3   OH231602   1.700   6.209  14.972 -0.0625 -0.4414 -0.3791
 3396TIP3    H131603   1.688   6.178  15.062 -0.3050 -1.1777 -0.6514
 3396TIP3    H231604   1.732   6.132  14.925  0.9147  0.1775 -0.7438
 3397TIP3   OH231605   3.407   0.462  16.871  0.4428  0.3753 -0.1682
 3397TIP3    H131606   3.451   0.507  16.943  0.9362 -2.1450  1.2119
 3397TIP3    H231607   3.340   0.524  16.842  1.8824  2.4735  0.7275
 3398TIP3   OH231608   1.159   1.022  14.618 -0.7646 -0.0249  0.1957
 3398TIP3    H131609   1.124   0.984  14.537  0.5190 -2.5471  0.7169
 3398TIP3    H231610   1.183   1.112  14.594 -2.1267 -0.0950 -1.6856
 3399TIP3   OH231611   3.089   1.378   2.218  0.6502  0.1317  0.3556
 3399TIP3    H131612   3.140   1.362   2.138  0.9159  1.1501  0.3070
 3399TIP3    H231613   3.002   1.402   2.186  0.4006 -0.6819  0.4127
 3400TIP3   OH231614   6.027   6.571   4.432  0.1995  0.6045 -0.2313
 3400TIP3    H131615   6.122   6.580   4.421  0.1257 -0.2407 -1.8982
 3400TIP3    H231616   6.008   6.482   4.402 -0.9548  0.2094  1.4976
 3401TIP3   OH231617   5.776   3.232   4.399  0.2310 -0.3521 -0.3920
 3401TIP3    H131618   5.728   3.187   4.469 -0.5822 -0.2060 -0.8467
 3401TIP3    H231619   5.830   3.164   4.360 -1.7416 -1.2348 -1.7429
 3402TIP3   OH231620   0.122   5.728   5.856  0.0096 -0.6233  0.1305
 3402TIP3    H131621   0.101   5.811   5.898 -2.1767 -1.1677  0.2457
 3402TIP3    H231622   0.120   5.663   5.927 -1.6377 -1.2289 -0.4068
 3403TIP3   OH231623   3.488   3.906   1.892 -0.2418 -0.3499 -0.2528
 3403TIP3    H131624   3.456   3.995   1.907 -1.7141 -0.4809 -2.1329
 3403TIP3    H231625   3.576   3.905   1.929  0.7978  2.6481 -2.2408
 3404TIP3   OH231626   2.916   0.158  16.980 -0.0798  0.0399  0.2140
 3404TIP3    H131627   2.918   0.136  17.073  0.0525 -0.2262  0.1466
 3404TIP3    H231628   2.998   0.204  16.964  0.8305 -1.6659 -0.2039
 3405TIP3   OH231629   3.484   1.887   5.476 -0.3036 -0.1189 -0.2296
 3405TIP3    H131630   3.433   1.863   5.398 -1.3921  2.8300 -0.5592
 3405TIP3    H231631   3.568   1.916   5.442 -0.4699  0.3497 -0.2535
 3406TIP3   OH231632   1.885   5.224  12.620  0.1114  0.2764  0.5782
 3406TIP3    H131633   1.898   5.155  12.685 -0.2942 -0.2049  0.1581
 3406TIP3    H231634   1.946   5.201  12.549 -0.4976 -0.0316  0.1464
 3407TIP3   OH231635   5.615   3.828   1.854 -0.0438 -0.0817  0.5652
 3407TIP3    H131636   5.645   3.741   1.878  1.3303  0.9933  3.1339
 3407TIP3    H231637   5.610   3.827   1.759 -0.2210 -2.9788  0.5373
 3408TIP3   OH231638   1.034   6.732   5.269 -0.5075 -0.3553  0.4501
 3408TIP3    H131639   1.100   6.779   5.217 -1.1984 -1.2364 -1.3214
 3408TIP3    H231640   0.988   6.801   5.317 -0.2561  0.6060 -0.6378
 3409TIP3   OH231641   6.014   6.397  15.955  0.0342 -0.1711 -0.1159
 3409TIP3    H131642   5.947   6.353  16.007  0.5938 -0.1428  0.6466
 3409TIP3    H231643   5.973   6.480  15.929  0.1547  0.3714  1.3291
 3410TIP3   OH231644   6.471   6.554   5.281 -0.2339  0.0585 -0.1980
 3410TIP3    H131645   6.387   6.533   5.240  0.4627  0.6856 -2.0894
 3410TIP3    H231646   6.450   6.615   5.351 -1.4003 -0.2409 -0.2720
 3411TIP3   OH231647   5.864   4.352  14.413  0.2365 -0.7631 -0.6940
 3411TIP3    H131648   5.863   4.411  14.489  0.9981 -0.8480 -0.6094
 3411TIP3    H231649   5.831   4.406  14.341  0.1355 -0.4844 -0.4440
 3412TIP3   OH231650   5.743   3.077  11.291  0.6396 -0.6689  0.2272
 3412TIP3    H131651   5.752   3.169  11.266 -1.7095 -0.0999  1.2173
 3412TIP3    H231652   5.833   3.044  11.291  1.6195  1.7587  0.3385
 3413TIP3   OH231653   0.255   3.279   2.047  0.1044  0.3193  0.3546
 3413TIP3    H131654   0.322   3.347   2.046 -1.1563  1.6498 -1.4789
 3413TIP3    H231655   0.257   3.242   1.959  0.2368 -1.5560  1.0911
 3414TIP3   OH231656   4.663   3.977  14.539  0.5760  0.4791 -0.1275
 3414TIP3    H131657   4.635   4.063  14.568 -0.0809 -0.0106  0.7712
 3414TIP3    H231658   4.581   3.932  14.516  0.9415  0.2184 -0.9266
 3415TIP3   OH231659   6.715   3.438   5.546  0.1446 -0.2113  0.3490
 3415TIP3    H131660   6.686   3.354   5.580  1.9804 -1.0095  0.0825
 3415TIP3    H231661   6.673   3.445   5.460  0.8874 -1.4457 -0.1481
 3416TIP3   OH231662   0.808   6.000  12.234 -0.3258 -0.0370  0.3314
 3416TIP3    H131663   0.841   5.958  12.314 -0.4769 -0.7808  0.0190
 3416TIP3    H231664   0.733   6.052  12.263  0.3828  0.7178  0.8654
 3417TIP3   OH231665   2.999   1.157   1.584  0.0128 -0.1129 -0.1409
 3417TIP3    H131666   3.026   1.075   1.626  0.6844 -0.8247 -1.8975
 3417TIP3    H231667   3.006   1.223   1.653 -0.2528 -1.4634  1.2284
 3418TIP3   OH231668   4.199   5.915  12.562 -0.2158  0.2150  0.2605
 3418TIP3    H131669   4.244   5.925  12.478  1.2007 -0.6238  0.8950
 3418TIP3    H231670   4.109   5.891  12.538  0.2049 -0.1611 -1.0163
 3419TIP3   OH231671   0.231   4.253  11.396  0.1740  0.0062 -0.2693
 3419TIP3    H131672   0.176   4.328  11.417  0.1700 -0.0325 -0.1434
 3419TIP3    H231673   0.266   4.273  11.309 -0.3531 -0.1509 -0.5251
 3420TIP3   OH231674   3.507   3.756  14.456  0.0222  0.0364 -0.0144
 3420TIP3    H131675   3.470   3.764  14.544 -0.9172 -1.8958 -0.1944
 3420TIP3    H231676   3.435   3.724  14.402  1.4985 -2.4207 -0.6839
 3421TIP3   OH231677   0.979   5.529  16.053 -1.1202 -0.6664 -0.6818
 3421TIP3    H131678   0.956   5.599  16.114 -1.5520 -0.6186 -0.8952
 3421TIP3    H231679   0.909   5.530  15.988 -0.3906 -0.3539 -1.4888
 3422TIP3   OH231680   4.355   6.639   1.729 -0.0180  0.5620 -0.0471
 3422TIP3    H131681   4.410   6.717   1.717  1.4535 -0.2524  1.0085
 3422TIP3    H231682   4.398   6.572   1.677 -1.5748  0.5482 -1.3734
 3423TIP3   OH231683   0.599   6.315   3.697 -0.1445 -0.4020 -0.1895
 3423TIP3    H131684   0.602   6.234   3.646  0.6200  0.9763 -2.4615
 3423TIP3    H231685   0.682   6.359   3.679 -1.2950  1.7573 -0.5844
 3424TIP3   OH231686   1.702   2.039   4.801  0.1754  0.1827 -0.4444
 3424TIP3    H131687   1.684   2.081   4.885 -1.5390  0.8856 -1.1217
 3424TIP3    H231688   1.756   1.964   4.823  2.3211  1.9997  0.9522
 3425TIP3   OH231689   5.821   4.669  17.193 -0.0974  0.6775  0.2470
 3425TIP3    H131690   5.746   4.724  17.219 -0.1667  0.7560 -0.1185
 3425TIP3    H231691   5.812   4.660  17.098 -0.4351 -0.4810  0.3736
 3426TIP3   OH231692   3.058   2.860   5.366  0.0731 -0.5032 -0.5439
 3426TIP3    H131693   3.114   2.885   5.439 -1.9126 -0.4943  1.0669
 3426TIP3    H231694   3.103   2.787   5.324  1.1978 -0.5963  0.7692
 3427TIP3   OH231695   5.356   3.510  14.031  0.2269 -0.0051  0.0170
 3427TIP3    H131696   5.404   3.557  14.098  1.8128  0.6200 -1.4856
 3427TIP3    H231697   5.414   3.438  14.005  0.1666  0.4336 -1.4417
 3428TIP3   OH231698   0.566   2.836  15.709  0.0745  0.1890 -0.0869
 3428TIP3    H131699   0.660   2.822  15.709 -0.1581 -1.5773  0.8499
 3428TIP3    H231700   0.547   2.877  15.793  0.0048  0.5875 -0.2934
 3429TIP3   OH231701   0.721   5.793   5.776 -0.0737  0.1742  0.4518
 3429TIP3    H131702   0.669   5.865   5.741 -1.8584 -1.1267  0.2286
 3429TIP3    H231703   0.685   5.778   5.864 -0.3175 -0.9361  0.1854
 3430TIP3   OH231704   6.219   5.092   3.832 -0.2308 -0.1373  0.5104
 3430TIP3    H131705   6.191   5.184   3.824 -1.2329 -0.5623 -1.7278
 3430TIP3    H231706   6.315   5.097   3.828 -0.2747  0.7392 -2.3948
 3431TIP3   OH231707   0.246   2.099   1.818 -0.3587 -0.1762 -0.0950
 3431TIP3    H131708   0.215   2.008   1.815  0.2550 -0.3771 -0.8285
 3431TIP3    H231709   0.302   2.102   1.895 -2.1144  0.1826  1.2218
 3432TIP3   OH231710   4.453   1.140  14.160  0.2424 -0.9068 -0.0402
 3432TIP3    H131711   4.401   1.111  14.085 -0.1858  0.3122 -0.2428
 3432TIP3    H231712   4.400   1.116  14.236  0.7093 -2.2060 -0.1110
 3433TIP3   OH231713   3.585   5.668  11.517  0.0583  0.7510 -0.2852
 3433TIP3    H131714   3.556   5.751  11.554  0.9419  1.6899 -1.6270
 3433TIP3    H231715   3.611   5.689  11.427  0.0270 -1.0344 -0.7520
 3434TIP3   OH231716   1.101   4.530  14.844 -0.1337  0.2526 -0.4819
 3434TIP3    H131717   1.167   4.556  14.909  1.2867  0.1155 -1.8177
 3434TIP3    H231718   1.029   4.593  14.857  1.8488  2.9259 -1.4656
 3435TIP3   OH231719   0.690   3.858  12.690  0.1461  0.3107 -0.3344
 3435TIP3    H131720   0.610   3.857  12.743 -0.3500 -0.5567 -1.0719
 3435TIP3    H231721   0.669   3.804  12.614  1.4389  0.0741 -0.5428
 3436TIP3   OH231722   5.565   3.207  16.658 -0.0991 -0.1303  0.2940
 3436TIP3    H131723   5.644   3.207  16.605  0.0389 -1.0015  0.4869
 3436TIP3    H231724   5.527   3.120  16.645 -0.3838 -0.1395  1.1393
 3437TIP3   OH231725   1.742   0.234   4.991 -0.3732 -0.3032  0.4345
 3437TIP3    H131726   1.679   0.194   5.050  0.0852  0.6332  1.5922
 3437TIP3    H231727   1.741   0.178   4.913 -2.2117 -0.6050  0.6488
 3438TIP3   OH231728   3.587   4.962   3.637  0.0542 -0.5379  0.3138
 3438TIP3    H131729   3.649   4.937   3.706  0.8201 -0.4257 -0.3264
 3438TIP3    H231730   3.641   4.997   3.567 -0.7755  0.0425 -0.0562
 3439TIP3   OH231731   0.056   3.510   0.111  0.2109 -0.1728 -0.1403
 3439TIP3    H131732   0.073   3.422   0.144 -1.5382 -0.6368 -0.3581
 3439TIP3    H231733   0.083   3.508   0.019  2.6934  0.3618  0.5118
 3440TIP3   OH231734   6.171   2.668  15.509  0.0474  0.1933  0.2187
 3440TIP3    H131735   6.195   2.740  15.450  0.2016  0.2903  0.3980
 3440TIP3    H231736   6.103   2.621  15.463 -0.3887  0.7326  0.2978
 3441TIP3   OH231737   4.756   3.530   3.835  0.1609  0.0721  0.4490
 3441TIP3    H131738   4.810   3.532   3.914 -0.0965  0.9666  0.6226
 3441TIP3    H231739   4.818   3.513   3.764  0.5093  0.0123  0.7624
 3442TIP3   OH231740   4.009   5.887  17.035  0.0459 -0.1867 -0.1850
 3442TIP3    H131741   3.962   5.962  17.070  0.5050 -0.1721  0.4267
 3442TIP3    H231742   4.048   5.846  17.112 -0.1078 -0.9882 -0.5269
 3443TIP3   OH231743   1.567   0.543  10.946  0.8222  0.2698  0.3526
 3443TIP3    H131744   1.584   0.613  11.009  0.1253  0.9973 -0.2413
 3443TIP3    H231745   1.471   0.539  10.940  0.8772  0.2410 -0.6821
 3444TIP3   OH231746   3.721   0.223  15.585 -0.7556  0.1094  0.3016
 3444TIP3    H131747   3.704   0.206  15.678  2.0738 -0.1699  0.8416
 3444TIP3    H231748   3.771   0.305  15.585 -2.3508  1.1788 -1.2059
 3445TIP3   OH231749   2.443   0.697  13.007  0.5476 -0.3717 -0.1857
 3445TIP3    H131750   2.359   0.670  12.971  0.4598 -0.5854  0.1722
 3445TIP3    H231751   2.470   0.624  13.063  0.7669 -0.1233  0.0364
 3446TIP3   OH231752   3.672   0.198  16.104  0.0730 -0.3406  0.1615
 3446TIP3    H131753   3.722   0.179  16.025 -3.0739 -1.0741 -1.8232
 3446TIP3    H231754   3.605   0.260  16.076  1.0473  2.3547  3.1933
 3447TIP3   OH231755   0.829   4.920  13.201  0.0033 -0.0208  0.3564
 3447TIP3    H131756   0.839   4.837  13.154  0.2820 -0.6342  1.4399
 3447TIP3    H231757   0.879   4.983  13.150 -0.5485 -0.4118 -0.7111
 3448TIP3   OH231758   6.318   3.921   4.148 -0.2985 -0.0036  0.4532
 3448TIP3    H131759   6.337   3.859   4.076  1.1835  0.6130  0.2728
 3448TIP3    H231760   6.224   3.935   4.143 -0.0948  1.1080 -2.3302
 3449TIP3   OH231761   6.288   6.008  14.448  0.6286  0.1986 -0.0919
 3449TIP3    H131762   6.243   5.924  14.438  1.7186 -0.5166  0.7323
 3449TIP3    H231763   6.298   6.018  14.543 -0.5377  1.8652 -0.0942
 3450TIP3   OH231764   0.607   3.237  11.865 -0.2532 -0.1164 -0.1411
 3450TIP3    H131765   0.537   3.279  11.915 -0.8289 -1.1630 -0.0421
 3450TIP3    H231766   0.563   3.172  11.811  0.5838 -0.3804 -0.5261
 3451TIP3   OH231767   1.077   5.075  15.374  0.4852 -0.1477 -0.1733
 3451TIP3    H131768   0.995   5.069  15.324  0.2658  0.6767  0.0656
 3451TIP3    H231769   1.093   4.986  15.404 -1.2770 -0.0405  1.2352
 3452TIP3   OH231770   2.223   6.536  11.417  0.0957  0.0172 -0.5181
 3452TIP3    H131771   2.193   6.531  11.327  0.5563 -0.6743 -0.6408
 3452TIP3    H231772   2.308   6.579  11.412  0.9357 -1.5789 -0.6308
 3453TIP3   OH231773   6.715   2.648  15.435 -0.2693 -0.0221 -0.0825
 3453TIP3    H131774   6.759   2.732  15.423  0.2649 -0.3000 -0.1057
 3453TIP3    H231775   6.664   2.658  15.515  1.5783 -0.4066  1.2133
 3454TIP3   OH231776   6.418   0.806  13.042 -0.1711  0.0319  0.1248
 3454TIP3    H131777   6.474   0.743  13.086 -0.9276  0.6134  2.0481
 3454TIP3    H231778   6.357   0.753  12.991 -0.1801 -0.7590  0.9387
 3455TIP3   OH231779   5.831   0.874  17.213 -0.4194  0.2828  0.2757
 3455TIP3    H131780   5.894   0.912  17.152  1.5066 -0.5203  1.6837
 3455TIP3    H231781   5.778   0.949  17.242  0.1502  1.0515 -0.6102
 3456TIP3   OH231782   3.068   4.041  12.248 -0.1745  0.5450  0.1553
 3456TIP3    H131783   3.010   4.091  12.191  1.5106  1.2988 -0.9930
 3456TIP3    H231784   3.068   4.091  12.330  0.3762  1.6722 -0.5048
 3457TIP3   OH231785   2.846   6.605  10.959  0.2756 -0.5489  0.0979
 3457TIP3    H131786   2.933   6.625  10.925  0.7946  1.3124  2.2828
 3457TIP3    H231787   2.786   6.660  10.907  0.6801 -0.1306  0.0677
 3458TIP3   OH231788   3.062   3.229   4.828 -0.3850  0.9644 -0.4377
 3458TIP3    H131789   3.002   3.290   4.786  0.7754  1.6228 -1.2018
 3458TIP3    H231790   3.037   3.143   4.793 -2.0732  0.9547  0.7041
 3459TIP3   OH231791   1.302   2.391   1.570  0.0397  0.0924  0.3383
 3459TIP3    H131792   1.345   2.306   1.568 -1.2325 -0.6543  2.0853
 3459TIP3    H231793   1.348   2.439   1.639 -1.4134 -0.4679  1.7454
 3460TIP3   OH231794   5.897   5.113  12.504  0.0780  0.2788 -0.0558
 3460TIP3    H131795   5.928   5.124  12.414  0.3183 -0.8898 -0.1293
 3460TIP3    H231796   5.806   5.143  12.502 -0.2352 -0.6505 -0.9427
 3461TIP3   OH231797   4.383   1.058   2.303 -0.0208  0.0516  0.5253
 3461TIP3    H131798   4.439   1.062   2.226 -0.4605 -0.5338  0.1644
 3461TIP3    H231799   4.299   1.026   2.270 -0.4874  0.6515  1.1013
 3462TIP3   OH231800   0.019   1.903   3.208 -0.4095  0.3311  0.4962
 3462TIP3    H131801  -0.030   1.885   3.288 -0.5360  0.9130  0.5508
 3462TIP3    H231802   0.111   1.898   3.235 -0.4541  0.9672  0.7842
 3463TIP3   OH231803   0.323   4.098  11.903  0.5552  0.1083  0.3384
 3463TIP3    H131804   0.319   4.163  11.972 -0.3412 -0.0346  0.4304
 3463TIP3    H231805   0.292   4.143  11.825 -2.5341 -0.8188  0.8992
 3464TIP3   OH231806   0.176   3.540   3.694  0.2971 -0.5809 -0.4284
 3464TIP3    H131807   0.122   3.498   3.761 -0.2341  0.3173 -0.2743
 3464TIP3    H231808   0.265   3.539   3.731  0.2509 -1.3247 -0.3217
 3465TIP3   OH231809   3.523   4.940   1.734  0.5201 -0.1936 -0.5728
 3465TIP3    H131810   3.472   4.999   1.790  1.0126 -1.2854  1.1250
 3465TIP3    H231811   3.479   4.855   1.745  1.1040 -0.5877 -1.2411
 3466TIP3   OH231812   1.091   5.827  14.870 -0.3152 -0.3982 -0.2063
 3466TIP3    H131813   1.131   5.895  14.923 -0.1852 -0.8934  0.3464
 3466TIP3    H231814   1.012   5.867  14.834 -1.1561 -0.4415  1.4767
 3467TIP3   OH231815   5.143   1.915   5.201 -0.0883 -0.2786 -0.6370
 3467TIP3    H131816   5.119   1.828   5.170  3.2584 -0.8836 -1.9818
 3467TIP3    H231817   5.187   1.899   5.285 -3.3987  0.7167  1.4686
 3468TIP3   OH231818   2.299   2.247  14.444  0.3009 -0.4952  0.2801
 3468TIP3    H131819   2.386   2.221  14.413 -0.4275 -3.1414  0.2263
 3468TIP3    H231820   2.315   2.288  14.529  1.5795 -1.3565  0.4793
 3469TIP3   OH231821   2.059   2.418  15.687 -0.3362  0.5963  0.9021
 3469TIP3    H131822   1.980   2.387  15.642  0.9010 -1.4407 -0.0309
 3469TIP3    H231823   2.119   2.439  15.616  0.9305 -0.6478  1.5537
 3470TIP3   OH231824   1.692   0.761  13.504  0.2792 -0.3912  0.1753
 3470TIP3    H131825   1.644   0.757  13.587 -1.1191  0.3008 -0.5684
 3470TIP3    H231826   1.780   0.790  13.529 -0.3087  0.4561  1.3623
 3471TIP3   OH231827   0.791   4.742  15.622 -0.3228  0.1600 -0.0717
 3471TIP3    H131828   0.823   4.831  15.638  1.4365 -0.1369 -1.6498
 3471TIP3    H231829   0.840   4.687  15.683 -0.8335  0.1512  0.3438
 3472TIP3   OH231830   6.314   0.515  14.233  0.5143  0.3580  0.0722
 3472TIP3    H131831   6.332   0.475  14.318  0.6663  0.5719  0.1416
 3472TIP3    H231832   6.348   0.605  14.241  1.1492  0.1750 -0.4378
 3473TIP3   OH231833   6.191   3.684   3.065  0.1668  0.6026  0.2433
 3473TIP3    H131834   6.287   3.691   3.061  0.3202 -1.3973 -0.4529
 3473TIP3    H231835   6.160   3.767   3.030  1.6657  0.6763 -1.0186
 3474TIP3   OH231836   0.596   2.682   3.892 -0.0708 -0.7105  0.5606
 3474TIP3    H131837   0.509   2.712   3.919 -0.9194 -1.5838 -1.0729
 3474TIP3    H231838   0.626   2.628   3.965 -1.3812 -1.3099  0.6799
 3475TIP3   OH231839   3.727   4.340  11.663 -0.0460  0.0196 -0.3772
 3475TIP3    H131840   3.728   4.276  11.592 -1.0698 -0.9257  0.4232
 3475TIP3    H231841   3.742   4.424  11.620 -0.5774 -0.5402 -1.6982
 3476TIP3   OH231842   2.690   1.088   1.526  0.1091  0.1757 -0.1747
 3476TIP3    H131843   2.651   1.021   1.582  0.7893 -0.5632 -0.5729
 3476TIP3    H231844   2.773   1.051   1.498 -0.8092 -0.0832 -2.8535
 3477TIP3   OH231845   5.817   3.854  16.676 -0.2330 -0.2983  0.0170
 3477TIP3    H131846   5.754   3.867  16.606  0.3510  1.3961 -0.2515
 3477TIP3    H231847   5.784   3.779  16.725 -2.0084  0.0401 -0.5823
 3478TIP3   OH231848   4.763   5.231  12.020 -0.5589  0.5563  0.2587
 3478TIP3    H131849   4.713   5.313  12.031  0.7757  1.3833  0.4118
 3478TIP3    H231850   4.837   5.241  12.080 -0.0724 -0.5308 -0.1500
 3479TIP3   OH231851   2.114   1.575   1.904  0.6640  0.1036  0.4331
 3479TIP3    H131852   2.050   1.506   1.887  1.4529 -0.8018  1.0825
 3479TIP3    H231853   2.067   1.636   1.962  0.4983 -0.7511  1.2253
 3480TIP3   OH231854   2.352   3.857   4.390  0.4421 -0.1273 -0.3209
 3480TIP3    H131855   2.419   3.925   4.379  0.8186 -0.5853 -0.9182
 3480TIP3    H231856   2.309   3.851   4.304 -2.0068  1.8181  0.6356
 3481TIP3   OH231857   0.762   1.402  15.192 -0.2372  0.2712  0.6059
 3481TIP3    H131858   0.697   1.358  15.138  0.6242 -2.7588  1.8080
 3481TIP3    H231859   0.713   1.438  15.266 -0.6842 -1.4341  1.1778
 3482TIP3   OH231860   5.505   0.146  16.923 -0.6572  0.3626  0.0462
 3482TIP3    H131861   5.464   0.231  16.937 -1.4617  0.1290 -0.8045
 3482TIP3    H231862   5.573   0.140  16.991 -0.4438  1.7595 -0.0235
 3483TIP3   OH231863   5.665   2.327   4.180  0.2157 -0.2492  0.4557
 3483TIP3    H131864   5.652   2.238   4.145 -1.5882 -0.2932  1.1528
 3483TIP3    H231865   5.659   2.384   4.103 -1.8647 -0.5049  0.3639
 3484TIP3   OH231866   6.596   6.176   3.869  0.2480  0.0952  0.3421
 3484TIP3    H131867   6.658   6.207   3.935 -0.7126  1.2464  0.7370
 3484TIP3    H231868   6.520   6.233   3.879 -0.7250 -1.0297 -0.3932
 3485TIP3   OH231869   4.004   4.382  14.913  0.0343 -0.2667 -0.0260
 3485TIP3    H131870   4.020   4.363  15.005 -1.4080 -1.0667  0.0770
 3485TIP3    H231871   3.939   4.452  14.914  1.4316  1.1003 -0.4557
 3486TIP3   OH231872   4.344   6.484  13.991  0.0563  0.6159  0.1448
 3486TIP3    H131873   4.416   6.471  14.053 -0.2300  1.9628  0.7873
 3486TIP3    H231874   4.325   6.396  13.958 -0.1175 -0.2335  2.3415
 3487TIP3   OH231875   4.138   2.242  14.589 -0.1210  0.0606  0.3792
 3487TIP3    H131876   4.097   2.158  14.610 -0.6408 -0.5434 -2.6312
 3487TIP3    H231877   4.232   2.224  14.590 -0.1655 -0.1832  1.0314
 3488TIP3   OH231878   6.049   4.493   4.137 -0.2964 -0.0031  0.0258
 3488TIP3    H131879   6.053   4.548   4.215 -0.9000  1.1977 -0.7634
 3488TIP3    H231880   5.955   4.485   4.119 -0.1679 -0.4981 -0.4184
 3489TIP3   OH231881   2.546   2.989  12.183  0.0446  0.1499  0.5713
 3489TIP3    H131882   2.543   3.077  12.219 -1.1080 -0.5746  2.4138
 3489TIP3    H231883   2.530   3.000  12.089  1.3523  1.9755  0.5041
 3490TIP3   OH231884   5.869   0.874  16.020 -0.0967 -0.2222 -0.3307
 3490TIP3    H131885   5.849   0.960  16.057 -0.1626 -1.1782  2.0253
 3490TIP3    H231886   5.808   0.814  16.064 -0.3927 -1.4286 -2.2953
 3491TIP3   OH231887   2.252   6.249  12.002 -0.0743 -0.1774 -0.0097
 3491TIP3    H131888   2.305   6.292  11.935 -0.7980  1.0568  0.1772
 3491TIP3    H231889   2.308   6.179  12.036  0.6455 -0.2250 -1.2437
 3492TIP3   OH231890   3.835   4.872  13.490 -0.6206 -0.4394 -0.1926
 3492TIP3    H131891   3.751   4.909  13.462 -1.3059 -1.5799  0.2987
 3492TIP3    H231892   3.813   4.787  13.527  0.6842 -0.4726  0.5660
 3493TIP3   OH231893   5.664   6.258   2.316  0.0182 -0.4863  0.0823
 3493TIP3    H131894   5.659   6.346   2.277 -2.0031 -1.1507 -1.3080
 3493TIP3    H231895   5.635   6.270   2.406  0.4422  0.3858  0.1115
 3494TIP3   OH231896   0.592   4.423  15.690 -0.5509 -0.1410  0.1997
 3494TIP3    H131897   0.591   4.405  15.784  0.5320  0.7423  0.3999
 3494TIP3    H231898   0.575   4.517  15.683 -1.1978 -0.3045 -0.5290
 3495TIP3   OH231899   4.243   2.315   0.060 -0.1549  0.3199  0.2277
 3495TIP3    H131900   4.338   2.322   0.047 -0.4128  2.6212 -0.8143
 3495TIP3    H231901   4.229   2.344   0.150  0.0807  0.4623  0.2200
 3496TIP3   OH231902   1.787   6.413  15.744  0.7204 -0.1350  0.3137
 3496TIP3    H131903   1.844   6.488  15.762  2.6357 -1.5499  0.4147
 3496TIP3    H231904   1.757   6.384  15.830 -1.1901  1.2960  0.2043
 3497TIP3   OH231905   0.853   1.739  16.536  0.0440  0.3182  0.0623
 3497TIP3    H131906   0.820   1.829  16.539  0.0487  0.3093  0.4256
 3497TIP3    H231907   0.885   1.723  16.625  0.2580  0.0387 -0.0672
 3498TIP3   OH231908   1.243   2.920   6.034 -0.7088 -0.5178  0.7315
 3498TIP3    H131909   1.206   2.944   6.119 -0.8791  1.5427  0.1364
 3498TIP3    H231910   1.168   2.917   5.975 -0.3174  0.6404  0.1466
 3499TIP3   OH231911   4.671   6.683   5.216 -0.4695  0.4799 -0.0434
 3499TIP3    H131912   4.717   6.610   5.173 -0.4946  0.4164  0.0364
 3499TIP3    H231913   4.579   6.667   5.198 -0.5772 -0.1844  1.0002
 3500TIP3   OH231914   2.014   6.307  12.769 -0.4854 -0.5181 -0.5220
 3500TIP3    H131915   1.991   6.237  12.831  0.9639 -2.1936 -1.7922
 3500TIP3    H231916   2.059   6.372  12.823 -0.7862 -1.1213  0.4923
 3501TIP3   OH231917   2.639   1.266   4.775  0.2664  0.4008 -0.9983
 3501TIP3    H131918   2.646   1.171   4.770  0.5408  0.4451 -1.4949
 3501TIP3    H231919   2.715   1.299   4.728 -0.0435  0.8659 -1.1886
 3502TIP3   OH231920   0.169   0.360   5.030  0.1705  0.0087 -0.2720
 3502TIP3    H131921   0.191   0.271   5.059 -0.3676  0.1865  0.7127
 3502TIP3    H231922   0.176   0.413   5.109 -2.4159  0.3102 -0.1644
 3503TIP3   OH231923   3.222   2.769   6.047  0.4081  0.2191 -0.0123
 3503TIP3    H131924   3.316   2.754   6.032  0.0569 -0.8160 -1.3456
 3503TIP3    H231925   3.205   2.855   6.010  0.5861 -0.1408 -0.9560
 3504TIP3   OH231926   4.753   4.190   1.059 -0.0037 -0.0766  0.0760
 3504TIP3    H131927   4.673   4.243   1.060  0.4581  0.6610 -0.5835
 3504TIP3    H231928   4.759   4.159   0.968  0.5752  0.0712  0.0619
 3505TIP3   OH231929   5.739   0.566   5.155  0.0815 -0.1436  0.4269
 3505TIP3    H131930   5.780   0.614   5.227  0.2625 -0.2187  0.3745
 3505TIP3    H231931   5.710   0.633   5.094 -1.7633  0.0377  1.4501
 3506TIP3   OH231932   2.684   2.906   4.232  1.2089  0.2196  0.3068
 3506TIP3    H131933   2.640   2.918   4.316 -1.0477 -0.0032 -0.7518
 3506TIP3    H231934   2.682   2.811   4.218 -2.1943  0.4020 -1.7096
 3507TIP3   OH231935   0.042   3.365   3.132  0.3116  0.1470  0.2724
 3507TIP3    H131936  -0.039   3.349   3.084 -0.4810  1.0631  1.2608
 3507TIP3    H231937   0.048   3.460   3.139  1.7431  0.1203 -0.2048
 3508TIP3   OH231938   0.397   1.477  14.974  0.0592 -0.0176 -0.5148
 3508TIP3    H131939   0.417   1.505  15.064  0.2351  1.5905 -1.0253
 3508TIP3    H231940   0.480   1.441  14.942  0.3072  0.4529 -0.4087
 3509TIP3   OH231941   4.850   1.661   6.101 -0.3168  0.2955 -0.0509
 3509TIP3    H131942   4.802   1.608   6.038  1.8370 -1.1539 -0.5580
 3509TIP3    H231943   4.788   1.673   6.174 -1.5740 -1.1337 -0.8296
 3510TIP3   OH231944   5.566   5.253  11.323 -0.1503 -0.0961 -0.4291
 3510TIP3    H131945   5.578   5.242  11.417  1.0577 -0.4066 -0.6110
 3510TIP3    H231946   5.618   5.331  11.301  1.4986 -1.3715 -1.2056
 3511TIP3   OH231947   2.709   3.075  16.557 -0.3794 -0.0239  0.0057
 3511TIP3    H131948   2.790   3.079  16.506 -1.7724 -0.4832 -2.3837
 3511TIP3    H231949   2.736   3.100  16.646  2.7520 -2.1581 -0.1807
 3512TIP3   OH231950   1.648   0.169  13.641 -0.1138  0.4571  0.2490
 3512TIP3    H131951   1.641   0.196  13.732  3.4826 -0.1162  0.8375
 3512TIP3    H231952   1.623   0.077  13.640  1.7082 -0.0922  1.1193
 3513TIP3   OH231953   6.468   4.085  11.836 -0.0266  0.1517 -0.2398
 3513TIP3    H131954   6.528   4.049  11.901  0.1929  0.1461 -0.4429
 3513TIP3    H231955   6.525   4.122  11.768 -0.2520  0.0255 -0.5012
 3514TIP3   OH231956   6.656   4.293   0.334  0.0233  0.3041 -0.1535
 3514TIP3    H131957   6.643   4.388   0.337  1.4428  0.5447 -0.9730
 3514TIP3    H231958   6.611   4.261   0.412 -0.8345  1.5975 -0.0777
 3515TIP3   OH231959   0.391   6.482  13.763  0.2096  0.2541 -0.0760
 3515TIP3    H131960   0.339   6.429  13.703  1.5509 -0.1324 -0.9426
 3515TIP3    H231961   0.371   6.573  13.738 -1.3638  0.1775  0.7818
 3516TIP3   OH231962   0.926   3.675   5.034 -0.5281  0.2531 -0.6423
 3516TIP3    H131963   0.883   3.589   5.032  2.9057 -1.7048  0.4971
 3516TIP3    H231964   0.877   3.725   5.098 -2.2636 -1.0449 -0.8830
 3517TIP3   OH231965   2.506   5.354  11.414 -0.2324  0.2399 -0.0579
 3517TIP3    H131966   2.514   5.337  11.320 -0.4508  2.6508 -0.5959
 3517TIP3    H231967   2.569   5.295  11.455 -2.0740 -2.9320 -1.3962
 3518TIP3   OH231968   0.965   1.917  15.783  0.0929  0.4818  0.9311
 3518TIP3    H131969   1.014   1.836  15.769 -1.0391 -0.1776  0.6566
 3518TIP3    H231970   0.959   1.926  15.879 -2.6912 -1.6583  1.0874
 3519TIP3   OH231971   4.775   2.253  14.136  0.1026  0.2554  0.3265
 3519TIP3    H131972   4.838   2.185  14.158 -1.8835 -1.1554  2.0750
 3519TIP3    H231973   4.707   2.207  14.086  0.0741  1.5719 -0.9168
 3520TIP3   OH231974   6.231   6.205  13.736 -0.0869 -0.2058  0.4020
 3520TIP3    H131975   6.202   6.285  13.779  1.2584 -0.2117  1.4072
 3520TIP3    H231976   6.163   6.141  13.755 -0.2472  0.2029  1.2337
 3521TIP3   OH231977   4.322   1.380   1.751 -0.7762  0.1074  0.1463
 3521TIP3    H131978   4.319   1.465   1.796  1.1766 -0.2478  1.0731
 3521TIP3    H231979   4.303   1.401   1.660 -3.7806  0.9946  0.8711
 3522TIP3   OH231980   5.818   4.253  12.143 -0.1443 -0.2880  0.1621
 3522TIP3    H131981   5.776   4.338  12.152 -1.0414 -0.7304  0.2922
 3522TIP3    H231982   5.875   4.263  12.066  2.3311  1.4085  2.0707
 3523TIP3   OH231983   2.406   3.059   6.726 -0.3315  0.2020  0.1483
 3523TIP3    H131984   2.438   2.973   6.698 -2.4996 -0.4084 -0.7333
 3523TIP3    H231985   2.478   3.097   6.776  0.7346 -2.0772  0.4772
 3524TIP3   OH231986   6.638   5.657  11.704 -0.7460 -0.6126 -0.3607
 3524TIP3    H131987   6.709   5.602  11.738  1.7619  2.1473 -0.7921
 3524TIP3    H231988   6.605   5.704  11.780 -0.7253 -0.3979 -0.4841
 3525TIP3   OH231989   2.521   2.797  11.595 -0.6792 -0.1799  0.7022
 3525TIP3    H131990   2.489   2.726  11.651 -0.4706  0.1643  1.2717
 3525TIP3    H231991   2.589   2.840  11.648 -1.2353  0.8249  0.6139
 3526TIP3   OH231992   2.246   1.144   4.463 -0.2354  0.6322 -0.2797
 3526TIP3    H131993   2.187   1.083   4.417  0.3826  0.4873 -0.9028
 3526TIP3    H231994   2.320   1.155   4.403  1.1937 -0.5157  1.1809
 3527TIP3   OH231995   4.500   6.240  10.873  0.1532 -0.3213  0.5170
 3527TIP3    H131996   4.466   6.326  10.900  1.5425 -0.0900  1.7033
 3527TIP3    H231997   4.555   6.212  10.947  0.0420 -2.0599 -0.0161
 3528TIP3   OH231998   3.427   5.469   3.962 -0.2097 -0.1128  0.0167
 3528TIP3    H131999   3.506   5.518   3.937 -0.8973  1.2443  0.4049
 3528TIP3    H232000   3.416   5.488   4.055 -1.4678  0.4060 -0.2279
 3529TIP3   OH232001   4.712   3.776  17.114 -0.1018  0.0845  0.0181
 3529TIP3    H132002   4.669   3.734  17.189  2.4172  0.5495  1.8724
 3529TIP3    H232003   4.778   3.712  17.086  1.0706  1.1509  0.2642
 3530TIP3   OH232004   6.736   0.816   2.068  0.0004 -0.4399  0.1659
 3530TIP3    H132005   6.754   0.722   2.062  1.1481 -0.1939 -0.4917
 3530TIP3    H232006   6.814   0.853   2.109 -0.4147  0.2399  0.3576
 3531TIP3   OH232007   4.237   3.545   4.101 -0.0026  1.0822 -0.2567
 3531TIP3    H132008   4.273   3.578   4.183 -1.2761  0.7481  0.4601
 3531TIP3    H232009   4.158   3.597   4.086 -0.2679  0.5383 -0.7923
 3532TIP3   OH232010   2.286   2.978  16.582  0.0295  0.1281 -0.3066
 3532TIP3    H132011   2.301   2.915  16.652 -1.5231  2.1455  2.0247
 3532TIP3    H232012   2.314   3.062  16.618  2.0147  0.9112 -3.2616
 3533TIP3   OH232013   4.184   1.972  16.015  0.2450  0.6121  0.1314
 3533TIP3    H132014   4.154   2.051  16.060 -1.7115 -0.2280  0.3978
 3533TIP3    H232015   4.270   1.996  15.980  0.3386  2.3806  1.4184
 3534TIP3   OH232016   3.107   1.525  11.056  0.5713  0.0507  0.0283
 3534TIP3    H132017   3.044   1.495  11.122 -1.1386  1.4092 -0.9177
 3534TIP3    H232018   3.122   1.448  11.001  1.3628 -0.8587  1.4245
 3535TIP3   OH232019   0.228   4.851  11.429  0.3111  0.2497  0.0763
 3535TIP3    H132020   0.228   4.772  11.375 -3.5703  0.5659 -0.6421
 3535TIP3    H232021   0.314   4.851  11.471  1.0243 -3.5534 -1.0095
 3536TIP3   OH232022   1.663   3.860  16.790  0.0178  0.2596 -0.3943
 3536TIP3    H132023   1.607   3.795  16.747  0.1872  0.7129 -1.3117
 3536TIP3    H232024   1.601   3.920  16.833 -0.1711  0.2332 -0.6298
 3537TIP3   OH232025   6.737   5.288  11.916  0.0271 -0.2422  0.5504
 3537TIP3    H132026   6.797   5.361  11.900 -0.7131  0.2744  0.0753
 3537TIP3    H232027   6.747   5.232  11.839 -0.7787  0.3275  0.0168
 3538TIP3   OH232028   1.884   1.693   2.744 -0.0962  0.2953 -0.3799
 3538TIP3    H132029   1.893   1.681   2.649  0.8315 -0.2686 -0.2313
 3538TIP3    H232030   1.793   1.718   2.756 -0.0300  1.1452 -1.4969
 3539TIP3   OH232031   4.194   4.487  14.366  0.0700 -0.0264 -0.2897
 3539TIP3    H132032   4.116   4.435  14.348  0.4480 -0.5197 -0.5175
 3539TIP3    H232033   4.240   4.438  14.434  0.6803 -0.2538 -0.8582
 3540TIP3   OH232034   5.859   6.766   1.112  0.1563  0.5425 -0.2871
 3540TIP3    H132035   5.891   6.704   1.177 -3.3317 -0.8146  0.3157
 3540TIP3    H232036   5.884   6.852   1.146  0.7565 -0.2741  1.4484
 3541TIP3   OH232037   6.764   4.084   1.184  0.1801 -0.1444 -0.2131
 3541TIP3    H132038   6.825   4.137   1.235  0.9782 -0.0243 -1.2452
 3541TIP3    H232039   6.809   4.070   1.100 -1.2358  0.0054 -1.0326
 3542TIP3   OH232040   2.258   4.727   5.284  0.1493  0.1805  0.0412
 3542TIP3    H132041   2.195   4.656   5.298 -0.0392 -0.1846 -2.1637
 3542TIP3    H232042   2.262   4.773   5.367 -3.3686  0.4819  0.2059
 3543TIP3   OH232043   2.784   5.153   0.655 -0.0740 -0.5211  0.1156
 3543TIP3    H132044   2.755   5.189   0.571  0.6017 -0.0951  0.0559
 3543TIP3    H232045   2.721   5.084   0.675 -1.5299  0.8296  0.3361
 3544TIP3   OH232046   2.666   3.613  15.953  0.0762  1.0945 -0.2350
 3544TIP3    H132047   2.598   3.593  16.018  0.9766  2.2493  1.1149
 3544TIP3    H232048   2.619   3.618  15.870 -1.1224 -0.3369  0.3179
 3545TIP3   OH232049   0.304   1.720  12.849  0.0576 -0.1624  0.3029
 3545TIP3    H132050   0.241   1.749  12.916 -0.7331  2.3169 -1.3843
 3545TIP3    H232051   0.330   1.800  12.804  2.5813 -1.4359 -0.7074
 3546TIP3   OH232052   3.392   0.684   5.576  0.1888 -0.2607 -0.3427
 3546TIP3    H132053   3.335   0.712   5.504 -0.9211 -0.3858  0.4540
 3546TIP3    H232054   3.359   0.732   5.652  2.3381  1.0825 -0.1881
 3547TIP3   OH232055   6.127   1.561   4.523 -0.5759 -0.2930  0.2702
 3547TIP3    H132056   6.063   1.632   4.520 -1.6286 -1.1653  1.1077
 3547TIP3    H232057   6.210   1.604   4.543 -1.5035  0.5562  2.6299
 3548TIP3   OH232058   6.430   1.132  15.675 -0.0351 -0.7169  0.5143
 3548TIP3    H132059   6.475   1.068  15.729 -0.1552 -1.4276 -0.2066
 3548TIP3    H232060   6.338   1.104  15.675  0.2608 -1.8865 -1.5912
 3549TIP3   OH232061   6.222   5.821   3.940 -0.4597  0.6749  0.4482
 3549TIP3    H132062   6.158   5.807   3.871 -0.3921 -0.9210  0.6702
 3549TIP3    H232063   6.176   5.874   4.006 -0.5945  2.0045 -0.6716
 3550TIP3   OH232064   1.803   6.717  12.970 -0.3431 -0.5723  0.6053
 3550TIP3    H132065   1.897   6.725  12.986 -0.2540 -1.2346  0.4710
 3550TIP3    H232066   1.762   6.746  13.051 -0.1334  2.1248 -0.1725
 3551TIP3   OH232067   2.615   0.918  11.389  0.0300 -0.0880  0.6647
 3551TIP3    H132068   2.687   0.962  11.344  0.3468  1.3195  2.4569
 3551TIP3    H232069   2.595   0.842  11.334  0.2699  1.6039 -1.9075
 3552TIP3   OH232070   6.423   1.819  14.508 -0.3040  0.2220  0.0769
 3552TIP3    H132071   6.484   1.861  14.569  1.2370  0.6425 -1.6714
 3552TIP3    H232072   6.478   1.790  14.436 -1.6799 -2.6011  0.0251
 3553TIP3   OH232073   2.116   0.665   4.329 -0.0678  0.2964  0.0423
 3553TIP3    H132074   2.044   0.605   4.310  1.8318 -2.2359  0.4282
 3553TIP3    H232075   2.124   0.664   4.424 -0.0366  1.2552  0.0634
 3554TIP3   OH232076   5.232   6.399  15.708  0.2051  0.0760  0.2950
 3554TIP3    H132077   5.308   6.434  15.755 -0.5725 -0.7266  2.2409
 3554TIP3    H232078   5.246   6.305  15.706 -1.5844 -0.3096  2.4027
 3555TIP3   OH232079   3.898   1.816   6.080 -0.7196 -0.0647  0.1782
 3555TIP3    H132080   3.945   1.877   6.136  2.2154  0.7100 -2.8689
 3555TIP3    H232081   3.958   1.743   6.067 -2.1267 -1.1878 -0.3795
 3556TIP3   OH232082   0.736   6.280  17.013 -0.2445 -0.1277 -0.4524
 3556TIP3    H132083   0.643   6.269  17.032 -0.0681  2.1385  2.5272
 3556TIP3    H232084   0.777   6.198  17.041 -1.2061 -0.7146 -0.7404
 3557TIP3   OH232085   3.393   0.594   2.462  0.1030  0.2878  0.3006
 3557TIP3    H132086   3.322   0.576   2.524  0.6130  0.7718  1.0495
 3557TIP3    H232087   3.473   0.582   2.513  0.6081 -1.1655 -0.7828
 3558TIP3   OH232088   4.081   3.547   0.573  0.8745 -0.0515  0.3670
 3558TIP3    H132089   4.100   3.505   0.490 -0.4539  0.0306 -0.0039
 3558TIP3    H232090   3.991   3.520   0.594  0.0220  2.3875  0.2037
 3559TIP3   OH232091   1.944   1.460  10.957 -1.0548  0.3059 -0.0910
 3559TIP3    H132092   1.888   1.420  10.890 -0.4385 -0.4165 -0.1935
 3559TIP3    H232093   2.033   1.452  10.921 -0.7376  0.0657  0.7331
 3560TIP3   OH232094   5.460   1.131  16.096  0.3396  0.5593 -0.0812
 3560TIP3    H132095   5.397   1.064  16.072  0.0451  0.4516  0.9559
 3560TIP3    H232096   5.538   1.110  16.045  0.2496 -0.5657  0.2310
 3561TIP3   OH232097   5.703   6.557  12.434 -0.4258 -0.1273  0.1211
 3561TIP3    H132098   5.617   6.581  12.471 -0.7662 -0.7434 -0.2663
 3561TIP3    H232099   5.765   6.616  12.479 -0.9685 -0.1038  0.8652
 3562TIP3   OH232100   2.574   4.677  10.434  0.6374  0.5771  0.0189
 3562TIP3    H132101   2.603   4.603  10.381  0.3042  0.6093 -0.2128
 3562TIP3    H232102   2.509   4.640  10.494  1.9005  0.2897  1.2671
 3563TIP3   OH232103   6.555   3.963  16.729  0.1097  0.0170  0.3414
 3563TIP3    H132104   6.506   3.882  16.716  0.1481  0.0245  0.1504
 3563TIP3    H232105   6.529   3.994  16.816  0.3343 -0.3667  0.5464
 3564TIP3   OH232106   2.974   2.718   3.316 -0.2108 -0.1361 -0.2344
 3564TIP3    H132107   2.920   2.641   3.299  0.7608 -0.8227 -0.3079
 3564TIP3    H232108   2.927   2.790   3.273 -0.8698 -0.7772 -0.6154
 3565TIP3   OH232109   4.645   4.387  16.845 -0.2940  0.0316  0.1626
 3565TIP3    H132110   4.683   4.427  16.923 -0.1362 -0.8043  0.5232
 3565TIP3    H232111   4.719   4.344  16.802 -0.6514 -0.7967  0.3631
 3566TIP3   OH232112   3.688   4.454   2.896  0.0433 -0.1555  0.1346
 3566TIP3    H132113   3.627   4.380   2.902 -0.6057  0.4441  1.1376
 3566TIP3    H232114   3.632   4.531   2.901  0.7289  0.4198 -0.7360
 3567TIP3   OH232115   1.303   3.417  12.155  0.2105 -0.2522  0.8261
 3567TIP3    H132116   1.369   3.487  12.165 -1.5134  1.2301  3.0078
 3567TIP3    H232117   1.222   3.464  12.135 -0.5302 -1.8991 -0.2094
 3568TIP3   OH232118   2.010   2.069   0.347  0.7066  0.3606 -0.4860
 3568TIP3    H132119   2.082   2.020   0.387  1.3854  0.7734 -1.1700
 3568TIP3    H232120   1.937   2.060   0.408  0.7955 -1.5505 -0.6050
 3569TIP3   OH232121   2.733   0.273   5.785  0.4818  0.8968 -0.3160
 3569TIP3    H132122   2.739   0.228   5.869 -0.2979  2.6457  0.7436
 3569TIP3    H232123   2.813   0.248   5.739  0.4204 -0.9527  0.4802
 3570TIP3   OH232124   0.681   4.998   4.042 -0.0990 -0.2195  0.0558
 3570TIP3    H132125   0.740   4.990   3.967 -0.5636 -1.5437 -0.1917
 3570TIP3    H232126   0.738   5.029   4.113  0.8328 -1.1075 -0.2733
 3571TIP3   OH232127   2.725   0.753  11.971 -0.1516 -0.2784 -0.3547
 3571TIP3    H132128   2.799   0.703  12.005  0.9964  0.3489 -1.7941
 3571TIP3    H232129   2.749   0.844  11.988 -0.6035 -0.0733 -0.8105
 3572TIP3   OH232130   0.913   2.781  12.314 -0.6492 -0.1415  0.1640
 3572TIP3    H132131   0.826   2.755  12.345  0.3829 -2.9200  0.9772
 3572TIP3    H232132   0.944   2.707  12.263  1.0230  1.0613 -0.6563
 3573TIP3   OH232133   6.555   4.285   6.042 -0.0627  0.0976  0.1471
 3573TIP3    H132134   6.581   4.327   6.124 -0.0613  0.1869  0.1005
 3573TIP3    H232135   6.459   4.289   6.042 -0.2127 -1.8098  1.1721
 3574TIP3   OH232136   4.166   4.770  15.321  0.9178  0.2557  0.2990
 3574TIP3    H132137   4.252   4.735  15.345  1.3186  0.2069 -1.0997
 3574TIP3    H232138   4.104   4.714  15.367  1.6140 -0.4773  0.3768
 3575TIP3   OH232139   6.467   2.990  12.036 -0.2912  0.0753 -0.0126
 3575TIP3    H132140   6.558   3.008  12.060 -0.1862 -0.9998  0.4691
 3575TIP3    H232141   6.423   3.075  12.040  0.4711  0.4436  0.7457
 3576TIP3   OH232142   0.353   0.200  12.852  0.4445 -0.4424  0.1583
 3576TIP3    H132143   0.421   0.169  12.911 -1.8800 -4.5099  1.1077
 3576TIP3    H232144   0.274   0.153  12.879 -2.3893  2.5945 -1.9994
 3577TIP3   OH232145   3.030   0.794   3.546  0.0210  0.4087  0.1521
 3577TIP3    H132146   3.016   0.813   3.639 -0.4873  0.6708  0.0240
 3577TIP3    H232147   3.005   0.874   3.501 -1.5398 -0.3340 -0.3439
 3578TIP3   OH232148   4.539   4.386   2.327 -0.2165  0.3189 -0.0319
 3578TIP3    H132149   4.574   4.475   2.336 -1.3889  0.8228 -0.2792
 3578TIP3    H232150   4.462   4.385   2.384  0.2040 -0.7870  0.5520
 3579TIP3   OH232151   3.823   6.509   1.396  0.1059  0.0149  0.7255
 3579TIP3    H132152   3.791   6.419   1.403  0.5099 -0.2769 -0.8276
 3579TIP3    H232153   3.886   6.507   1.324 -0.5701  1.7175  0.0300
 3580TIP3   OH232154   4.335   0.506  15.566 -0.9103  0.4527  0.4884
 3580TIP3    H132155   4.255   0.503  15.514 -0.2762 -1.3939 -0.4733
 3580TIP3    H232156   4.306   0.487  15.655 -1.4759 -1.2881 -0.0145
 3581TIP3   OH232157   1.186   4.374  16.131 -0.2812  0.3919 -0.5769
 3581TIP3    H132158   1.173   4.469  16.129 -0.1566  0.3962 -1.3799
 3581TIP3    H232159   1.112   4.338  16.082 -2.0501 -0.1550  2.2363
 3582TIP3   OH232160   5.207   2.474  11.198  0.1797 -0.2494  0.1425
 3582TIP3    H132161   5.215   2.524  11.280 -0.4825 -0.9074  0.6275
 3582TIP3    H232162   5.113   2.460  11.189  0.2195  0.0972 -0.9213
 3583TIP3   OH232163   2.654   2.204  16.430  0.4435 -0.2017 -0.9006
 3583TIP3    H132164   2.709   2.159  16.494 -0.3144 -1.3000 -0.9917
 3583TIP3    H232165   2.635   2.138  16.364 -2.0372 -0.2794 -0.2099
 3584TIP3   OH232166   4.826   0.444   3.822  0.0945 -0.4166  0.2091
 3584TIP3    H132167   4.863   0.485   3.900  0.4998 -1.1066  0.3882
 3584TIP3    H232168   4.900   0.398   3.782  0.3979  1.5936 -1.7197
 3585TIP3   OH232169   5.285   3.310  16.964  0.6995 -0.3842 -0.2819
 3585TIP3    H132170   5.329   3.372  16.906  0.8810 -0.2474  0.0031
 3585TIP3    H232171   5.320   3.224  16.939  1.2058 -0.2673  0.0118
 3586TIP3   OH232172   5.758   3.043  16.259  0.1212  0.8418  0.1344
 3586TIP3    H132173   5.852   3.025  16.266  0.0566  0.7395  0.8117
 3586TIP3    H232174   5.739   3.036  16.166  0.6289  0.0678  0.0829
 3587TIP3   OH232175   4.930   6.223  13.478  0.2471 -0.3472 -0.6730
 3587TIP3    H132176   4.965   6.309  13.503 -0.2151 -0.0501 -1.0344
 3587TIP3    H232177   4.950   6.166  13.552 -0.7982  0.4282  0.2345
 3588TIP3   OH232178   4.352   2.510  11.401 -0.2264  0.6442  0.0878
 3588TIP3    H132179   4.304   2.578  11.447  0.2178 -0.4419  2.2730
 3588TIP3    H232180   4.284   2.448  11.372 -0.4345  0.9244 -0.0290
 3589TIP3   OH232181   2.568   2.045   4.789  0.3979  0.0380  0.0623
 3589TIP3    H132182   2.531   1.959   4.807 -2.0964  1.0370  0.0664
 3589TIP3    H232183   2.646   2.050   4.844 -0.5936 -1.4211  1.6915
 3590TIP3   OH232184   3.501   5.970   5.298 -0.0256  0.1391 -0.0562
 3590TIP3    H132185   3.474   5.957   5.389  0.3312  0.1064  0.0453
 3590TIP3    H232186   3.524   5.883   5.267 -1.2414 -0.0348 -0.5374
 3591TIP3   OH232187   1.430   2.598   1.734  0.2006  0.4049 -0.3840
 3591TIP3    H132188   1.492   2.573   1.665 -0.1486 -0.7816 -0.2971
 3591TIP3    H232189   1.485   2.613   1.811  0.4701  0.3152 -0.5545
 3592TIP3   OH232190   5.921   4.549   0.914 -0.0880  0.1281  0.4242
 3592TIP3    H132191   5.871   4.621   0.876 -0.7948 -1.3570 -1.6527
 3592TIP3    H232192   5.904   4.555   1.008 -0.5007  2.3490  0.2609
 3593TIP3   OH232193   3.876   1.795   5.490 -0.0435 -0.6201 -0.5756
 3593TIP3    H132194   3.932   1.867   5.519  0.9353 -1.3051 -0.7507
 3593TIP3    H232195   3.847   1.821   5.403  0.2500 -0.4074 -0.6122
 3594TIP3   OH232196   3.765   3.594  14.859 -0.2479 -0.3480  0.3073
 3594TIP3    H132197   3.739   3.594  14.767  1.9872  2.4559 -0.4704
 3594TIP3    H232198   3.845   3.543  14.862  0.7841  1.1958  0.2289
 3595TIP3   OH232199   2.836   0.032  15.024  0.3903  0.6957  0.1344
 3595TIP3    H132200   2.871  -0.057  15.026  0.1584  0.6215  1.1025
 3595TIP3    H232201   2.767   0.032  15.090  2.3866  2.4188  2.3664
 3596TIP3   OH232202   5.712   0.405  14.645 -0.2185 -0.0216  0.4547
 3596TIP3    H132203   5.713   0.334  14.708 -1.2423 -0.2491  0.2239
 3596TIP3    H232204   5.623   0.406  14.610  0.5985 -0.6516 -1.8318
 3597TIP3   OH232205   0.496   3.344  15.955  0.1164  0.2508 -0.6015
 3597TIP3    H132206   0.566   3.326  15.892  1.0855 -0.3608  0.5927
 3597TIP3    H232207   0.519   3.428  15.994 -0.3596  0.5254 -0.9153
 3598TIP3   OH232208   1.241   6.123  12.957  0.2016 -0.3754  0.2247
 3598TIP3    H132209   1.221   6.129  12.864  1.1609 -1.5242 -0.0741
 3598TIP3    H232210   1.253   6.030  12.974 -0.0591 -0.1924  1.5205
 3599TIP3   OH232211   5.131   4.114   2.061 -0.4365  0.0364 -0.4952
 3599TIP3    H132212   5.099   4.122   1.971  0.3527 -1.5022 -0.9387
 3599TIP3    H232213   5.223   4.139   2.056 -0.4472  0.1885 -0.0525
 3600TIP3   OH232214   6.586   0.102  16.565 -0.3523 -0.5732 -0.3820
 3600TIP3    H132215   6.668   0.144  16.540  0.4967 -1.4924  0.7264
 3600TIP3    H232216   6.523   0.174  16.573  1.3819  0.7970  2.8914
 3601TIP3   OH232217   4.879   6.074  16.940  0.1785 -0.0495 -0.8410
 3601TIP3    H132218   4.910   6.162  16.918 -0.8476  0.7665  0.8115
 3601TIP3    H232219   4.785   6.077  16.925  0.0230 -0.6247 -0.0524
 3602TIP3   OH232220   4.849   5.311  12.559 -0.5850  0.3139 -0.6643
 3602TIP3    H132221   4.845   5.390  12.506 -3.0499  0.0853 -0.9349
 3602TIP3    H232222   4.758   5.284  12.569  0.1299 -2.0913  0.0432
 3603TIP3   OH232223   4.042   0.823   4.232  0.5903  0.0456  0.6325
 3603TIP3    H132224   4.105   0.799   4.300  0.5938 -1.7636  0.0382
 3603TIP3    H232225   3.988   0.744   4.220 -0.5438  0.9148 -0.2262
 3604TIP3   OH232226   2.522   2.881   2.142 -0.0997  0.1855 -0.0688
 3604TIP3    H132227   2.549   2.802   2.096  1.3422  0.5169  0.1774
 3604TIP3    H232228   2.492   2.850   2.227  0.8527 -0.0656  0.1814
 3605TIP3   OH232229   2.936   4.078   5.732  0.2884  0.1041  0.0597
 3605TIP3    H132230   2.943   4.163   5.688 -2.5830  0.2814 -0.2334
 3605TIP3    H232231   2.859   4.087   5.789 -0.3644 -2.4378 -0.3137
 3606TIP3   OH232232   2.343   2.012   0.513  0.2988  0.1275  0.1980
 3606TIP3    H132233   2.351   1.965   0.430  1.7699 -0.6850  0.7588
 3606TIP3    H232234   2.425   1.993   0.559 -0.1660  1.1805  1.5210
 3607TIP3   OH232235   4.162   0.081   1.485  0.4759  0.4802  0.2749
 3607TIP3    H132236   4.213   0.161   1.500 -1.2601  1.8302 -0.6878
 3607TIP3    H232237   4.117   0.066   1.569  1.7965 -0.2891  0.8830
 3608TIP3   OH232238   1.401   2.912  13.362  0.0599 -0.4169  0.6102
 3608TIP3    H132239   1.459   2.933  13.288  0.2294 -2.8014 -0.0226
 3608TIP3    H232240   1.461   2.885  13.432 -0.1811 -1.8701  0.2987
 3609TIP3   OH232241   3.364   3.743   0.400  0.2235  0.3805 -0.4337
 3609TIP3    H132242   3.298   3.759   0.467  0.2339 -0.4084 -0.2262
 3609TIP3    H232243   3.446   3.773   0.438  0.1147  0.6136 -0.3810
 3610TIP3   OH232244   3.530   6.362  16.663 -0.2518 -0.3112 -0.2776
 3610TIP3    H132245   3.599   6.355  16.597  0.2449 -0.3940  0.2449
 3610TIP3    H232246   3.519   6.456  16.676  0.2365 -0.3034  0.1207
 3611TIP3   OH232247   4.323   6.415   3.004  0.0212  0.1045  0.7125
 3611TIP3    H132248   4.386   6.486   2.994  1.0770 -0.7158  1.4219
 3611TIP3    H232249   4.297   6.394   2.914  0.1981  0.9342  0.4579
 3612TIP3   OH232250   2.348   3.982   2.153 -0.7346 -0.2686  0.3876
 3612TIP3    H132251   2.260   4.005   2.183 -0.4647 -1.1307  1.9269
 3612TIP3    H232252   2.341   3.890   2.126 -0.5441 -0.0209 -0.5600
 3613TIP3   OH232253   1.642   0.175   5.668 -0.2634 -0.0818 -0.2697
 3613TIP3    H132254   1.588   0.103   5.700 -0.2355  0.8778  2.1448
 3613TIP3    H232255   1.732   0.145   5.680 -0.1793 -0.9504 -2.5627
 3614TIP3   OH232256   3.991   5.701   4.046  0.6533 -0.0657 -0.0330
 3614TIP3    H132257   3.979   5.672   3.956  0.6373 -1.2674  0.3429
 3614TIP3    H232258   4.064   5.763   4.042  1.9786 -1.5869 -0.6173
 3615TIP3   OH232259   3.041   1.847  11.796  0.1919  0.3144  0.0916
 3615TIP3    H132260   3.059   1.791  11.721  0.1714  0.6668 -0.1758
 3615TIP3    H232261   3.090   1.806  11.868 -0.0904 -0.2367 -0.0192
 3616TIP3   OH232262   6.050   0.737   0.589 -0.1596 -0.8417  0.0842
 3616TIP3    H132263   5.962   0.751   0.626 -1.0582 -1.2093 -1.7750
 3616TIP3    H232264   6.107   0.728   0.665 -1.8352 -1.2298  1.3628
 3617TIP3   OH232265   1.077   0.186  13.168  0.0732 -0.7114  0.5891
 3617TIP3    H132266   1.016   0.228  13.107  0.6126  1.0400  1.1712
 3617TIP3    H232267   1.134   0.134  13.112  0.8334  1.2000 -0.5356
 3618TIP3   OH232268   0.988   5.574  13.033 -0.5851 -0.0131  0.2580
 3618TIP3    H132269   1.028   5.581  12.947  0.1456 -0.8164  0.5086
 3618TIP3    H232270   0.919   5.640  13.034  0.4122  1.0745 -0.3720
 3619TIP3   OH232271   4.565   2.275   4.660 -0.1848 -0.4576  0.0679
 3619TIP3    H132272   4.568   2.180   4.667 -0.4065 -0.7586 -2.7016
 3619TIP3    H232273   4.473   2.297   4.669 -0.2861 -0.6543 -0.4469
 3620TIP3   OH232274   6.172   4.026  16.794 -0.6600 -0.2130  0.3404
 3620TIP3    H132275   6.133   4.041  16.880  1.4009 -1.0124  1.4572
 3620TIP3    H232276   6.246   4.087  16.790 -0.5002 -0.4532 -0.7118
 3621TIP3   OH232277   3.342   6.600  12.753  0.8571 -0.5607 -0.3721
 3621TIP3    H132278   3.390   6.517  12.746  0.4903 -1.0332  1.8613
 3621TIP3    H232279   3.345   6.621  12.846 -0.4490  1.1333 -0.6684
 3622TIP3   OH232280   2.319   5.897  16.762 -0.1399 -0.2484  0.2103
 3622TIP3    H132281   2.337   5.984  16.727 -1.3883  0.2076  0.6642
 3622TIP3    H232282   2.405   5.859  16.777  0.4209  0.8674 -0.0901
 3623TIP3   OH232283   1.565   4.691   1.628 -0.2354  0.0203  0.0704
 3623TIP3    H132284   1.628   4.636   1.675 -2.4178 -2.0679  0.7580
 3623TIP3    H232285   1.549   4.644   1.546 -0.9692  0.4471 -0.0394
 3624TIP3   OH232286   3.998   1.254  14.451  0.5375  0.2642  0.3470
 3624TIP3    H132287   3.938   1.326  14.433  1.5626  0.9925 -0.2065
 3624TIP3    H232288   4.031   1.271  14.539  0.4285  0.2092  0.3996
 3625TIP3   OH232289   1.104   5.409  12.239 -0.5897 -0.2920  0.1123
 3625TIP3    H132290   1.135   5.459  12.314 -0.6744  0.3342 -0.2575
 3625TIP3    H232291   1.179   5.355  12.214 -0.3066  0.0587  0.1826
 3626TIP3   OH232292   4.198   5.819  16.816  0.1450  0.5038 -0.5073
 3626TIP3    H132293   4.179   5.728  16.795  2.6224 -0.0391 -0.6956
 3626TIP3    H232294   4.132   5.843  16.881 -0.4351 -1.4765 -0.2930
 3627TIP3   OH232295   4.780   6.419   1.247  0.4329 -0.3211 -0.0539
 3627TIP3    H132296   4.709   6.475   1.217 -0.2010 -0.6630  0.7627
 3627TIP3    H232297   4.848   6.429   1.181  0.6978  2.0797  0.4703
 3628TIP3   OH232298   3.957   0.250   3.497 -0.4893  0.4248 -0.4782
 3628TIP3    H132299   4.039   0.287   3.466 -0.0706 -0.6596 -0.7111
 3628TIP3    H232300   3.895   0.262   3.425  0.0625 -0.6878 -1.1714
 3629TIP3   OH232301   2.173   4.936  15.371 -0.0306 -0.0534 -1.0423
 3629TIP3    H132302   2.162   4.959  15.279  0.5166 -1.2994 -1.4589
 3629TIP3    H232303   2.086   4.910  15.400 -0.3190  0.9097 -1.0389
 3630TIP3   OH232304   1.341   6.525   5.042  0.4333  0.2321 -0.0845
 3630TIP3    H132305   1.435   6.540   5.042  0.8929 -2.2348 -0.8321
 3630TIP3    H232306   1.325   6.470   5.119 -0.8521  2.5781  1.4680
 3631TIP3   OH232307   1.966   6.170  14.184  0.2538 -0.7066  0.4732
 3631TIP3    H132308   1.933   6.133  14.266  1.0301  0.0033  1.1200
 3631TIP3    H232309   1.898   6.232  14.157 -0.0819 -1.0664  0.4788
 3632TIP3   OH232310   4.881   2.208   6.909  0.0013  0.0944 -0.2552
 3632TIP3    H132311   4.850   2.274   6.846  0.3849  0.1947 -0.3406
 3632TIP3    H232312   4.870   2.125   6.864  2.7554  0.3283 -1.5322
 3633TIP3   OH232313   0.541   3.232   5.678 -0.3289 -0.5078  0.0918
 3633TIP3    H132314   0.489   3.151   5.674 -1.8154  0.4708 -1.6820
 3633TIP3    H232315   0.482   3.297   5.716  0.6701 -0.0840  0.9728
 3634TIP3   OH232316   3.966   1.389   5.060 -0.0362 -0.3323 -0.2135
 3634TIP3    H132317   3.974   1.342   4.977 -1.6685  1.2492 -1.3318
 3634TIP3    H232318   3.887   1.442   5.051  0.7412  1.2872  1.6526
 3635TIP3   OH232319   2.375   6.498   5.686 -0.0843 -0.6739 -0.1881
 3635TIP3    H132320   2.388   6.589   5.659  0.5576 -0.9966 -1.0040
 3635TIP3    H232321   2.335   6.504   5.773  2.9383  0.4571  1.2928
 3636TIP3   OH232322   0.647   2.041   5.816 -0.5310 -0.0703  0.2346
 3636TIP3    H132323   0.680   2.119   5.861 -0.1550  0.7329 -1.3443
 3636TIP3    H232324   0.688   2.045   5.729 -2.1092 -0.9265 -0.5853
 3637TIP3   OH232325   0.512   0.707   0.050 -0.7909  0.0843  0.2553
 3637TIP3    H132326   0.447   0.654   0.095 -3.2673  2.8556  0.2372
 3637TIP3    H232327   0.520   0.786   0.104 -1.2557  1.9876 -2.2913
 3638TIP3   OH232328   2.950   1.573   4.104  0.0348 -0.6637  0.0578
 3638TIP3    H132329   2.878   1.612   4.054 -0.5306 -0.7852  0.7735
 3638TIP3    H232330   2.934   1.479   4.099  0.4179 -0.7215 -0.1803
 3639TIP3   OH232331   1.254   3.891  15.337  0.7157  0.3154  0.3189
 3639TIP3    H132332   1.341   3.856  15.360  0.9472  0.1220 -0.8120
 3639TIP3    H232333   1.255   3.980  15.372  1.3216  0.2684  0.4440
 3640TIP3   OH232334   0.577   2.034  15.059  0.2006  0.9527 -0.3439
 3640TIP3    H132335   0.575   1.940  15.043 -0.1529  0.0816  3.6794
 3640TIP3    H232336   0.495   2.066  15.023 -1.0899 -0.8887  0.7768
 3641TIP3   OH232337   1.006   1.299   1.944 -0.1483 -0.0463 -0.1902
 3641TIP3    H132338   0.973   1.216   1.909 -0.8618  0.1239  0.0577
 3641TIP3    H232339   0.965   1.306   2.030 -0.0445  0.5405 -0.1861
 3642TIP3   OH232340   2.291   5.635   0.521  0.2087 -0.3853  0.6208
 3642TIP3    H132341   2.368   5.680   0.557 -0.8626  1.6405  0.5203
 3642TIP3    H232342   2.217   5.687   0.551 -0.9546 -0.6089 -1.6597
 3643TIP3   OH232343   2.510   1.667   0.127 -0.0422  0.3935  0.4907
 3643TIP3    H132344   2.447   1.647   0.196  2.0733  0.4105  2.5222
 3643TIP3    H232345   2.588   1.699   0.173  2.0662 -1.1148 -1.7603
 3644TIP3   OH232346   6.421   1.674  13.766 -0.3663  0.3899 -0.0927
 3644TIP3    H132347   6.405   1.583  13.744 -1.2861  0.9751 -2.1559
 3644TIP3    H232348   6.380   1.687  13.851 -2.2471 -0.5850 -0.8035
 3645TIP3   OH232349   3.142   0.885   6.140  0.1458 -0.7835 -0.1501
 3645TIP3    H132350   3.224   0.891   6.189  0.3152 -0.4348 -0.4673
 3645TIP3    H232351   3.092   0.816   6.184  0.4573 -0.7454  0.2685
 3646TIP3   OH232352   6.133   5.810  15.021  0.0531  0.4854  0.2704
 3646TIP3    H132353   6.093   5.804  15.108  0.4796  0.4491  0.4669
 3646TIP3    H232354   6.095   5.737  14.972  1.0100 -0.4767  0.9243
 3647TIP3   OH232355   5.074   2.834   0.778  0.2731 -0.4781 -0.1890
 3647TIP3    H132356   4.997   2.778   0.780 -0.0109 -0.0832  0.3800
 3647TIP3    H232357   5.145   2.780   0.812  0.5236 -1.2077 -1.7416
 3648TIP3   OH232358   4.954   6.058  12.403 -0.3269 -0.7892 -0.0386
 3648TIP3    H132359   5.043   6.084  12.428 -0.0585 -0.4265 -1.3145
 3648TIP3    H232360   4.927   5.997  12.472  1.0473 -1.1728  0.1916
 3649TIP3   OH232361   6.725   6.246  14.223 -0.4207 -0.5367  0.7426
 3649TIP3    H132362   6.663   6.174  14.235 -0.0814 -0.7903  0.9960
 3649TIP3    H232363   6.701   6.310  14.291 -0.1605 -0.8075  1.0918
 3650TIP3   OH232364   1.585   4.702   2.587  0.8502 -0.1719 -0.1041
 3650TIP3    H132365   1.611   4.612   2.609  2.9252  0.1667 -0.8940
 3650TIP3    H232366   1.568   4.700   2.493 -0.6419 -0.0367  0.1379
 3651TIP3   OH232367   1.484   2.548   1.045  0.4393  0.1982 -0.5608
 3651TIP3    H132368   1.512   2.627   1.092  0.2361  1.4072 -2.3644
 3651TIP3    H232369   1.396   2.531   1.079  1.2456 -0.5169  1.3176
 3652TIP3   OH232370   3.734   2.432  13.771 -0.0149 -0.8397 -0.4871
 3652TIP3    H132371   3.753   2.522  13.747 -0.1280 -0.2976  1.3541
 3652TIP3    H232372   3.806   2.406  13.828 -1.0712 -1.1704  0.7322
 3653TIP3   OH232373   0.584   4.150  11.683 -0.1487 -0.0538  0.0976
 3653TIP3    H132374   0.671   4.131  11.716 -0.6094  0.3696  1.6088
 3653TIP3    H232375   0.579   4.103  11.599  2.3392  1.8045 -1.2239
 3654TIP3   OH232376   1.071   2.411   3.629  0.0310  0.2692 -0.2833
 3654TIP3    H132377   1.122   2.477   3.582  1.8520 -0.0802  1.0884
 3654TIP3    H232378   1.135   2.345   3.656 -1.6705 -2.0028 -1.3956
 3655TIP3   OH232379   0.101   6.503   5.492 -0.3128  0.0897 -0.4425
 3655TIP3    H132380   0.084   6.430   5.551  0.4262 -0.4703 -0.9236
 3655TIP3    H232381   0.188   6.487   5.457  0.2113  1.6224  0.0597
 3656TIP3   OH232382   1.976   1.158   5.954  0.0392  0.5072  0.0678
 3656TIP3    H132383   1.960   1.087   6.016 -0.3800 -0.0956 -0.7152
 3656TIP3    H232384   2.053   1.203   5.988 -0.5367  0.5743  1.3622
 3657TIP3   OH232385   5.553   0.409  16.089  0.3473 -0.6617 -0.1128
 3657TIP3    H132386   5.633   0.431  16.135  0.6655 -2.2195  0.1445
 3657TIP3    H232387   5.483   0.434  16.150  0.5380  1.6727 -0.7588
 3658TIP3   OH232388   5.651   0.957  13.498  0.3262 -0.4719  0.0234
 3658TIP3    H132389   5.573   0.908  13.521  0.6460 -1.4522 -0.9278
 3658TIP3    H232390   5.656   0.953  13.403 -0.0307  2.0490 -0.1715
 3659TIP3   OH232391   0.802   6.182  15.861  0.1698  0.2842  0.2078
 3659TIP3    H132392   0.839   6.148  15.780 -2.7748 -1.3995 -0.5880
 3659TIP3    H232393   0.712   6.149  15.863 -0.0942  0.6981  3.9162
 3660TIP3   OH232394   0.623   3.077   0.911  0.1935 -0.5443 -1.0583
 3660TIP3    H132395   0.575   3.045   0.835  0.2981 -0.7830 -1.0248
 3660TIP3    H232396   0.567   3.057   0.986 -0.0320 -0.0614 -1.0985
 3661TIP3   OH232397   4.937   2.617   0.822 -0.3880  0.6477  0.2899
 3661TIP3    H132398   4.913   2.625   0.729  0.6082  2.9585  0.1753
 3661TIP3    H232399   4.860   2.650   0.868 -0.6944 -0.0501  0.2987
 3662TIP3   OH232400   2.648   3.716   4.261  0.5404 -0.4298  0.0169
 3662TIP3    H132401   2.611   3.700   4.174  0.1554 -1.0347  0.2894
 3662TIP3    H232402   2.602   3.655   4.318 -0.0423  0.7582  0.8503
 3663TIP3   OH232403   1.968   2.715  13.711 -0.2265  0.4881 -0.0903
 3663TIP3    H132404   1.873   2.716  13.725 -0.4472 -0.0565 -1.3733
 3663TIP3    H232405   1.983   2.783  13.644  0.3765  0.9856  0.5337
 3664TIP3   OH232406   5.615   0.555  13.258  0.6281 -0.1650 -0.1663
 3664TIP3    H132407   5.555   0.482  13.270 -0.2138  0.7277  1.3752
 3664TIP3    H232408   5.582   0.600  13.180 -0.4770  0.0657  0.4107
 3665TIP3   OH232409   0.953   4.589   5.925 -0.0238  0.0169  0.1909
 3665TIP3    H132410   0.882   4.560   5.867  0.7815 -0.0696 -0.7578
 3665TIP3    H232411   0.983   4.671   5.887  3.0199 -1.8323 -1.7700
 3666TIP3   OH232412   6.723   3.597   4.148 -0.6914 -0.0080  0.6508
 3666TIP3    H132413   6.752   3.510   4.175  2.6038  1.1563  1.3939
 3666TIP3    H232414   6.714   3.646   4.230 -1.3139  0.6922  0.1747
 3667TIP3   OH232415   5.256   1.574  13.445  0.9139  0.1652 -0.4461
 3667TIP3    H132416   5.189   1.611  13.501  0.6333  2.3481 -2.0980
 3667TIP3    H232417   5.276   1.489  13.484 -1.6483  0.1339  0.9733
 3668TIP3   OH232418   0.931   0.774  15.613  0.1590 -0.8280  0.1139
 3668TIP3    H132419   0.836   0.780  15.611  0.1290 -1.0672  0.6539
 3668TIP3    H232420   0.955   0.810  15.699  0.5682 -0.5841 -0.0990
 3669TIP3   OH232421   1.944   6.199  17.008 -0.4895 -0.1055  0.7571
 3669TIP3    H132422   2.028   6.164  16.979 -0.5292  0.2625  0.1715
 3669TIP3    H232423   1.911   6.136  17.072 -0.2873 -0.8112  0.1664
 3670TIP3   OH232424   0.103   1.776   4.294 -0.2663 -0.0279 -0.5212
 3670TIP3    H132425   0.151   1.842   4.344 -0.8698  0.0295  0.0043
 3670TIP3    H232426   0.100   1.811   4.205 -1.8300  1.3963  0.0332
 3671TIP3   OH232427   2.209   6.501  11.152 -0.1980 -0.3069  0.1915
 3671TIP3    H132428   2.178   6.434  11.090  0.6552 -0.1953 -0.3747
 3671TIP3    H232429   2.172   6.583  11.119  1.7360  0.0537 -1.3240
 3672TIP3   OH232430   4.076   5.131  13.790  0.4508  0.1303 -0.0273
 3672TIP3    H132431   4.098   5.039  13.778  0.9223  0.1966  0.2888
 3672TIP3    H232432   3.995   5.143  13.741 -0.2284 -0.7087  0.8429
 3673TIP3   OH232433   5.841   1.713   1.169  0.2510 -0.1937 -0.4069
 3673TIP3    H132434   5.877   1.780   1.110 -0.7752 -0.6221 -1.5501
 3673TIP3    H232435   5.765   1.755   1.209  1.1704  0.2366  0.9751
 3674TIP3   OH232436   1.757   1.280   0.413 -0.1319 -0.9888 -0.4834
 3674TIP3    H132437   1.739   1.197   0.369  2.6096 -2.1846  0.4982
 3674TIP3    H232438   1.837   1.312   0.372  0.4494 -0.3086  1.1386
 3675TIP3   OH232439   4.144   1.769   3.096  0.0001 -0.1851  0.3628
 3675TIP3    H132440   4.141   1.757   3.191 -0.8393 -1.6187  0.1896
 3675TIP3    H232441   4.086   1.843   3.079  1.9311  1.6064  1.1243
 3676TIP3   OH232442   0.374   0.459   5.642 -0.2992 -0.5576  0.0309
 3676TIP3    H132443   0.309   0.435   5.708 -0.8472 -2.3086 -1.0554
 3676TIP3    H232444   0.336   0.428   5.560  1.0380  0.1790 -0.8989
 3677TIP3   OH232445   3.655   0.527   1.083  0.0910  0.4688  0.1710
 3677TIP3    H132446   3.747   0.509   1.066  0.0823  1.1757 -0.6854
 3677TIP3    H232447   3.623   0.450   1.130  1.1525  0.2940  0.6241
 3678TIP3   OH232448   3.623   4.593   1.756  0.5598  0.0346 -0.1751
 3678TIP3    H132449   3.594   4.626   1.841  1.7225  2.0016 -0.5044
 3678TIP3    H232450   3.546   4.546   1.722 -0.8526  1.5719  0.7401
 3679TIP3   OH232451   0.447   5.775  16.832 -0.2627 -0.0952 -0.1983
 3679TIP3    H132452   0.504   5.842  16.869 -1.0577  0.8665 -0.6760
 3679TIP3    H232453   0.394   5.745  16.906 -1.4017  1.3625 -0.3745
 3680TIP3   OH232454   4.236   2.297   4.631  0.1618 -0.7292 -0.2550
 3680TIP3    H132455   4.212   2.210   4.663 -0.2453 -0.0825  1.2853
 3680TIP3    H232456   4.182   2.309   4.553 -1.1304 -1.1707  0.5212
 3681TIP3   OH232457   0.132   3.698  17.080  0.7254  0.2502  0.7514
 3681TIP3    H132458   0.073   3.627  17.053  0.3218  0.8770 -0.0878
 3681TIP3    H232459   0.077   3.776  17.078  0.8361  0.4314  2.9111
 3682TIP3   OH232460   0.024   3.452  11.078 -0.3549  0.5647 -0.8117
 3682TIP3    H132461  -0.018   3.502  11.008 -0.4310  1.3912 -0.1855
 3682TIP3    H232462   0.102   3.502  11.101 -0.3447  0.3230 -0.2885
 3683TIP3   OH232463   3.086   5.563   4.849 -0.1579  0.0774  0.2460
 3683TIP3    H132464   3.168   5.576   4.802  1.5782 -0.0534  3.0227
 3683TIP3    H232465   3.021   5.550   4.780  2.2533 -0.6344 -2.0669
 3684TIP3   OH232466   2.795   3.729  12.804  0.0449 -0.3371 -0.1592
 3684TIP3    H132467   2.797   3.773  12.889 -0.4653 -0.2815 -0.1741
 3684TIP3    H232468   2.728   3.776  12.754 -0.5310 -1.1440 -0.1634
 3685TIP3   OH232469   1.883   2.499   3.692 -0.3057 -0.7051  0.1116
 3685TIP3    H132470   1.976   2.509   3.671  0.0231 -1.7093  0.9953
 3685TIP3    H232471   1.842   2.576   3.655  0.8465 -0.3683 -0.5196
 3686TIP3   OH232472   6.317   2.446   0.599  0.6158  0.0788 -0.1953
 3686TIP3    H132473   6.325   2.396   0.518 -1.6208  2.3159 -1.9728
 3686TIP3    H232474   6.406   2.476   0.618  1.4076 -1.6129 -1.0112
 3687TIP3   OH232475   4.789   2.164  15.120 -0.2483  0.0434 -0.3586
 3687TIP3    H132476   4.757   2.119  15.042  0.9349 -3.3974  0.9411
 3687TIP3    H232477   4.712   2.206  15.157 -1.4680 -0.8756 -1.7305
 3688TIP3   OH232478   1.401   5.762   5.503 -0.1743  0.1004  0.0381
 3688TIP3    H132479   1.465   5.829   5.527 -0.4379  0.8727 -1.3193
 3688TIP3    H232480   1.454   5.685   5.480  0.2101  0.3226  0.1752
 3689TIP3   OH232481   1.936   5.970   3.868 -0.2933 -0.5147 -0.1144
 3689TIP3    H132482   2.006   6.032   3.887 -0.6144  0.1935 -1.1489
 3689TIP3    H232483   1.938   5.961   3.772  0.3697 -2.8302  0.0528
 3690TIP3   OH232484   4.254   1.768   0.781 -0.2203 -0.1412 -0.4102
 3690TIP3    H132485   4.312   1.706   0.734 -0.2624  0.0821 -0.7615
 3690TIP3    H232486   4.312   1.839   0.807  0.3974 -1.5190  2.3224
 3691TIP3   OH232487   2.152   3.203   0.158  0.5394 -0.1625  0.3300
 3691TIP3    H132488   2.200   3.222   0.238 -0.4206 -1.3066  1.2193
 3691TIP3    H232489   2.212   3.227   0.087  1.1282  1.5464  1.3570
 3692TIP3   OH232490   6.737   0.352   0.526 -0.2726  0.2550  0.5458
 3692TIP3    H132491   6.787   0.274   0.551 -1.1118 -0.4911 -0.0452
 3692TIP3    H232492   6.649   0.336   0.561 -0.5929  0.6775 -0.0527
 3693TIP3   OH232493   3.867   1.508  14.966 -0.4531 -0.2177  0.0595
 3693TIP3    H132494   3.869   1.476  14.875  2.0316 -1.9287  0.6088
 3693TIP3    H232495   3.946   1.560  14.975  0.2828 -1.5141  1.6650
 3694TIP3   OH232496   5.533   0.408   2.334 -0.4704  0.2002  0.1565
 3694TIP3    H132497   5.520   0.496   2.370 -2.7953 -0.6378  1.6032
 3694TIP3    H232498   5.448   0.385   2.296  0.3058 -1.1638 -0.8277
 3695TIP3   OH232499   4.434   5.031   0.830  0.1611 -0.6645  0.0513
 3695TIP3    H132500   4.517   5.079   0.835 -0.4169  0.2504  1.3514
 3695TIP3    H232501   4.441   4.980   0.749  1.2003  0.8588 -0.8632
 3696TIP3   OH232502   3.581   0.869   4.202  0.0817 -0.3874  0.5246
 3696TIP3    H132503   3.513   0.933   4.181 -0.2663 -0.9416 -0.0734
 3696TIP3    H232504   3.632   0.910   4.271 -0.4375  0.3302  0.4914
 3697TIP3   OH232505   3.444   4.571  16.422  0.8140 -0.0396  0.0119
 3697TIP3    H132506   3.463   4.487  16.381 -0.0418 -0.0233 -0.4384
 3697TIP3    H232507   3.475   4.636  16.358  0.2397 -0.0150 -0.2441
 3698TIP3   OH232508   0.496   3.078   0.118 -0.1727  0.3651 -0.2827
 3698TIP3    H132509   0.484   3.165   0.156  2.6352  0.6286  0.2405
 3698TIP3    H232510   0.520   3.094   0.027  2.4023  0.3929  0.3048
 3699TIP3   OH232511   2.212   1.013   6.048  0.0193  0.5241 -0.2338
 3699TIP3    H132512   2.283   1.016   5.983 -0.3497 -0.1361 -0.6876
 3699TIP3    H232513   2.249   1.053   6.126  0.4799  1.3254 -0.8477
 3700TIP3   OH232514   4.099   3.433  16.339  0.5354 -0.1333  0.1550
 3700TIP3    H132515   4.135   3.482  16.265 -0.7890  1.0198  0.2392
 3700TIP3    H232516   4.005   3.452  16.337  0.2985 -1.0487  1.4292
 3701TIP3   OH232517   4.074   4.222  11.934  0.0657  0.2472  0.0461
 3701TIP3    H132518   3.984   4.194  11.918  0.5481 -1.3683  0.0444
 3701TIP3    H232519   4.118   4.210  11.850  0.2877  1.0913  0.0289
 3702TIP3   OH232520   3.711   0.616   3.990 -0.1801 -0.2648 -0.9261
 3702TIP3    H132521   3.738   0.646   3.903  1.4206 -0.8646 -0.6559
 3702TIP3    H232522   3.792   0.594   4.034 -1.0918 -1.7567  0.0861
 3703TIP3   OH232523   2.357   4.579   6.419  0.3554 -0.3284 -0.4097
 3703TIP3    H132524   2.435   4.599   6.368  0.0997 -0.4626 -0.8677
 3703TIP3    H232525   2.363   4.635   6.496  0.8155 -0.2154 -0.5231
 3704TIP3   OH232526   3.060   3.505   1.621 -0.2195  0.5951 -0.4322
 3704TIP3    H132527   2.969   3.504   1.593 -0.1735  0.3421 -0.5790
 3704TIP3    H232528   3.056   3.482   1.714 -0.3661  1.3795 -0.2447
 3705TIP3   OH232529   6.356   4.547  14.991 -0.3706  0.0763 -0.6173
 3705TIP3    H132530   6.381   4.462  14.955 -1.6418 -0.2308 -0.8189
 3705TIP3    H232531   6.424   4.607  14.959 -0.4466 -0.5295 -2.0052
 3706TIP3   OH232532   6.735   6.456  14.056  0.0641  0.8480 -0.0115
 3706TIP3    H132533   6.780   6.510  14.120 -1.3577  0.9880  0.9177
 3706TIP3    H232534   6.713   6.376  14.104 -0.3381  0.6334 -0.5466
 3707TIP3   OH232535   2.362   6.730  13.578  0.3180  0.0391  0.1010
 3707TIP3    H132536   2.348   6.670  13.651 -0.1100 -0.1785 -0.1507
 3707TIP3    H232537   2.321   6.685  13.503 -0.8246  1.0591  0.0950
 3708TIP3   OH232538   0.985   3.277   6.288 -0.0706 -0.2516 -0.0032
 3708TIP3    H132539   1.019   3.350   6.236  2.3460 -1.2200  0.1010
 3708TIP3    H232540   0.891   3.279   6.273 -0.0448  2.6299 -0.3240
 3709TIP3   OH232541   4.086   4.301   6.302 -0.0412 -0.0615 -0.1006
 3709TIP3    H132542   4.073   4.334   6.214 -2.3715  0.8938  0.5154
 3709TIP3    H232543   4.144   4.364   6.344  1.9271 -1.0638 -1.1742
 3710TIP3   OH232544   2.826   0.187  13.095  0.3301  0.2800 -0.1593
 3710TIP3    H132545   2.874   0.244  13.035  0.1711  0.8614  0.2596
 3710TIP3    H232546   2.754   0.151  13.042  0.0099  1.0244 -0.2360
 3711TIP3   OH232547   6.697   4.809   4.962  0.3987 -0.0740 -0.2487
 3711TIP3    H132548   6.604   4.799   4.983  0.7358 -2.0608  0.5128
 3711TIP3    H232549   6.705   4.772   4.874  0.4101  0.4537 -0.4706
 3712TIP3   OH232550   3.315   3.044   0.715  0.1482  0.5512  0.4490
 3712TIP3    H132551   3.287   3.135   0.707  1.4230  0.9103 -0.2132
 3712TIP3    H232552   3.378   3.045   0.787 -1.9498 -0.3715  2.4101
 3713TIP3   OH232553   2.304   5.116   1.936 -0.1766 -0.0734  0.0285
 3713TIP3    H132554   2.278   5.133   1.846  2.2614  1.6091 -0.4519
 3713TIP3    H232555   2.388   5.069   1.929  0.0668  0.0966  1.4018
 3714TIP3   OH232556   3.277   2.049  16.139 -0.2121  0.2080 -0.2840
 3714TIP3    H132557   3.223   2.050  16.060  1.1036 -0.3226 -1.2338
 3714TIP3    H232558   3.352   2.103  16.117  0.0645  0.2306  0.6946
 3715TIP3   OH232559   4.650   0.337   5.674  0.0078  0.1395 -0.2587
 3715TIP3    H132560   4.578   0.368   5.729  0.8539  0.0574  0.9203
 3715TIP3    H232561   4.609   0.272   5.616 -0.7405 -0.4489  0.8925
 3716TIP3   OH232562   4.287   2.203   5.150  0.0030 -0.2166 -0.7022
 3716TIP3    H132563   4.357   2.268   5.149  0.3215 -0.5578 -1.5722
 3716TIP3    H232564   4.333   2.119   5.145 -0.3855 -0.5445  0.8083
 3717TIP3   OH232565   0.150   4.214   2.564 -0.1653  0.3654 -0.1666
 3717TIP3    H132566   0.127   4.172   2.647 -0.1456  0.2447 -0.2223
 3717TIP3    H232567   0.129   4.148   2.497  0.3852  0.2329 -0.2125
 3718TIP3   OH232568   6.556   0.315   5.431  0.0846 -0.6283 -0.0046
 3718TIP3    H132569   6.492   0.384   5.415  0.6935 -0.3267 -1.2378
 3718TIP3    H232570   6.603   0.344   5.509  0.0106  0.1132 -0.2290
 3719TIP3   OH232571   3.980   4.910   1.540  0.5922 -0.2819 -0.1405
 3719TIP3    H132572   3.994   4.872   1.626  1.0790  1.2100  0.4659
 3719TIP3    H232573   3.895   4.955   1.547  1.6046  1.6535  0.2701
 3720TIP3   OH232574   1.798   5.527   1.918  0.7015  0.2889  0.1586
 3720TIP3    H132575   1.874   5.573   1.882  1.5909  0.1390  1.7600
 3720TIP3    H232576   1.794   5.555   2.009 -1.5458  0.7510 -0.0176
 3721TIP3   OH232577   1.954   1.450   2.120 -0.6176  0.3216  0.4906
 3721TIP3    H132578   1.953   1.545   2.112 -1.6470  0.4094  1.3678
 3721TIP3    H232579   1.878   1.421   2.070 -0.0642 -0.0857 -0.1288
 3722TIP3   OH232580   5.718   2.840  10.532  0.5420  0.4132 -0.0526
 3722TIP3    H132581   5.782   2.891  10.582  2.1348 -1.4307 -0.0879
 3722TIP3    H232582   5.658   2.806  10.599  0.9837  0.2680  0.2743
 3723TIP3   OH232583   0.282   3.195  15.868 -0.1016 -0.3006  0.3317
 3723TIP3    H132584   0.284   3.218  15.775  1.6227 -1.5081  0.0243
 3723TIP3    H232585   0.357   3.241  15.905 -1.2411  0.8271  1.3381
 3724TIP3   OH232586   0.936   1.104  15.677  0.0669 -0.0942 -0.2833
 3724TIP3    H132587   0.924   1.198  15.691  0.9220 -0.0480  0.2174
 3724TIP3    H232588   0.861   1.063  15.720 -1.2774  0.4284 -2.0163
 3725TIP3   OH232589   1.517   4.317   5.717  0.4383 -0.1354  0.1580
 3725TIP3    H132590   1.600   4.322   5.671 -0.8692  0.2533 -2.3579
 3725TIP3    H232591   1.486   4.407   5.723 -1.1624 -0.4794 -1.7773
 3726TIP3   OH232592   5.506   5.147  11.990  0.6048  0.9215 -0.1043
 3726TIP3    H132593   5.423   5.099  11.983  0.6833  0.8939 -0.9572
 3726TIP3    H232594   5.572   5.087  11.954  0.9314  1.1037  0.1839
 3727TIP3   OH232595   1.543   4.576   6.501  0.3858  0.2176 -0.2923
 3727TIP3    H132596   1.565   4.629   6.424 -0.3288  0.4538 -0.3417
 3727TIP3    H232597   1.521   4.490   6.465  2.1323 -0.3138 -0.1627
 3728TIP3   OH232598   1.384   2.629   4.362 -0.1630  0.0792 -0.0893
 3728TIP3    H132599   1.426   2.710   4.391 -0.9885  0.0673  1.2163
 3728TIP3    H232600   1.453   2.563   4.368  0.0872  0.3806  0.3803
 3729TIP3   OH232601   4.786   0.020  14.757  0.1138 -0.3400 -0.2025
 3729TIP3    H132602   4.868  -0.021  14.783  1.8189  1.2866 -2.4987
 3729TIP3    H232603   4.788   0.107  14.798 -1.6521 -1.0499  1.5772
 3730TIP3   OH232604   0.332   5.754   4.231 -0.2901 -0.3939  0.0321
 3730TIP3    H132605   0.373   5.747   4.317  2.1312  0.7958 -0.9441
 3730TIP3    H232606   0.370   5.682   4.181  1.0422  0.9788 -1.0124
 3731TIP3   OH232607   6.671   0.871  14.201 -0.0973 -0.2641 -0.2095
 3731TIP3    H132608   6.710   0.861  14.287  0.7960 -0.0849 -0.5807
 3731TIP3    H232609   6.650   0.964  14.194  0.4003 -0.1640 -0.4157
 3732TIP3   OH232610   2.672   1.036   4.385 -0.0366 -0.3842 -0.1753
 3732TIP3    H132611   2.627   0.955   4.361 -0.8599  0.0937 -0.2804
 3732TIP3    H232612   2.756   1.007   4.420  0.1362 -1.2234 -1.2409
 3733TIP3   OH232613   1.062   1.969  14.009  0.2016  0.1069  0.4313
 3733TIP3    H132614   1.078   2.017  14.091  0.3949  0.7811  0.0039
 3733TIP3    H232615   1.146   1.971  13.963  0.2541 -0.7746  0.4678
 3734TIP3   OH232616   3.977   1.310   4.382 -0.1543 -0.0681 -0.4474
 3734TIP3    H132617   4.002   1.239   4.322  0.6169  1.2011 -1.6900
 3734TIP3    H232618   4.036   1.299   4.457 -0.0356 -0.7361 -0.6312
 3735TIP3   OH232619   2.834   5.588  12.915  0.5731  0.2245  0.1985
 3735TIP3    H132620   2.883   5.550  12.988 -0.6211  2.5427  2.3491
 3735TIP3    H232621   2.752   5.539  12.913 -0.3722  1.6373  2.0309
 3736TIP3   OH232622   0.136   3.660   5.900  0.4516 -0.8544 -0.3860
 3736TIP3    H132623   0.070   3.719   5.938  0.8699  0.4258 -1.5771
 3736TIP3    H232624   0.126   3.670   5.805  0.8814 -2.3398 -0.6118
 3737TIP3   OH232625   1.554   2.171   1.584 -0.2140 -0.6709 -0.1527
 3737TIP3    H132626   1.607   2.244   1.553 -0.3686 -0.2147  0.6246
 3737TIP3    H232627   1.595   2.093   1.547  0.1959 -0.2199 -0.6545
 3738TIP3   OH232628   2.122   2.823  16.022  0.0294 -0.1918  0.2059
 3738TIP3    H132629   2.055   2.840  15.955  0.4927 -0.6383 -0.3696
 3738TIP3    H232630   2.099   2.884  16.093 -0.5653  0.1704 -0.2801
 3739TIP3   OH232631   3.295   0.000   1.466  0.2800  0.5407  0.5775
 3739TIP3    H132632   3.218   0.051   1.492  0.0978  0.2943  0.5217
 3739TIP3    H232633   3.264  -0.054   1.393  0.9465  1.6812 -0.5723
 3740TIP3   OH232634   0.212   0.341  17.101  0.4799  0.2498 -0.4702
 3740TIP3    H132635   0.284   0.305  17.050  0.5964  2.7726 -2.2821
 3740TIP3    H232636   0.253   0.380  17.178  0.6855 -0.6480 -0.1095
 3741TIP3   OH232637   0.341   0.750   5.609  0.1736  0.2133 -0.0063
 3741TIP3    H132638   0.373   0.679   5.554 -1.0111  0.1625 -0.6759
 3741TIP3    H232639   0.397   0.748   5.687  2.7623  1.1362 -1.7133
 3742TIP3   OH232640   4.964   4.036   3.443  0.2782 -0.5217 -0.0015
 3742TIP3    H132641   5.024   4.037   3.518 -1.6589  1.2619  1.6340
 3742TIP3    H232642   4.970   4.124   3.407 -0.1863 -0.8149 -0.8011
 3743TIP3   OH232643   0.313   3.144  12.919  0.1925 -0.0420 -0.1827
 3743TIP3    H132644   0.236   3.101  12.956  2.0664 -1.8368  1.8772
 3743TIP3    H232645   0.347   3.080  12.856  0.6309  0.2488 -0.2398
 3744TIP3   OH232646   4.558   3.685   5.645 -0.4606  0.4351 -0.5332
 3744TIP3    H132647   4.502   3.753   5.684  0.5347  0.7360  0.4238
 3744TIP3    H232648   4.646   3.720   5.653  0.0959 -1.0780  0.1987
 3745TIP3   OH232649   3.012   2.828   2.232  0.2782  0.2531 -0.2367
 3745TIP3    H132650   3.027   2.867   2.318  0.3813  2.1971 -1.0895
 3745TIP3    H232651   2.982   2.739   2.251  1.0775  0.3598  1.7741
 3746TIP3   OH232652   0.036   6.672  14.224  0.2618 -0.0743 -0.3031
 3746TIP3    H132653   0.028   6.751  14.171 -2.8715 -0.1436 -0.1471
 3746TIP3    H232654   0.020   6.702  14.314 -0.4750 -0.7748 -0.1832
 3747TIP3   OH232655   1.036   5.272   3.904 -0.2415  0.0316  0.6370
 3747TIP3    H132656   1.073   5.272   3.993  0.8333  1.9711  0.2567
 3747TIP3    H232657   1.107   5.239   3.849 -0.5923 -0.3193  0.3962
 3748TIP3   OH232658   5.222   3.763   1.249  0.3237  0.0269 -0.6999
 3748TIP3    H132659   5.249   3.813   1.326 -1.9570  1.2148 -0.5683
 3748TIP3    H232660   5.142   3.806   1.219  0.7629 -0.7906 -3.3796
 3749TIP3   OH232661   3.476   1.076  10.984  0.4383  0.6593 -0.5286
 3749TIP3    H132662   3.547   1.063  11.048  0.5291 -0.3371 -0.8132
 3749TIP3    H232663   3.404   1.023  11.018 -0.1873  1.6677 -0.2440
 3750TIP3   OH232664   4.895   0.273   5.604  0.4520 -0.4011 -0.1538
 3750TIP3    H132665   4.869   0.186   5.574  0.6256  0.1359 -1.9745
 3750TIP3    H232666   4.812   0.318   5.618  0.3686 -0.5755 -0.0773
 3751TIP3   OH232667   4.555   2.376   5.145 -0.1455  0.5575 -0.2210
 3751TIP3    H132668   4.646   2.353   5.164  0.4035  2.6947 -0.0569
 3751TIP3    H232669   4.550   2.378   5.049 -0.7063 -1.8773 -0.3205
 3752TIP3   OH232670   0.023   1.551   3.334  0.1724  0.0010 -0.5778
 3752TIP3    H132671  -0.044   1.517   3.275  0.5503  0.0620 -1.0409
 3752TIP3    H232672  -0.004   1.642   3.349 -1.8336 -0.8975  2.0596
 3753TIP3   OH232673   3.452   4.678   1.119  0.1701  0.2658 -0.3604
 3753TIP3    H132674   3.490   4.739   1.056  1.6039 -1.0782 -0.8706
 3753TIP3    H232675   3.444   4.728   1.200 -0.5053  1.6532 -1.2643
 3754TIP3   OH232676   3.841   5.009   5.391  0.4771  0.0931  0.4715
 3754TIP3    H132677   3.795   5.088   5.421 -0.1158  0.4348 -1.2472
 3754TIP3    H232678   3.893   5.038   5.316  2.9200 -0.4680  1.8557
 3755TIP3   OH232679   5.755   0.626   0.885 -0.1290  0.6486  0.2388
 3755TIP3    H132680   5.731   0.619   0.793 -0.3051 -3.6362  0.4313
 3755TIP3    H232681   5.848   0.646   0.885 -0.0977  0.5266 -0.8629
 3756TIP3   OH232682   6.681   5.833   4.095 -0.1943 -0.7835  0.0505
 3756TIP3    H132683   6.698   5.862   4.185  1.3405  0.9561 -0.7582
 3756TIP3    H232684   6.754   5.774   4.074  0.3020  0.0271 -0.5546
 3757TIP3   OH232685   5.801   5.204  13.402  0.1091 -0.9546  0.1291
 3757TIP3    H132686   5.728   5.257  13.370  0.7501  1.1674  1.9106
 3757TIP3    H232687   5.871   5.216  13.338  0.8175  1.8777  1.2883
 3758TIP3   OH232688   4.802   1.719  14.890  0.3532  0.0752 -0.0335
 3758TIP3    H132689   4.796   1.679  14.977  0.3858 -1.2052 -0.5940
 3758TIP3    H232690   4.895   1.722  14.871  0.2934 -0.8084 -0.5211
 3759TIP3   OH232691   0.956   3.542   3.967  0.5569  0.1422  0.9611
 3759TIP3    H132692   0.905   3.484   4.023 -0.1473  0.1692  0.3537
 3759TIP3    H232693   0.995   3.484   3.902  0.1349  0.2993  0.5646
 3760TIP3   OH232694   0.591   3.656  11.996 -0.4867  0.0761 -0.3187
 3760TIP3    H132695   0.682   3.678  12.015  0.2207 -3.1313  0.7578
 3760TIP3    H232696   0.540   3.712  12.054  0.9697  0.2563  0.8468
 3761TIP3   OH232697   4.882   1.760   0.611  0.3871 -0.0809  0.3155
 3761TIP3    H132698   4.800   1.711   0.617 -0.1467 -0.1663 -4.3251
 3761TIP3    H232699   4.858   1.849   0.636 -0.5739 -0.5536  1.1582
 3762TIP3   OH232700   3.764   4.165   5.867 -0.1659 -0.4406  0.1617
 3762TIP3    H132701   3.720   4.181   5.784 -0.8574 -0.6621  0.4702
 3762TIP3    H232702   3.735   4.237   5.923  0.7229  0.0105  0.0603
 3763TIP3   OH232703   2.635   3.649  11.811 -0.0810  0.3629 -0.5756
 3763TIP3    H132704   2.562   3.647  11.749 -0.8868 -2.9412  0.2636
 3763TIP3    H232705   2.711   3.621  11.760 -0.2312 -0.0081 -0.5962
 3764TIP3   OH232706   4.365   2.317  13.548 -0.1551 -0.5863  0.2876
 3764TIP3    H132707   4.408   2.403  13.554  1.0548 -0.7486 -3.3895
 3764TIP3    H232708   4.417   2.260  13.605  1.8465  0.2346 -0.6051
 3765TIP3   OH232709   4.071   0.247   0.056 -0.0862 -0.1195  0.0611
 3765TIP3    H132710   4.075   0.178  -0.010  0.4628 -0.9846  0.9787
 3765TIP3    H232711   3.978   0.254   0.078 -0.1318 -0.6548  0.0502
 3766TIP3   OH232712   1.784   5.513  11.260 -0.1684 -0.3675  0.0535
 3766TIP3    H132713   1.732   5.532  11.338 -1.0166 -0.6751 -0.4217
 3766TIP3    H232714   1.727   5.459  11.206 -0.1851  1.0892 -1.4739
 3767TIP3   OH232715   2.429   5.854   1.129 -0.0933  1.0073 -0.1314
 3767TIP3    H132716   2.386   5.932   1.163 -2.8409 -0.3116 -0.3623
 3767TIP3    H232717   2.364   5.784   1.137  2.4828 -1.4916  0.7701
 3768TIP3   OH232718   0.942   5.974   6.336  0.5957 -0.2501 -0.6806
 3768TIP3    H132719   0.879   5.963   6.265  0.5242  0.9447 -0.8310
 3768TIP3    H232720   1.019   6.014   6.294  0.5542  0.4570 -0.1004
 3769TIP3   OH232721   6.061   2.375   3.282 -0.1716  0.0523  0.0081
 3769TIP3    H132722   6.034   2.379   3.191 -1.2125  0.7222  0.3229
 3769TIP3    H232723   6.034   2.287   3.311  0.7400 -0.4018 -0.4819
 3770TIP3   OH232724   2.461   5.533  11.146  0.5974 -0.2873 -0.1289
 3770TIP3    H132725   2.483   5.554  11.237  1.0974 -0.5051 -0.1968
 3770TIP3    H232726   2.491   5.443  11.134 -1.2530 -0.9615  0.0661
 3771TIP3   OH232727   1.363   6.694   3.203  0.4594 -0.2526 -0.1664
 3771TIP3    H132728   1.413   6.695   3.284  0.0953 -0.4160  0.0651
 3771TIP3    H232729   1.419   6.737   3.139  1.7210 -2.1702 -0.4141
 3772TIP3   OH232730   2.014   0.672   5.326 -0.1210 -0.0095 -0.0593
 3772TIP3    H132731   1.992   0.675   5.233 -0.3256 -0.6940 -0.0427
 3772TIP3    H232732   1.933   0.642   5.368  0.6460 -2.0758  0.0563
 3773TIP3   OH232733   1.899   5.719   0.077 -0.0103 -0.1428  0.8881
 3773TIP3    H132734   1.951   5.796   0.056 -2.5054  2.0566  2.0854
 3773TIP3    H232735   1.951   5.672   0.142  1.1607  1.0768  0.8759
 3774TIP3   OH232736   2.694   2.872  13.587 -0.8743  0.4152  0.1577
 3774TIP3    H132737   2.666   2.939  13.649  0.0583  0.9030  0.0711
 3774TIP3    H232738   2.726   2.921  13.511 -1.8591 -0.1724 -0.6646
 3775TIP3   OH232739   5.389   5.131   5.419 -0.5760 -0.1156 -0.3023
 3775TIP3    H132740   5.320   5.093   5.473 -0.8726  1.3492  0.3867
 3775TIP3    H232741   5.458   5.154   5.481  0.7657 -1.9411 -1.0270
 3776TIP3   OH232742   6.355   1.318  12.425  0.5800  0.2931 -0.2204
 3776TIP3    H132743   6.331   1.247  12.367 -2.6146  1.1529 -0.1480
 3776TIP3    H232744   6.324   1.290  12.511  0.7037  1.1091  0.0979
 3777TIP3   OH232745   2.550   5.784  12.803 -0.1709 -0.5229  0.1240
 3777TIP3    H132746   2.563   5.704  12.854  0.7231 -0.9371 -0.7170
 3777TIP3    H232747   2.531   5.753  12.714  3.1734  0.1125 -0.9620
 3778TIP3   OH232748   6.616   4.367   2.620  0.0297 -0.6002 -0.0935
 3778TIP3    H132749   6.591   4.440   2.677  0.4728 -0.4604 -0.0757
 3778TIP3    H232750   6.669   4.407   2.551 -1.8015 -0.5140 -1.5399
 3779TIP3   OH232751   4.327   2.859   1.970  0.1513  0.2057 -0.3174
 3779TIP3    H132752   4.318   2.852   2.065  0.2675  0.0199 -0.3188
 3779TIP3    H232753   4.255   2.915   1.942 -1.4984 -1.8732 -0.4410
 3780TIP3   OH232754   6.424   0.830  13.475  0.1011  0.1133  0.4447
 3780TIP3    H132755   6.462   0.743  13.464 -0.8976 -0.5144  1.8237
 3780TIP3    H232756   6.330   0.817  13.463 -0.1482  0.8355  1.4938
 3781TIP3   OH232757   1.095   0.298   5.351 -0.3569 -0.3317  0.3153
 3781TIP3    H132758   1.121   0.387   5.375 -2.3469  0.9182 -1.7527
 3781TIP3    H232759   1.156   0.242   5.399  1.6839  2.1448  0.8840
 3782TIP3   OH232760   1.604   3.417   5.400 -0.2422  0.0455  0.0833
 3782TIP3    H132761   1.579   3.503   5.367  0.8244  0.6973  0.8966
 3782TIP3    H232762   1.673   3.388   5.340  0.9489  0.7571  1.0816
 3783TIP3   OH232763   5.758   1.163  15.413 -0.8386  0.8743  0.0772
 3783TIP3    H132764   5.821   1.227  15.378  0.2699 -0.5046 -0.5339
 3783TIP3    H232765   5.678   1.179  15.362 -0.1270  0.8208 -1.0966
 3784TIP3   OH232766   3.374   0.477   3.181  0.3733  0.0198  0.1417
 3784TIP3    H132767   3.305   0.460   3.117 -0.2223  0.6485  0.6105
 3784TIP3    H232768   3.363   0.409   3.248 -0.6698  0.9427  0.9250
 3785TIP3   OH232769   6.316   0.407   1.672 -0.3441  0.8447  0.2312
 3785TIP3    H132770   6.268   0.424   1.752 -1.4252 -0.0048 -0.2162
 3785TIP3    H232771   6.408   0.398   1.700 -0.7690  0.0634  1.4325
 3786TIP3   OH232772   2.140   0.702  12.062 -0.5611 -0.1668 -0.2645
 3786TIP3    H132773   2.218   0.674  12.110 -1.2025 -0.8780  0.4027
 3786TIP3    H232774   2.163   0.787  12.024  0.4923 -0.3245  0.0047
 3787TIP3   OH232775   3.318   3.960   5.821 -0.2093  0.0449 -0.0600
 3787TIP3    H132776   3.399   3.980   5.868  0.5141 -0.4405 -1.0549
 3787TIP3    H232777   3.264   4.038   5.834  0.9503  0.9696 -0.4883
 3788TIP3   OH232778   2.657   0.375   1.873  0.1321 -0.3834  0.1600
 3788TIP3    H132779   2.669   0.403   1.782  1.1351  1.5982  0.8329
 3788TIP3    H232780   2.718   0.303   1.884  0.8095  0.0706 -0.4607
 3789TIP3   OH232781   5.082   0.759  14.918  0.2776 -0.6381  0.0577
 3789TIP3    H132782   5.056   0.682  14.867  0.8947 -1.0934  0.4132
 3789TIP3    H232783   5.049   0.742  15.006 -1.7149  0.6256 -0.3761
 3790TIP3   OH232784   6.075   4.889   5.872  0.2920  0.1086 -0.6261
 3790TIP3    H132785   6.072   4.860   5.963  0.0499  0.7950 -0.4089
 3790TIP3    H232786   6.085   4.984   5.877 -0.4162  0.2284 -1.3172
 3791TIP3   OH232787   5.353   4.214   1.009 -0.5786  0.1279 -0.1711
 3791TIP3    H132788   5.410   4.290   1.023 -2.5206  1.2787  2.5007
 3791TIP3    H232789   5.272   4.251   0.974 -1.7212 -0.5512  1.5898
 3792TIP3   OH232790   3.084   0.879  14.603 -0.6282  0.3524  0.0820
 3792TIP3    H132791   3.132   0.924  14.673 -1.2541 -0.8134  1.2799
 3792TIP3    H232792   3.152   0.857  14.539  0.1011  0.5882  0.7557
 3793TIP3   OH232793   0.751   1.812   4.797  0.3961 -0.2820  0.0117
 3793TIP3    H132794   0.696   1.888   4.812  0.1161 -0.6259  0.7319
 3793TIP3    H232795   0.741   1.793   4.703  0.6469  0.6906 -0.2265
 3794TIP3   OH232796   4.171   5.400  11.240 -0.4876 -0.1083  0.5157
 3794TIP3    H132797   4.167   5.305  11.238 -1.7934 -0.0894 -1.0630
 3794TIP3    H232798   4.253   5.422  11.197 -0.4863 -0.5329  0.2953
 3795TIP3   OH232799   4.383   1.447   5.969 -0.1510  0.3009  0.1042
 3795TIP3    H132800   4.368   1.512   6.038 -0.5169  3.0846 -2.3678
 3795TIP3    H232801   4.299   1.402   5.961 -0.5966  1.0454  0.4436
 3796TIP3   OH232802   5.130   1.460   1.982 -0.4847 -0.2941 -0.4896
 3796TIP3    H132803   5.057   1.398   1.974 -0.5944 -0.1869 -0.3258
 3796TIP3    H232804   5.164   1.468   1.893  0.1637 -1.3571 -0.3580
 3797TIP3   OH232805   2.764   0.130  13.781 -0.5538 -0.0924 -0.0370
 3797TIP3    H132806   2.797   0.062  13.839 -0.9672 -1.0619 -0.9068
 3797TIP3    H232807   2.696   0.087  13.730 -0.8048  0.9708 -0.6212
 3798TIP3   OH232808   0.561   3.576  16.082  0.2287  0.1667 -0.0717
 3798TIP3    H132809   0.599   3.655  16.044 -1.4875  1.5778  0.9905
 3798TIP3    H232810   0.475   3.604  16.115 -0.2111 -2.0183  0.8049
 3799TIP3   OH232811   3.636   3.826   4.513 -0.1552 -0.3777  0.4263
 3799TIP3    H132812   3.724   3.833   4.549  0.0036 -0.7204  0.1111
 3799TIP3    H232813   3.620   3.732   4.506  0.0187 -0.3278 -0.8565
 3800TIP3   OH232814   1.862   6.369  11.736 -0.9565 -0.2397  0.4409
 3800TIP3    H132815   1.894   6.371  11.646 -0.1169  1.7038  0.7214
 3800TIP3    H232816   1.814   6.287  11.743  1.3493 -1.8163 -0.9353
 3801TIP3   OH232817   0.575   1.308   0.220  0.1752 -0.0667 -0.4167
 3801TIP3    H132818   0.563   1.230   0.274  1.4503  0.6372  0.9179
 3801TIP3    H232819   0.488   1.323   0.182 -1.8905  1.4521  4.1814
 3802TIP3   OH232820   1.197   3.640  14.872 -0.4391  0.0444  0.0525
 3802TIP3    H132821   1.225   3.629  14.963  0.0534 -0.7818 -0.1826
 3802TIP3    H232822   1.117   3.587  14.866  0.5984 -1.5563 -0.4648
 3803TIP3   OH232823   6.563   6.736   5.031 -0.4081  0.2305 -0.4931
 3803TIP3    H132824   6.563   6.804   4.963  1.4391  0.9775  0.2018
 3803TIP3    H232825   6.557   6.784   5.113  0.6777 -0.4431  0.0002
 3804TIP3   OH232826   4.287   6.050  10.893  0.2103  0.8385  0.4372
 3804TIP3    H132827   4.344   6.126  10.877 -0.8677  1.8121  1.0076
 3804TIP3    H232828   4.265   6.057  10.986  0.0360 -0.1452  0.4728
 3805TIP3   OH232829   2.733   3.127  15.630 -0.4338  0.6344  0.0723
 3805TIP3    H132830   2.708   3.204  15.680  0.3178  1.0863 -0.2440
 3805TIP3    H232831   2.730   3.156  15.538 -0.0151  0.3256 -0.0385
 3806TIP3   OH232832   4.435   6.176  13.427  0.1023  0.1437 -0.4467
 3806TIP3    H132833   4.523   6.178  13.465  0.0181 -0.9663 -0.1629
 3806TIP3    H232834   4.414   6.268  13.411  1.1049  0.4597 -0.0378
 3807TIP3   OH232835   0.747   4.486   1.714 -1.0052 -0.4342 -0.2087
 3807TIP3    H132836   0.756   4.578   1.740  0.1713 -0.5368 -0.1810
 3807TIP3    H232837   0.784   4.483   1.626 -1.0709 -0.8733 -0.2204
 3808TIP3   OH232838   5.341   4.037  15.467  0.1384  0.1473 -0.5581
 3808TIP3    H132839   5.344   4.113  15.409  1.1962  2.3202  2.1650
 3808TIP3    H232840   5.248   4.022  15.482 -0.0781  1.2093 -0.7770
 3809TIP3   OH232841   2.904   1.304  16.595 -0.1800 -0.0300 -0.2183
 3809TIP3    H132842   2.859   1.316  16.511 -1.2672  0.9202  0.4636
 3809TIP3    H232843   2.935   1.392  16.618  2.3466 -0.6881 -0.7891
 3810TIP3   OH232844   3.422   3.176  11.388  0.2770 -0.1176 -0.3785
 3810TIP3    H132845   3.374   3.142  11.312 -0.9062  2.1401 -0.7451
 3810TIP3    H232846   3.509   3.196  11.355  0.1747 -0.3769 -0.8092
 3811TIP3   OH232847   3.494   2.805   6.549  0.0840  0.0542  0.0385
 3811TIP3    H132848   3.491   2.831   6.641  3.2056 -0.2897  0.3400
 3811TIP3    H232849   3.493   2.709   6.551  2.0971 -0.0103 -0.0772
 3812TIP3   OH232850   3.493   1.739   6.647  0.5603  0.2384 -0.2904
 3812TIP3    H132851   3.517   1.827   6.677 -0.1032  0.7229 -1.1415
 3812TIP3    H232852   3.575   1.702   6.613  0.7285  0.7379 -0.4384
 3813TIP3   OH232853   0.264   3.151  16.516  0.4622  0.0663 -0.2246
 3813TIP3    H132854   0.225   3.206  16.585  2.1232 -0.3075  1.0969
 3813TIP3    H232855   0.251   3.201  16.436  2.2490  2.7115  0.9571
 3814TIP3   OH232856   0.640   1.633   0.356  0.0314  0.0161 -0.0662
 3814TIP3    H132857   0.560   1.612   0.404 -0.2848  1.3270  0.0262
 3814TIP3    H232858   0.689   1.551   0.353 -1.1868 -0.7402  0.1216
 3815TIP3   OH232859   0.203   5.220  13.396  0.3612 -0.5284  0.1184
 3815TIP3    H132860   0.157   5.241  13.314  0.9565 -1.6443 -0.5312
 3815TIP3    H232861   0.139   5.239  13.465 -0.5680 -0.6535 -0.6763
 3816TIP3   OH232862   0.176   3.962  12.250  0.3675  0.1281  0.6560
 3816TIP3    H132863   0.201   3.989  12.338 -0.2330  1.1950  0.5293
 3816TIP3    H232864   0.247   3.906  12.220 -0.0764 -1.3967  2.3276
 3817TIP3   OH232865   4.989   6.612   1.416  0.0755 -0.1699  0.1417
 3817TIP3    H132866   4.941   6.554   1.357 -0.9357 -0.2428  1.0229
 3817TIP3    H232867   4.947   6.697   1.406  2.0161  0.6906 -1.7090
 3818TIP3   OH232868   3.789   0.173  11.781 -0.0981 -0.5737 -0.4291
 3818TIP3    H132869   3.855   0.232  11.743 -0.6598  0.0206 -0.5030
 3818TIP3    H232870   3.707   0.221  11.773 -0.1339  0.0826  2.4939
 3819TIP3   OH232871   0.978   4.886  14.110 -0.5815 -0.4817 -0.0313
 3819TIP3    H132872   0.990   4.885  14.205 -1.2234  1.1542  0.0844
 3819TIP3    H232873   0.989   4.794  14.084 -1.3793 -1.1163  1.7351
 3820TIP3   OH232874   2.871   4.786   4.498 -0.6521 -0.2141  0.4299
 3820TIP3    H132875   2.788   4.742   4.481 -1.6663  1.6122  0.3771
 3820TIP3    H232876   2.847   4.863   4.549  1.0396  0.2677  0.5513
 3821TIP3   OH232877   2.027   5.458   4.357  0.0726  0.0703  0.2468
 3821TIP3    H132878   1.948   5.408   4.336 -0.5193 -0.2733  2.8907
 3821TIP3    H232879   2.009   5.546   4.325 -1.2861 -0.0770  0.5269
 3822TIP3   OH232880   5.842   1.924  14.090  0.5073 -0.2416  0.2779
 3822TIP3    H132881   5.802   1.944  14.175 -0.0474 -1.6761  0.3784
 3822TIP3    H232882   5.935   1.912  14.110  0.6861  1.1516  0.3725
 3823TIP3   OH232883   0.657   4.246   4.908  0.0364 -0.4408  0.7566
 3823TIP3    H132884   0.677   4.338   4.892 -0.6383 -0.6387 -1.6948
 3823TIP3    H232885   0.563   4.239   4.890  0.5235 -2.0007 -1.6566
 3824TIP3   OH232886   6.555   6.212  12.738 -0.6921  0.7978  0.3158
 3824TIP3    H132887   6.476   6.187  12.691 -0.2151 -0.0803 -0.0479
 3824TIP3    H232888   6.528   6.219  12.830 -0.7376 -1.8294  0.5766
 3825TIP3   OH232889   2.004   3.489   4.026 -0.0263  0.0146 -0.2490
 3825TIP3    H132890   2.034   3.417   4.082 -0.2278  0.3281  0.2714
 3825TIP3    H232891   2.085   3.534   4.000  0.0013  0.7865  1.0559
 3826TIP3   OH232892   5.374   3.375   2.185 -0.0064  0.0167  0.0168
 3826TIP3    H132893   5.347   3.452   2.135  1.2327  0.4512 -0.0336
 3826TIP3    H232894   5.466   3.362   2.159  0.2205 -0.6167  1.1004
 3827TIP3   OH232895   1.713   3.056  16.434  0.2280 -0.3024  0.4298
 3827TIP3    H132896   1.664   2.977  16.408  0.4277 -0.6871  1.1892
 3827TIP3    H232897   1.663   3.128  16.396 -0.2895 -0.7566  0.2253
 3828TIP3   OH232898   4.871   6.743  12.125  0.0797 -0.2098 -0.0840
 3828TIP3    H132899   4.809   6.770  12.194 -1.4045 -2.3341 -0.4960
 3828TIP3    H232900   4.912   6.664  12.160  2.3790  0.9599  0.0146
 3829TIP3   OH232901   2.607   6.027  12.953 -0.0637  0.5977  0.0313
 3829TIP3    H132902   2.547   5.965  12.911 -1.5617 -0.0613  2.9090
 3829TIP3    H232903   2.605   6.103  12.896 -1.0112 -0.6676 -1.7294
 3830TIP3   OH232904   2.961   3.515  13.803 -0.6199  0.1163  0.1920
 3830TIP3    H132905   2.877   3.475  13.826 -1.0842  0.6573 -0.5269
 3830TIP3    H232906   2.945   3.559  13.720  0.3679  0.2703  0.0709
 3831TIP3   OH232907   3.190   0.402   5.106  0.6711 -0.4773 -0.9371
 3831TIP3    H132908   3.111   0.358   5.073 -0.8382  1.1342  0.3233
 3831TIP3    H232909   3.202   0.477   5.049 -0.1571  0.6090  0.2573
 3832TIP3   OH232910   1.293   5.456  14.132  0.0555 -0.3624 -0.0884
 3832TIP3    H132911   1.228   5.396  14.096 -0.1034  0.3804 -1.0657
 3832TIP3    H232912   1.377   5.417  14.107  0.0572 -1.6334  1.6697
 3833TIP3   OH232913   3.156   5.953   2.962 -0.1486 -0.2340  0.4780
 3833TIP3    H132914   3.119   5.907   2.887  0.6356 -0.9175  0.5032
 3833TIP3    H232915   3.170   6.042   2.931  0.7775 -0.6755 -0.3952
 3834TIP3   OH232916   2.081   3.247   2.172 -0.1878  0.1235  0.0129
 3834TIP3    H132917   2.111   3.231   2.261 -2.2514  0.4166  0.8395
 3834TIP3    H232918   2.146   3.206   2.116  0.0111 -2.0728  1.7293
 3835TIP3   OH232919   2.276   3.770  15.509  0.0180 -0.2034  0.3891
 3835TIP3    H132920   2.342   3.750  15.575 -0.6137 -0.4379  0.9606
 3835TIP3    H232921   2.273   3.866  15.506  1.0942 -0.1750 -0.3762
 3836TIP3   OH232922   5.756   5.749  12.363 -0.1121 -0.3997 -0.1653
 3836TIP3    H132923   5.674   5.766  12.411 -0.3100 -0.7069 -0.3919
 3836TIP3    H232924   5.732   5.685  12.297  0.1522  0.0521 -0.7076
 3837TIP3   OH232925   2.006   1.804  15.187 -0.4263  0.3749  0.3548
 3837TIP3    H132926   2.006   1.896  15.164 -0.0556 -0.4721 -3.9289
 3837TIP3    H232927   2.098   1.777  15.181 -0.7527 -0.6366 -0.5733
 3838TIP3   OH232928   3.594   4.872   5.257 -0.8587  0.5315  0.0966
 3838TIP3    H132929   3.671   4.912   5.297 -0.3370 -0.0317 -0.3257
 3838TIP3    H232930   3.629   4.802   5.202 -1.6773  0.2347 -0.0620
 3839TIP3   OH232931   5.343   3.952   1.900  0.0430 -0.2900  0.2542
 3839TIP3    H132932   5.329   3.873   1.849 -0.3530 -0.2676  0.3232
 3839TIP3    H232933   5.429   3.940   1.941 -0.3631 -1.0395  0.9141
 3840TIP3   OH232934   1.536   0.953  16.988 -0.3893  0.2158  0.3362
 3840TIP3    H132935   1.519   0.885  16.923 -0.7957  0.9113 -0.3066
 3840TIP3    H232936   1.545   0.906  17.071  0.8494 -0.7522 -0.3290
 3841TIP3   OH232937   0.907   2.198   3.285 -0.5486  0.1535 -0.6681
 3841TIP3    H132938   0.996   2.205   3.250 -0.6139 -2.1881 -1.4508
 3841TIP3    H232939   0.919   2.158   3.372 -0.8544 -0.5000 -0.9247
 3842TIP3   OH232940   2.979   3.630  16.838  0.3833  0.2315 -0.5588
 3842TIP3    H132941   2.884   3.639  16.838  0.4709  1.2459 -0.3772
 3842TIP3    H232942   3.002   3.621  16.745  0.0333 -1.0889 -0.5386
 3843TIP3   OH232943   1.092   1.113  13.839  0.1471  0.5914 -0.4414
 3843TIP3    H132944   1.036   1.068  13.775  0.3473 -0.4386  0.0782
 3843TIP3    H232945   1.042   1.110  13.920  0.6549  0.2865 -0.1358
 3844TIP3   OH232946   4.003   6.063  13.207 -0.4428 -0.8817 -0.4864
 3844TIP3    H132947   4.046   5.993  13.255 -0.3638 -1.6724 -1.6768
 3844TIP3    H232948   4.060   6.080  13.132 -1.0821 -0.3926 -0.8761
 3845TIP3   OH232949   3.404   6.320  12.799  0.1175 -0.5807  0.0971
 3845TIP3    H132950   3.329   6.269  12.768 -0.2818  0.0439  0.0221
 3845TIP3    H232951   3.416   6.293  12.890 -0.7230 -0.0883  0.3615
 3846TIP3   OH232952   5.625   1.111  16.574  0.5937 -0.1613  0.2367
 3846TIP3    H132953   5.610   1.017  16.582  0.8869 -0.2793 -0.4965
 3846TIP3    H232954   5.595   1.148  16.657  1.6466 -1.0379  1.0201
 3847TIP3   OH232955   1.303   4.267   3.448  0.0432 -0.5197  0.4169
 3847TIP3    H132956   1.356   4.343   3.473  0.3388 -1.1012  1.6441
 3847TIP3    H232957   1.249   4.249   3.525 -2.4565  0.4296 -0.9957
 3848TIP3   OH232958   3.660   1.735  15.558 -0.0634  0.5638 -0.5859
 3848TIP3    H132959   3.718   1.662  15.576  0.4302  0.8006 -1.1440
 3848TIP3    H232960   3.719   1.810  15.545 -0.4740  0.7898 -1.2548
 3849TIP3   OH232961   2.130   2.105   5.158  0.0903 -0.7556 -0.0896
 3849TIP3    H132962   2.147   2.197   5.179 -2.9066 -0.0945 -0.1055
 3849TIP3    H232963   2.211   2.060   5.181  1.6487  1.8552 -0.0397
 3850TIP3   OH232964   5.766   4.067  16.853  0.3697 -0.3595  0.2008
 3850TIP3    H132965   5.803   4.014  16.783  0.1318  1.2122 -1.1773
 3850TIP3    H232966   5.831   4.062  16.923  1.6525 -0.2880 -0.9365
 3851TIP3   OH232967   6.654   3.274  16.867 -0.5066 -0.1059 -0.3275
 3851TIP3    H132968   6.714   3.260  16.940 -1.8771  0.5149  0.9857
 3851TIP3    H232969   6.678   3.359  16.831 -1.3763  0.7474  1.0250
 3852TIP3   OH232970   5.844   3.689  14.512 -0.0593  0.2236  0.4260
 3852TIP3    H132971   5.828   3.702  14.606  1.3203  1.4096  0.5314
 3852TIP3    H232972   5.931   3.726  14.497  1.8339 -3.9740 -0.4626
 3853TIP3   OH232973   5.920   5.853   2.070  0.1574 -0.3049 -0.6978
 3853TIP3    H132974   5.867   5.917   2.118 -1.3478 -0.7776 -1.6733
 3853TIP3    H232975   6.009   5.890   2.073 -0.3280  0.8816  0.3462
 3854TIP3   OH232976   6.530   2.001  13.390  0.1152  0.0261  0.0116
 3854TIP3    H132977   6.540   1.906  13.380 -0.5284  0.1055 -1.9091
 3854TIP3    H232978   6.564   2.020  13.477 -0.0426 -2.0136  0.5814
 3855TIP3   OH232979   0.681   2.342   5.621 -0.3633  0.2838 -0.1492
 3855TIP3    H132980   0.775   2.360   5.611  0.0601 -1.0325  1.0752
 3855TIP3    H232981   0.656   2.387   5.701 -0.5251 -0.2339  0.0929
 3856TIP3   OH232982   0.311   4.698   3.160  0.6848 -0.1133  0.3527
 3856TIP3    H132983   0.375   4.670   3.225  2.5785  1.1754 -0.8250
 3856TIP3    H232984   0.317   4.632   3.091 -0.6348 -0.9732  1.0291
 3857TIP3   OH232985   6.722   0.550  16.009  0.5885 -0.1062  0.5814
 3857TIP3    H132986   6.675   0.540  16.092  0.3994  0.6578  0.5751
 3857TIP3    H232987   6.717   0.464  15.968 -1.7845  0.2072  0.0881
 3858TIP3   OH232988   0.814   5.273   3.594 -0.2302 -0.0156  0.2848
 3858TIP3    H132989   0.767   5.202   3.549  0.8825 -0.1177 -0.7586
 3858TIP3    H232990   0.748   5.342   3.604 -0.7356 -0.3206 -0.7375
 3859TIP3   OH232991   2.234   0.371  14.236  0.4090 -0.3953 -0.6829
 3859TIP3    H132992   2.198   0.429  14.169  0.6439 -0.3212 -0.7448
 3859TIP3    H232993   2.218   0.417  14.319  0.6527 -0.2156 -0.7370
 3860TIP3   OH232994   0.953   0.902   1.376 -0.0174  0.8070  0.4957
 3860TIP3    H132995   0.907   0.854   1.445 -1.4155  1.8594  0.3510
 3860TIP3    H232996   0.985   0.834   1.317 -0.0092 -0.0405  1.4551
 3861TIP3   OH232997   5.690   0.856   2.477 -0.7445 -0.3231  0.7349
 3861TIP3    H132998   5.618   0.917   2.468 -0.3125  0.3300  1.6390
 3861TIP3    H232999   5.760   0.893   2.422 -0.5599 -0.1203  1.1050
 3862TIP3   OH233000   4.761   6.758   2.292 -0.6337 -0.5212 -0.2313
 3862TIP3    H133001   4.821   6.710   2.235 -0.8817 -0.2566 -0.7284
 3862TIP3    H233002   4.807   6.840   2.310 -0.3515 -0.7996  0.3483
 3863TIP3   OH233003   4.578   4.974   5.378  0.4305 -0.3846 -0.7915
 3863TIP3    H133004   4.558   4.937   5.465  0.9107 -1.2097 -1.0163
 3863TIP3    H233005   4.634   4.908   5.337  1.3269  0.6133 -1.2188
 3864TIP3   OH233006   1.500   5.752  13.868  0.3453 -0.2461  0.1509
 3864TIP3    H133007   1.476   5.755  13.961 -0.1873  1.1967 -0.0081
 3864TIP3    H233008   1.589   5.788  13.864  0.6476 -0.9683  0.1667
 3865TIP3   OH233009   5.468   2.935  14.708 -0.5363  0.2421  0.4936
 3865TIP3    H133010   5.510   2.921  14.623  1.4529 -0.0877  1.4632
 3865TIP3    H233011   5.374   2.933  14.689 -0.1929 -1.3941 -1.4537
 3866TIP3   OH233012   5.347   2.322  13.030 -0.5388  0.2796 -0.0030
 3866TIP3    H133013   5.399   2.289  13.103 -2.1991  0.4565  1.2938
 3866TIP3    H233014   5.280   2.255  13.015 -0.7424  0.6427 -0.7999
 3867TIP3   OH233015   4.918   3.746   3.426 -0.0555  0.2667  0.1651
 3867TIP3    H133016   4.930   3.841   3.428 -0.4426  0.3005  1.9982
 3867TIP3    H233017   4.864   3.731   3.348  0.9912  1.3962 -0.8327
 3868TIP3   OH233018   3.532   4.381  15.022  0.0519  0.0859  0.9138
 3868TIP3    H133019   3.544   4.414  15.111 -1.4724 -0.1193  1.2390
 3868TIP3    H233020   3.437   4.387  15.008  0.3067  0.4180 -0.8232
 3869TIP3   OH233021   5.072   6.120   0.426 -0.1735 -0.0151  0.2168
 3869TIP3    H133022   5.151   6.147   0.378 -0.9700  0.0664 -1.1024
 3869TIP3    H233023   5.096   6.036   0.466  0.4333 -0.2390 -0.5826
 3870TIP3   OH233024   1.240   1.191   2.356 -0.9694  1.1293 -0.2352
 3870TIP3    H133025   1.188   1.123   2.312  2.6394 -2.0704 -0.0319
 3870TIP3    H233026   1.268   1.249   2.285 -0.1786 -0.4641 -1.2936
 3871TIP3   OH233027   2.454   2.083  13.220 -0.3966  0.0644 -0.0594
 3871TIP3    H133028   2.548   2.100  13.211 -0.6009  0.8387 -0.7605
 3871TIP3    H233029   2.424   2.065  13.131 -0.3923 -3.1150  0.4494
 3872TIP3   OH233030   4.026   0.874   6.044  0.1763 -0.2890  0.5122
 3872TIP3    H133031   3.945   0.894   6.091  1.1028  0.4433  1.9143
 3872TIP3    H233032   4.042   0.781   6.061  0.9136  0.1414  2.4275
 3873TIP3   OH233033   5.903   5.894   4.167  0.0336  0.4227 -0.5547
 3873TIP3    H133034   5.998   5.900   4.154  0.3169 -2.7235 -0.5932
 3873TIP3    H233035   5.893   5.833   4.240 -1.9851  0.7804 -0.4814
 3874TIP3   OH233036   1.267   5.400   0.065 -0.2352  0.6901  0.3043
 3874TIP3    H133037   1.243   5.356   0.147 -1.2978  0.6809  0.0084
 3874TIP3    H233038   1.331   5.465   0.091  0.0332  0.1570  1.0237
 3875TIP3   OH233039   6.669   6.738  14.971  0.6927 -0.0041  0.0523
 3875TIP3    H133040   6.633   6.783  15.047 -1.7757 -0.1968 -0.9092
 3875TIP3    H233041   6.671   6.805  14.902 -0.8760 -0.7278 -0.7583
 3876TIP3   OH233042   4.624   4.759   4.959 -0.1339 -0.6837 -0.6092
 3876TIP3    H133043   4.646   4.672   4.924  2.5438 -0.7103  0.8873
 3876TIP3    H233044   4.694   4.816   4.926 -1.2315  0.6857 -0.6437
 3877TIP3   OH233045   4.328   1.095   0.852  0.1957 -0.2436 -0.0639
 3877TIP3    H133046   4.251   1.040   0.866 -0.1832  0.3921  0.4201
 3877TIP3    H233047   4.397   1.034   0.826 -0.3863 -0.8600 -0.1801
 3878TIP3   OH233048   3.111   0.040   3.867  0.1877  0.0869  0.1536
 3878TIP3    H133049   3.145  -0.017   3.935  0.0211 -0.0996  0.0802
 3878TIP3    H233050   3.021   0.058   3.892  0.0493 -0.1831 -0.1485
 3879TIP3   OH233051   1.306   4.434   1.324  0.1184 -0.5138  0.5344
 3879TIP3    H133052   1.345   4.380   1.256 -0.1738 -1.5413  1.1598
 3879TIP3    H233053   1.223   4.463   1.287  0.2942 -0.4586  0.1812
 3880TIP3   OH233054   3.894   0.687   1.945  0.1724  0.4004 -0.5094
 3880TIP3    H133055   3.806   0.671   1.910 -0.9112  3.5677  0.4223
 3880TIP3    H233056   3.936   0.742   1.878  1.2232 -0.4507 -0.5861
 3881TIP3   OH233057   6.544   5.968  15.977 -0.0251  0.0863  0.0777
 3881TIP3    H133058   6.531   5.873  15.969 -0.7095  0.2835 -1.6380
 3881TIP3    H233059   6.468   5.999  16.026 -0.2068 -0.1688 -0.0402
 3882TIP3   OH233060   1.107   0.659   1.905  0.3211  0.5522 -0.2655
 3882TIP3    H133061   1.013   0.668   1.886 -0.0605  3.9554  2.3382
 3882TIP3    H233062   1.114   0.575   1.950 -1.2956 -0.1348 -1.1966
 3883TIP3   OH233063   0.211   5.347   1.361  0.1420 -0.1874 -0.7292
 3883TIP3    H133064   0.285   5.364   1.419  0.3145 -1.2551 -0.6257
 3883TIP3    H233065   0.135   5.343   1.420  0.1149  0.0853 -0.7426
 3884TIP3   OH233066   4.547   0.985  15.238  0.8878  0.1900  0.3758
 3884TIP3    H133067   4.516   1.065  15.280  0.6181  0.0212  0.4956
 3884TIP3    H233068   4.468   0.938  15.214  0.9529  1.1934 -2.1430
 3885TIP3   OH233069   0.331   3.066   4.845 -0.1505  0.7233  0.6161
 3885TIP3    H133070   0.297   3.131   4.907 -0.8366 -0.8091  1.9283
 3885TIP3    H233071   0.258   3.049   4.786 -1.0625 -1.0399  2.1585
 3886TIP3   OH233072   1.316   6.369  12.310 -0.4308  0.4867 -0.2077
 3886TIP3    H133073   1.290   6.277  12.307  1.7156 -0.1549 -0.2074
 3886TIP3    H233074   1.397   6.374  12.260  0.1636  2.1499  0.8216
 3887TIP3   OH233075   3.876   6.065  12.689  0.0406  0.3268  0.1608
 3887TIP3    H133076   3.846   6.059  12.599  0.7674 -0.0979 -0.0572
 3887TIP3    H233077   3.833   6.143  12.724  1.1899  1.5662 -1.1037
 3888TIP3   OH233078   0.008   4.175  16.891  0.1447  0.2105 -0.4299
 3888TIP3    H133079   0.033   4.098  16.839  2.2375 -0.4634  1.4324
 3888TIP3    H233080  -0.049   4.140  16.960 -1.9673  0.9825 -1.6847
 3889TIP3   OH233081   6.728   1.825   1.263  0.1352  0.3550  0.4594
 3889TIP3    H133082   6.639   1.815   1.229  0.5848 -2.9005 -0.0696
 3889TIP3    H233083   6.718   1.879   1.342 -1.8703  2.2796 -0.9807
 3890TIP3   OH233084   2.056   0.426   0.471  0.4170 -0.1134  0.5947
 3890TIP3    H133085   2.015   0.513   0.472  0.4248 -0.1023  0.2338
 3890TIP3    H233086   2.032   0.387   0.555 -0.1215 -0.0037  0.4952
 3891TIP3   OH233087   2.067   3.540  13.457  0.2213 -0.0854 -0.3049
 3891TIP3    H133088   2.155   3.568  13.481 -0.9432  4.8922 -0.8393
 3891TIP3    H233089   2.077   3.502  13.369  1.8059  0.5890 -0.4336
 3892TIP3   OH233090   5.985   5.346  11.716  0.4213 -0.2416  0.4909
 3892TIP3    H133091   5.984   5.351  11.620  2.0435  0.2107  0.4747
 3892TIP3    H233092   6.077   5.353  11.740  0.1757 -1.6316  2.0456
 3893TIP3   OH233093   0.166   1.225   0.433  0.3277 -0.1443  0.2937
 3893TIP3    H133094   0.246   1.240   0.483 -0.0236 -1.6151  1.3631
 3893TIP3    H233095   0.119   1.309   0.437  0.8664  0.1145  1.3886
 3894TIP3   OH233096   4.675   6.169  13.567 -0.0713 -0.1202  0.0915
 3894TIP3    H133097   4.741   6.192  13.501  2.0043  0.6723  2.2972
 3894TIP3    H233098   4.666   6.074  13.559 -0.8226  0.0756 -2.0971
 3895TIP3   OH233099   6.350   4.505   4.079  0.7528 -0.2328  0.0196
 3895TIP3    H133100   6.262   4.493   4.115  0.3713 -1.9416 -1.3369
 3895TIP3    H233101   6.408   4.475   4.149  0.3432  1.4457  1.1512
 3896TIP3   OH233102   0.774   3.546  13.834 -0.0088  1.1212  0.3783
 3896TIP3    H133103   0.679   3.533  13.834 -0.0158  1.1803 -0.1612
 3896TIP3    H233104   0.802   3.523  13.746  0.9987 -2.7276  1.4955
 3897TIP3   OH233105   4.123   4.293   1.022  0.1134 -0.2341 -0.1494
 3897TIP3    H133106   4.166   4.295   1.107 -1.3669 -1.0297  0.6442
 3897TIP3    H233107   4.195   4.304   0.959  1.0950  1.5484  1.1969
 3898TIP3   OH233108   5.501   0.524  15.090  0.0013 -0.0575  0.6673
 3898TIP3    H133109   5.466   0.570  15.167  0.9606  1.6667  0.1032
 3898TIP3    H233110   5.462   0.569  15.015  0.3023 -0.7149  0.1083
 3899TIP3   OH233111   1.719   1.163  10.829  0.3245  0.4387  0.4134
 3899TIP3    H133112   1.779   1.206  10.768  0.7496  1.6767  1.6441
 3899TIP3    H233113   1.773   1.097  10.873 -0.0931 -0.7707 -0.8059
 3900TIP3   OH233114   1.628   6.200  12.398 -0.4301  0.2066  0.0628
 3900TIP3    H133115   1.712   6.244  12.413  0.9775 -1.9973 -0.7107
 3900TIP3    H233116   1.583   6.254  12.334  1.9062 -0.2010 -2.0688
 3901TIP3   OH233117   0.647   0.389  14.524  0.3437  0.3362 -0.1541
 3901TIP3    H133118   0.739   0.380  14.499  0.0658  0.5159 -1.3390
 3901TIP3    H233119   0.600   0.333  14.463 -0.3168  0.0236  0.6281
 3902TIP3   OH233120   0.695   2.340   5.012 -0.1966 -0.0571  0.0625
 3902TIP3    H133121   0.687   2.367   5.103 -0.8446 -0.1111  0.0266
 3902TIP3    H233122   0.709   2.245   5.015 -0.7621 -0.1429  0.0913
 3903TIP3   OH233123   5.712   3.887   2.167 -0.0460 -0.7536  0.5994
 3903TIP3    H133124   5.718   3.967   2.115  1.1330 -0.3096  1.3576
 3903TIP3    H233125   5.729   3.916   2.257  1.5347 -2.0014  0.7406
 3904TIP3   OH233126   6.170   3.138   2.652 -0.7680 -0.1086  0.3371
 3904TIP3    H133127   6.093   3.114   2.601  0.3732 -2.5516 -0.3567
 3904TIP3    H233128   6.160   3.090   2.735 -0.2322 -0.0350  0.4472
 3905TIP3   OH233129   5.612   1.626   6.381  0.7240  0.5388  0.2389
 3905TIP3    H133130   5.526   1.654   6.413  0.6792 -0.1137  0.6990
 3905TIP3    H233131   5.660   1.602   6.459  1.0602  0.1533 -0.0827
 3906TIP3   OH233132   1.363   1.351   3.511  0.1500  0.3053  0.0255
 3906TIP3    H133133   1.330   1.380   3.426  0.4315 -0.3003 -0.2967
 3906TIP3    H233134   1.437   1.408   3.530  2.5553 -1.9145 -1.9492
 3907TIP3   OH233135   3.162   4.247  11.992  0.0246 -0.0030  0.0707
 3907TIP3    H133136   3.207   4.239  11.908  2.8051 -3.5088  1.5995
 3907TIP3    H233137   3.209   4.316  12.038  1.0560 -0.6727  0.0596
 3908TIP3   OH233138   4.926   4.129   1.238  0.2770 -1.0650  0.5454
 3908TIP3    H133139   4.985   4.093   1.172  0.8060 -0.5843  0.7466
 3908TIP3    H233140   4.851   4.161   1.189  0.0644 -1.9077  0.3116
 3909TIP3   OH233141   6.000   4.842   5.371  0.6411 -0.3085 -0.2577
 3909TIP3    H133142   6.045   4.758   5.360  2.9895  0.7432  0.6705
 3909TIP3    H233143   6.060   4.895   5.424 -0.9622  1.8222 -0.4293
 3910TIP3   OH233144   5.628   5.228  13.708 -0.1215 -0.4957 -0.2760
 3910TIP3    H133145   5.713   5.250  13.670 -0.5148 -0.5086 -1.1726
 3910TIP3    H233146   5.615   5.136  13.686  0.1249 -0.8129  0.8238
 3911TIP3   OH233147   0.719   0.153  16.504 -0.0732 -0.9887 -0.1094
 3911TIP3    H133148   0.678   0.086  16.449  0.0560 -0.9243 -0.2884
 3911TIP3    H233149   0.654   0.223  16.508  0.5883 -0.2320 -1.6487
 3912TIP3   OH233150   6.229   1.459   3.604  0.2084 -0.2376  0.2621
 3912TIP3    H133151   6.314   1.456   3.560 -0.2744  0.0982 -0.7198
 3912TIP3    H233152   6.247   1.501   3.688  0.5428  2.5244 -1.0970
 3913TIP3   OH233153   5.590   1.350   0.683  0.6376  0.0504 -0.1952
 3913TIP3    H133154   5.562   1.439   0.661  0.5868  0.8075  2.4773
 3913TIP3    H233155   5.666   1.334   0.627  0.0034  1.3532 -1.4773
 3914TIP3   OH233156   1.489   2.913  11.874  0.5345  0.7887  0.1981
 3914TIP3    H133157   1.576   2.880  11.898 -0.1552 -0.7452  0.6912
 3914TIP3    H233158   1.432   2.882  11.944 -0.9024 -0.7047 -1.5599
 3915TIP3   OH233159   1.044   1.516  11.691  0.1269  0.0871 -0.0767
 3915TIP3    H133160   1.111   1.550  11.750 -1.1305  0.1959  1.3511
 3915TIP3    H233161   0.988   1.591  11.672 -0.0801 -0.1886 -0.5893
 3916TIP3   OH233162   5.765   2.207   0.141 -0.3309 -0.0786  0.1330
 3916TIP3    H133163   5.779   2.259   0.062  0.6523  0.1215  0.4322
 3916TIP3    H233164   5.802   2.259   0.211 -0.5694 -0.5743  0.6377
 3917TIP3   OH233165   1.077   5.394   1.907  0.4998  0.0501 -0.0327
 3917TIP3    H133166   1.028   5.476   1.914 -0.9964 -0.5968 -2.0319
 3917TIP3    H233167   1.087   5.380   1.812 -0.1174 -2.5233  0.1971
 3918TIP3   OH233168   0.562   4.624  14.439 -0.7308 -0.4501  0.1927
 3918TIP3    H133169   0.576   4.629  14.533 -0.7093  0.2003  0.1572
 3918TIP3    H233170   0.617   4.693  14.403 -1.0111 -0.4639 -0.2707
 3919TIP3   OH233171   5.324   6.146   0.298 -0.4128  0.1992  0.4255
 3919TIP3    H133172   5.390   6.153   0.229  0.9713 -0.2709  1.6449
 3919TIP3    H233173   5.343   6.221   0.356 -0.9220  0.0364  0.8035
 3920TIP3   OH233174   5.124   1.426   3.669 -0.1779 -0.6067  0.4504
 3920TIP3    H133175   5.166   1.419   3.583 -1.4395  0.0760 -0.2620
 3920TIP3    H233176   5.171   1.364   3.724  1.0542 -0.6305 -0.5703
 3921TIP3   OH233177   3.970   5.838  15.427  0.4813 -0.3972  0.3596
 3921TIP3    H133178   3.902   5.904  15.419 -1.9532 -2.8966 -1.4733
 3921TIP3    H233179   3.950   5.793  15.509  0.6234 -0.4242  0.3803
 3922TIP3   OH233180   2.206   5.532   1.636  0.5564  0.3338 -0.0318
 3922TIP3    H133181   2.265   5.572   1.700 -0.4979  2.4345 -0.2728
 3922TIP3    H233182   2.141   5.600   1.619 -1.0692 -1.3689 -0.8909
 3923TIP3   OH233183   1.135   6.603  15.324 -0.2046 -0.0173 -0.1206
 3923TIP3    H133184   1.065   6.658  15.288  0.1022  2.5519  2.7524
 3923TIP3    H233185   1.212   6.625  15.272 -0.6758  0.2505 -0.7192
 3924TIP3   OH233186   5.923   2.905   1.155  0.3380  0.2329  0.2027
 3924TIP3    H133187   5.998   2.955   1.123 -0.4223  0.1231 -1.9303
 3924TIP3    H233188   5.961   2.834   1.205  1.7938 -0.5103 -1.8101
 3925TIP3   OH233189   3.818   2.411   0.704 -0.2478 -0.0785 -0.2004
 3925TIP3    H133190   3.754   2.443   0.640 -0.8404 -0.1183  0.3576
 3925TIP3    H233191   3.883   2.365   0.651  0.7803  2.1953 -1.0709
 3926TIP3   OH233192   6.056   1.527   0.283 -0.2568  0.1979  0.0481
 3926TIP3    H133193   5.971   1.557   0.316  0.2442  1.9918 -0.1569
 3926TIP3    H233194   6.073   1.583   0.208 -0.2841 -2.2288 -1.8734
 3927TIP3   OH233195   2.330   2.557   0.812 -0.4427  0.5605 -0.3125
 3927TIP3    H133196   2.415   2.513   0.809 -0.6995  0.0374 -0.1753
 3927TIP3    H233197   2.310   2.562   0.906  0.3227  2.4485 -0.2239
 3928TIP3   OH233198   3.510   4.293  13.932 -0.1523  0.0322  0.3407
 3928TIP3    H133199   3.458   4.352  13.879  0.4379  1.1663  0.9845
 3928TIP3    H233200   3.524   4.216  13.876  0.1993  1.0533 -1.0272
 3929TIP3   OH233201   0.972   5.489  10.774  0.3043 -0.1984  0.0494
 3929TIP3    H133202   1.020   5.560  10.732  1.7369 -0.6388  0.8714
 3929TIP3    H233203   0.890   5.529  10.803  1.1129  1.1644  0.5671
 3930TIP3   OH233204   4.704   1.866   2.798 -0.1056 -0.4900 -0.5614
 3930TIP3    H133205   4.749   1.937   2.844 -1.1591  0.7242 -1.3417
 3930TIP3    H233206   4.728   1.787   2.846  2.7887  0.0780 -0.8607
 3931TIP3   OH233207   5.389   4.282   2.511  0.0797  0.0042  0.1765
 3931TIP3    H133208   5.294   4.268   2.515 -0.1214  1.2867  0.1005
 3931TIP3    H233209   5.418   4.274   2.601 -0.2461  0.5481  0.3328
 3932TIP3   OH233210   2.929   2.531  11.184  0.2131 -0.4975  0.5479
 3932TIP3    H133211   2.895   2.443  11.166 -0.5766  0.2055 -1.7014
 3932TIP3    H233212   2.931   2.536  11.279 -0.5328 -2.6370  0.7475
 3933TIP3   OH233213   2.607   4.363   5.291  0.1104  0.6794 -0.1363
 3933TIP3    H133214   2.640   4.429   5.352  1.3059  1.2575 -1.3702
 3933TIP3    H233215   2.621   4.280   5.337  2.3685  0.9839 -0.1583
 3934TIP3   OH233216   2.826   1.675   0.819  0.1555  0.2810 -0.1414
 3934TIP3    H133217   2.786   1.760   0.838  0.3246  0.7188 -1.6509
 3934TIP3    H233218   2.898   1.695   0.759 -0.4315 -1.0188 -1.3357
 3935TIP3   OH233219   6.389   4.825  16.693 -0.3127 -0.4795 -0.1437
 3935TIP3    H133220   6.420   4.814  16.783 -0.7864 -1.5675 -0.1040
 3935TIP3    H233221   6.328   4.753  16.680 -2.2951  1.1774 -0.4651
 3936TIP3   OH233222   3.554   3.362   3.315 -0.1243 -0.2654 -0.0691
 3936TIP3    H133223   3.624   3.402   3.366  1.4219 -0.1211 -2.1605
 3936TIP3    H233224   3.599   3.308   3.250 -1.9889 -0.8170 -0.9798
 3937TIP3   OH233225   1.718   1.135   1.350  0.4604 -0.5483 -0.1081
 3937TIP3    H133226   1.639   1.084   1.364  0.3523  0.3122  3.0665
 3937TIP3    H233227   1.694   1.196   1.279 -1.4108 -0.8862  0.1733
 3938TIP3   OH233228   2.406   4.873   2.868 -0.0788  0.7259  0.2466
 3938TIP3    H133229   2.405   4.800   2.930 -1.2386  0.7870  0.3082
 3938TIP3    H233230   2.431   4.833   2.785  0.8023  0.5288  0.5868
 3939TIP3   OH233231   6.361   3.783   5.471 -0.0966 -0.0801 -0.0769
 3939TIP3    H133232   6.305   3.747   5.401  0.8205 -0.0795 -0.8285
 3939TIP3    H233233   6.311   3.768   5.551 -2.2565  1.9739 -0.9078
 3940TIP3   OH233234   2.232   1.327  12.464  0.7313  0.6930 -0.8733
 3940TIP3    H133235   2.310   1.281  12.496 -0.1742 -0.0587  0.3148
 3940TIP3    H233236   2.237   1.320  12.369  0.7506 -1.6851 -0.7377
 3941TIP3   OH233237   3.614   5.742   4.828 -0.2475 -0.0070 -0.8060
 3941TIP3    H133238   3.654   5.656   4.814  0.0587 -0.1515  0.7413
 3941TIP3    H233239   3.628   5.789   4.746 -1.5469 -1.8476 -2.1258
 3942TIP3   OH233240   5.123   1.492  12.390  0.3617  0.2137  0.1887
 3942TIP3    H133241   5.187   1.538  12.337  0.4727  0.4069  0.4869
 3942TIP3    H233242   5.038   1.516  12.353  0.4992 -1.1498 -1.1046
 3943TIP3   OH233243   4.478   2.579   2.462 -0.2156 -0.4907 -0.1306
 3943TIP3    H133244   4.540   2.644   2.496 -1.0509 -0.2426  0.9436
 3943TIP3    H233245   4.393   2.623   2.465 -0.6930 -1.3978 -0.0345
 3944TIP3   OH233246   1.441   4.283  16.142  0.6972 -0.2027  0.0139
 3944TIP3    H133247   1.444   4.217  16.212  0.0551 -1.5357 -1.1495
 3944TIP3    H233248   1.348   4.308  16.138  0.9529  0.8614  0.5000
 3945TIP3   OH233249   3.453   0.053  14.286  0.1006 -0.3351  0.1831
 3945TIP3    H133250   3.534   0.092  14.253 -0.5026  1.0476  0.2290
 3945TIP3    H233251   3.479   0.001  14.361  0.8312  0.9664  0.8596
 3946TIP3   OH233252   1.533   5.183  10.459 -0.1058  0.3583  0.0390
 3946TIP3    H133253   1.577   5.268  10.459 -0.6297  0.6446 -1.1080
 3946TIP3    H233254   1.581   5.132  10.525  0.6433  1.3136  0.2660
 3947TIP3   OH233255   4.909   0.708  16.725 -0.1302 -0.1543 -0.5693
 3947TIP3    H133256   4.934   0.625  16.764  0.8571  0.4272  0.0814
 3947TIP3    H233257   4.908   0.691  16.630 -1.2253 -1.2183 -0.4030
 3948TIP3   OH233258   3.200   0.466   0.852 -0.0659  0.3312 -0.7087
 3948TIP3    H133259   3.134   0.481   0.784  0.0659  1.9136 -0.5241
 3948TIP3    H233260   3.258   0.542   0.846  2.7513 -1.7538 -1.9414
 3949TIP3   OH233261   0.944   2.115  14.258 -0.3779  0.4166 -0.3986
 3949TIP3    H133262   0.868   2.107  14.314  1.2679  0.2168  1.9675
 3949TIP3    H233263   0.909   2.123  14.169 -3.0505 -2.0865  0.3008
 3950TIP3   OH233264   3.182   4.353  16.081  0.1218  0.0344 -0.1590
 3950TIP3    H133265   3.126   4.408  16.026 -0.2192 -0.3827 -0.2305
 3950TIP3    H233266   3.135   4.346  16.164  0.1908 -0.1015 -0.1298
 3951TIP3   OH233267   4.666   1.745  15.655  0.5935 -0.2176  0.5147
 3951TIP3    H133268   4.717   1.825  15.643  1.0153 -0.5316  0.2201
 3951TIP3    H233269   4.686   1.716  15.744  0.9443 -0.3533  0.3904
 3952TIP3   OH233270   1.347   6.237   4.078  0.1699  0.2064 -0.3325
 3952TIP3    H133271   1.334   6.331   4.092  0.7567  0.2343  0.1041
 3952TIP3    H233272   1.438   6.222   4.106  0.4943 -0.2638 -1.5850
 3953TIP3   OH233273   1.325   0.607   0.408 -0.0675 -0.6145  0.4532
 3953TIP3    H133274   1.309   0.578   0.497 -0.0303  1.0514  1.0355
 3953TIP3    H233275   1.319   0.527   0.355  3.8642 -2.4583  2.3522
 3954TIP3   OH233276   4.269   5.873  12.011  0.0524 -0.2101  0.5757
 3954TIP3    H133277   4.184   5.914  12.020  0.3558  0.6630 -0.3593
 3954TIP3    H233278   4.329   5.945  11.993  0.5180 -1.0755 -1.6034
 3955TIP3   OH233279   5.498   5.722   5.432  0.5363  0.3502 -0.0199
 3955TIP3    H133280   5.480   5.641   5.382  3.1258 -0.6204  0.4863
 3955TIP3    H233281   5.498   5.694   5.523 -2.2994  1.7624  0.5282
 3956TIP3   OH233282   3.793   0.040   0.894  0.1771 -0.1022  0.0486
 3956TIP3    H133283   3.718   0.054   0.951  0.2939  1.2145 -0.0778
 3956TIP3    H233284   3.787   0.110   0.830 -0.3934 -1.9953 -2.0889
 3957TIP3   OH233285   4.369   6.506   4.724  0.0807  0.1490  0.0252
 3957TIP3    H133286   4.420   6.528   4.803  1.7980 -0.5213 -0.8342
 3957TIP3    H233287   4.323   6.586   4.702 -0.2826  0.4096  1.5855
 3958TIP3   OH233288   0.567   1.819   1.877 -0.2656  0.2014 -0.0279
 3958TIP3    H133289   0.522   1.754   1.823  1.3813  0.3512 -1.6484
 3958TIP3    H233290   0.646   1.774   1.907  0.9885  1.4683 -1.3211
 3959TIP3   OH233291   0.139   1.125  11.710 -0.3047  0.1829  0.2131
 3959TIP3    H133292   0.106   1.172  11.787 -0.4738 -0.3926  0.5037
 3959TIP3    H233293   0.209   1.069  11.745 -0.2747  0.0371 -0.0790
 3960TIP3   OH233294   5.884   2.198   3.180 -0.1561 -0.5412 -0.4369
 3960TIP3    H133295   5.788   2.203   3.174 -0.0514  1.2469 -1.1245
 3960TIP3    H233296   5.915   2.251   3.107  1.3615 -0.3635  0.3159
 3961TIP3   OH233297   1.355   6.103  13.688  0.0343 -0.0514 -0.3556
 3961TIP3    H133298   1.379   6.167  13.621 -2.2714 -0.1263 -1.3617
 3961TIP3    H233299   1.404   6.130  13.766  1.9008  0.7302 -1.7302
 3962TIP3   OH233300   0.691   1.237  16.201  0.2193  0.0525  0.0532
 3962TIP3    H133301   0.642   1.305  16.247  0.6708 -0.0480  0.6954
 3962TIP3    H233302   0.782   1.262  16.211  0.3607 -0.3645 -0.1697
 3963TIP3   OH233303   6.050   3.387  17.010 -0.1329 -0.1923 -0.4219
 3963TIP3    H133304   5.972   3.369  16.959 -2.5710 -0.7865  3.1356
 3963TIP3    H233305   6.072   3.302  17.051  0.5909  0.5636  0.8313
 3964TIP3   OH233306   5.022   5.755  15.162 -0.4313  0.1922 -0.3713
 3964TIP3    H133307   4.995   5.846  15.145 -1.1709 -0.0618 -0.5733
 3964TIP3    H233308   5.009   5.743  15.256  0.8778  0.6761 -0.0943
 3965TIP3   OH233309   2.380   1.487  12.891 -0.8593 -0.3250  0.3972
 3965TIP3    H133310   2.432   1.544  12.948 -0.5593 -0.7719  0.5672
 3965TIP3    H233311   2.374   1.404  12.939  1.5616 -1.5971 -1.3311
 3966TIP3   OH233312   6.166   2.901   0.824 -0.5284  0.3312 -0.4290
 3966TIP3    H133313   6.245   2.888   0.877 -0.7202  1.1361  0.0728
 3966TIP3    H233314   6.125   2.815   0.821  0.2996 -0.0683 -0.5860
 3967TIP3   OH233315   1.642   3.853   5.118 -0.5731  0.4187  0.0680
 3967TIP3    H133316   1.547   3.845   5.123 -0.7631  2.7841  1.0158
 3967TIP3    H233317   1.667   3.788   5.051 -2.7962 -0.3918 -0.0648
 3968TIP3   OH233318   3.992   2.146   4.017 -0.4590 -0.1988 -0.5680
 3968TIP3    H133319   3.950   2.061   4.004  1.5674 -0.9474 -2.8347
 3968TIP3    H233320   3.919   2.207   4.030 -2.1529 -1.7296 -2.3625
 3969TIP3   OH233321   6.331   3.267   0.403  0.3507  0.4090 -0.1320
 3969TIP3    H133322   6.303   3.343   0.453 -0.6851  0.1164 -0.2437
 3969TIP3    H233323   6.391   3.302   0.337  2.6621  0.6591  1.9555
 3970TIP3   OH233324   0.870   3.812  16.893 -0.5375 -0.5284  0.7461
 3970TIP3    H133325   0.837   3.848  16.811  2.2660  0.4422 -0.0947
 3970TIP3    H233326   0.869   3.886  16.954  0.3612 -0.3576  0.5775
 3971TIP3   OH233327   5.684   1.197  11.324 -0.2715  0.2313  0.1504
 3971TIP3    H133328   5.738   1.259  11.374 -0.3919  1.2036 -0.8736
 3971TIP3    H233329   5.615   1.251  11.285 -0.1931 -0.4821 -1.0340
 3972TIP3   OH233330   3.976   2.064  14.710  0.6631  0.4807  0.5323
 3972TIP3    H133331   3.884   2.091  14.718  0.6074  0.4633 -0.0155
 3972TIP3    H233332   4.012   2.078  14.797  0.3410  1.2299  0.5572
 3973TIP3   OH233333   1.071   6.580  13.610  0.1624  0.0174 -0.2819
 3973TIP3    H133334   0.978   6.594  13.591  0.0675 -0.1202  0.0820
 3973TIP3    H233335   1.095   6.505  13.557 -0.1393 -0.4568  0.2456
 3974TIP3   OH233336   4.093   6.138   4.039  0.2267  0.6393 -0.1934
 3974TIP3    H133337   4.189   6.137   4.037  0.2561 -1.7055 -1.4141
 3974TIP3    H233338   4.067   6.159   3.950 -0.3848  0.5068 -0.0525
 3975TIP3   OH233339   4.021   4.156   5.635 -0.4622  0.1760 -0.0110
 3975TIP3    H133340   4.080   4.163   5.560 -0.8164 -0.6901 -0.3880
 3975TIP3    H233341   4.075   4.178   5.710  0.3097 -0.4799 -0.3627
 3976TIP3   OH233342   5.270   3.825  14.152 -0.0209  0.1053  0.0419
 3976TIP3    H133343   5.211   3.768  14.202  0.2739  0.1870  0.4762
 3976TIP3    H233344   5.294   3.895  14.212  0.4947  0.0962 -0.1494
 3977TIP3   OH233345   0.242   2.949   0.574 -0.1035  0.3654 -0.3113
 3977TIP3    H133346   0.309   2.928   0.640 -0.6806  1.6183  0.7127
 3977TIP3    H233347   0.210   2.863   0.545  1.3134 -0.2348 -0.1780
 3978TIP3   OH233348   4.342   2.277   1.914 -0.1445  0.0923  0.1914
 3978TIP3    H133349   4.432   2.304   1.898  0.4969 -1.1173  1.4479
 3978TIP3    H233350   4.294   2.358   1.930  0.7212  0.7449 -0.4696
 3979TIP3   OH233351   1.063   2.784  16.508 -0.2465  0.0237  0.8576
 3979TIP3    H133352   1.003   2.856  16.486 -0.9186 -0.8132 -0.1750
 3979TIP3    H233353   1.149   2.816  16.481 -0.0236  1.5541  3.0748
 3980TIP3   OH233354   2.809   0.133  12.552  0.1000  0.3373  0.2002
 3980TIP3    H133355   2.813   0.043  12.586  1.9947 -0.3110 -1.5646
 3980TIP3    H233356   2.777   0.123  12.462  0.5899  1.3978 -0.1028
 3981TIP3   OH233357   4.481   6.703  11.863 -0.3597 -0.0671 -0.5928
 3981TIP3    H133358   4.571   6.694  11.894 -0.2223  0.0786 -0.9507
 3981TIP3    H233359   4.471   6.634  11.797 -0.5595 -0.1843 -0.4413
 3982TIP3   OH233360   6.634   6.186  14.797 -0.0432 -0.4368  0.2546
 3982TIP3    H133361   6.628   6.200  14.891  0.0800 -2.3196  0.5881
 3982TIP3    H233362   6.726   6.167  14.782 -0.2662 -1.3242 -0.0415
 3983TIP3   OH233363   0.754   4.209   6.846 -0.2032  0.3088 -0.0978
 3983TIP3    H133364   0.667   4.172   6.858 -1.6799  3.4124 -0.4683
 3983TIP3    H233365   0.777   4.186   6.756 -0.7213 -0.3280 -0.0751
 3984TIP3   OH233366   6.075   5.341   3.868 -0.0456 -0.2504  0.7243
 3984TIP3    H133367   6.031   5.388   3.939 -1.3124 -1.2597  0.6250
 3984TIP3    H233368   6.118   5.410   3.818 -2.3035  0.9094  0.2723
 3985TIP3   OH233369   1.753   4.617  14.137  0.0759  0.1787 -0.7515
 3985TIP3    H133370   1.807   4.662  14.202  1.0186 -0.2225 -1.2366
 3985TIP3    H233371   1.694   4.685  14.103 -1.6136  0.0587  1.6680
 3986TIP3   OH233372   3.956   4.605  13.008 -0.1403  0.4752  0.0705
 3986TIP3    H133373   3.900   4.681  13.018 -1.9094 -0.7720  0.0711
 3986TIP3    H233374   3.989   4.611  12.919 -2.1158  0.0902 -0.7377
 3987TIP3   OH233375   1.522   5.173  16.602  0.2857  0.2813 -0.2840
 3987TIP3    H133376   1.480   5.259  16.600  0.7982  0.5263 -1.4992
 3987TIP3    H233377   1.525   5.145  16.511 -3.2420 -2.7765  0.2986
 3988TIP3   OH233378   3.587   1.349  16.043 -0.1130 -0.4349  0.0763
 3988TIP3    H133379   3.542   1.273  16.007 -0.6201 -1.5825  2.8295
 3988TIP3    H233380   3.669   1.314  16.077  0.1632  0.4713  0.3648
 3989TIP3   OH233381   6.232   3.733  11.740  0.2354  0.3699 -0.5152
 3989TIP3    H133382   6.140   3.720  11.762  0.2861 -0.2137 -0.6241
 3989TIP3    H233383   6.238   3.826  11.718  0.1747  0.9937  1.8220
 3990TIP3   OH233384   0.474   4.398   1.154 -0.0388  0.4855 -0.3097
 3990TIP3    H133385   0.392   4.394   1.105 -0.4573 -1.3694  0.4398
 3990TIP3    H233386   0.460   4.466   1.220 -0.9009  0.3515 -0.3415
 3991TIP3   OH233387   1.363   1.320   0.556 -0.3073 -0.6219 -0.0896
 3991TIP3    H133388   1.454   1.295   0.543  0.2863  1.6514 -0.8595
 3991TIP3    H233389   1.366   1.398   0.611 -1.6916  0.0033 -0.8110
 3992TIP3   OH233390   0.195   3.736   1.601  0.3778  0.3522  0.0081
 3992TIP3    H133391   0.171   3.828   1.594 -1.4601 -0.1519 -0.7441
 3992TIP3    H233392   0.286   3.733   1.573  0.0333  1.7348 -1.3875
 3993TIP3   OH233393   4.085   1.239  13.803  0.0671 -0.6275  0.2635
 3993TIP3    H133394   4.025   1.290  13.858 -1.5013 -0.5509 -1.4373
 3993TIP3    H233395   4.035   1.160  13.779  0.8919 -0.8998 -0.6307
 3994TIP3   OH233396   6.754   5.772  17.070  0.4375 -0.0014  0.3045
 3994TIP3    H133397   6.795   5.740  17.150  1.4547 -0.9162 -0.5288
 3994TIP3    H233398   6.694   5.703  17.044  0.8026 -0.1426 -0.1966
 3995TIP3   OH233399   4.844   0.743   0.860 -0.2672 -0.1853  0.4210
 3995TIP3    H133400   4.893   0.796   0.798 -1.9378  2.0410  0.9154
 3995TIP3    H233401   4.805   0.673   0.807  2.8867 -1.7752 -0.0583
 3996TIP3   OH233402   2.103   6.646  13.459  0.3209 -0.3343  0.5527
 3996TIP3    H133403   2.056   6.631  13.541  0.8926 -2.2016  0.5644
 3996TIP3    H233404   2.167   6.575  13.454 -1.0557 -1.5189 -2.4923
 3997TIP3   OH233405   2.269   3.758   4.103 -0.2575  0.4055 -0.2959
 3997TIP3    H133406   2.257   3.699   4.177 -2.3396 -0.0498 -0.9339
 3997TIP3    H233407   2.301   3.702   4.033  4.0430  1.2104  0.7286
 3998TIP3   OH233408   1.182   3.514   1.674  0.5600 -0.0317 -0.4806
 3998TIP3    H133409   1.182   3.553   1.586  1.4880  0.0710 -0.4424
 3998TIP3    H233410   1.196   3.588   1.733  0.1297 -0.1284 -0.2472
 3999TIP3   OH233411   5.994   6.660   6.042  0.0723 -0.1855 -0.0690
 3999TIP3    H133412   5.923   6.663   5.977 -0.7595  0.7326  0.8422
 3999TIP3    H233413   5.961   6.603   6.111  0.1501  0.3601  0.4285
 4000TIP3   OH233414   1.922   3.200  12.935 -0.7115 -1.0785  0.2792
 4000TIP3    H133415   1.994   3.250  12.898 -0.5738 -3.0311 -2.4298
 4000TIP3    H233416   1.843   3.240  12.899 -0.9460  0.0517  1.9458
 4001TIP3   OH233417   0.851   6.669  11.923  0.1437 -0.2029 -0.0216
 4001TIP3    H133418   0.893   6.707  12.000  0.6681  0.8341 -0.7776
 4001TIP3    H233419   0.778   6.727  11.904  0.7702  0.2995 -1.0175
 4002TIP3   OH233420   3.390   6.468   4.627 -0.1691  0.1849  0.1280
 4002TIP3    H133421   3.367   6.375   4.625 -0.2070  0.2009 -0.3336
 4002TIP3    H233422   3.464   6.472   4.688 -0.5194 -0.0624  0.5757
 4003TIP3   OH233423   1.006   1.601   0.658  0.5623  0.3173 -0.5853
 4003TIP3    H133424   0.975   1.516   0.625 -0.9082  0.8887 -0.7371
 4003TIP3    H233425   0.926   1.650   0.676  1.3878  2.1936 -1.8082
 4004TIP3   OH233426   1.754   2.144   5.339 -0.4649  0.2204 -0.3725
 4004TIP3    H133427   1.762   2.070   5.399 -0.7716  0.0834 -0.4954
 4004TIP3    H233428   1.706   2.210   5.388 -0.0303  0.4072 -0.2007
 4005TIP3   OH233429   5.666   1.114  11.826  0.1717 -0.2051  0.1294
 4005TIP3    H133430   5.761   1.121  11.828  0.1693 -0.0227 -0.1694
 4005TIP3    H233431   5.640   1.108  11.918  0.6015 -2.3153  0.1464
 4006TIP3   OH233432   4.376   5.454   3.701  0.4684  0.2062 -0.0104
 4006TIP3    H133433   4.401   5.473   3.611  2.0620 -1.7555 -0.0593
 4006TIP3    H233434   4.393   5.360   3.711  0.4228  0.3950  2.3687
 4007TIP3   OH233435   5.451   6.143   0.048  0.0127 -0.0949 -0.0533
 4007TIP3    H133436   5.445   6.052   0.018 -0.6922 -0.2351  0.4790
 4007TIP3    H233437   5.532   6.176   0.009 -1.4302  0.1383 -3.1898
 4008TIP3   OH233438   3.703   5.127   5.861  0.3668  0.5377 -0.2314
 4008TIP3    H133439   3.690   5.034   5.879  0.0675  0.7149  0.5180
 4008TIP3    H233440   3.797   5.135   5.843  0.0574 -0.2344 -2.4183
 4009TIP3   OH233441   6.056   6.293   2.033 -0.4958  0.8572 -0.5470
 4009TIP3    H133442   6.096   6.329   1.953 -1.2391  0.2257 -1.2165
 4009TIP3    H233443   6.124   6.236   2.069  0.3793  2.2247  0.0691
 4010TIP3   OH233444   5.458   1.287   5.734 -0.0773  0.5676 -0.3218
 4010TIP3    H133445   5.515   1.260   5.662  0.4781  2.5259 -0.6891
 4010TIP3    H233446   5.371   1.295   5.695 -0.1055 -0.0055 -0.3719
 4011TIP3   OH233447   2.121   6.546  12.884  0.2400 -0.3309 -0.0421
 4011TIP3    H133448   2.123   6.579  12.974  1.5460 -0.4863  0.0012
 4011TIP3    H233449   2.182   6.603  12.837 -0.3075 -0.3588 -0.7931
 4012TIP3   OH233450   0.748   5.391   3.866  0.2830 -0.2111  0.2928
 4012TIP3    H133451   0.688   5.327   3.903 -0.4775  0.5675  0.4267
 4012TIP3    H233452   0.826   5.387   3.922 -0.0098 -0.5599  0.6784
 4013TIP3   OH233453   5.331   4.406  15.586 -0.0999  0.1599 -0.0126
 4013TIP3    H133454   5.282   4.327  15.564  0.7049 -0.0148 -1.2455
 4013TIP3    H233455   5.263   4.473  15.597 -0.6832 -0.2471 -0.9611
 4014TIP3   OH233456   5.342   3.387   5.150  0.3840 -0.5730 -0.4518
 4014TIP3    H133457   5.407   3.451   5.120  2.8178 -2.8100 -0.3293
 4014TIP3    H233458   5.391   3.305   5.158 -2.1368 -2.0490  1.2746
 4015TIP3   OH233459   4.345   3.206   0.654 -0.8708  0.2256  0.2433
 4015TIP3    H133460   4.257   3.215   0.619 -0.6577 -1.1334 -0.7098
 4015TIP3    H233461   4.344   3.123   0.701  0.9366 -2.0574 -3.3101
 4016TIP3   OH233462   3.480   3.325  13.007 -0.0546  0.1890 -0.2533
 4016TIP3    H133463   3.417   3.305  12.938  0.4445 -2.1628 -0.1099
 4016TIP3    H233464   3.436   3.299  13.088  0.4263  0.2313  0.0253
 4017TIP3   OH233465   3.952   1.482   2.825 -0.2899  0.4064 -0.6164
 4017TIP3    H133466   4.028   1.465   2.880 -1.3802  1.1822  1.2061
 4017TIP3    H233467   3.988   1.526   2.748  0.9369  2.8808  1.2260
 4018TIP3   OH233468   0.006   6.726  14.516 -0.1553  0.8913 -0.2417
 4018TIP3    H133469  -0.084   6.719  14.545 -0.1829  2.7973  0.2850
 4018TIP3    H233470   0.058   6.719  14.596  0.1790 -0.2054 -0.5412
 4019TIP3   OH233471   5.172   3.255   1.792  0.1164 -0.3051 -0.0722
 4019TIP3    H133472   5.240   3.193   1.817  0.9984  0.6215 -0.0885
 4019TIP3    H233473   5.165   3.245   1.697  1.0736  0.3893 -0.2366
 4020TIP3   OH233474   3.867   4.927  16.612 -0.0317 -0.1615  0.2762
 4020TIP3    H133475   3.934   4.872  16.573  0.0018  1.5723 -2.3842
 4020TIP3    H233476   3.906   4.960  16.693  0.7052 -2.3226  0.8523
 4021TIP3   OH233477   6.653   1.102   3.760 -0.1635 -0.4085  0.1225
 4021TIP3    H133478   6.692   1.101   3.673  0.1959  1.1149  0.2351
 4021TIP3    H233479   6.564   1.136   3.747  0.1513  0.5584  0.4276
 4022TIP3   OH233480   1.104   2.091   0.641  0.2903 -0.7020  0.1323
 4022TIP3    H133481   1.198   2.103   0.652  0.2934  0.0050 -0.5863
 4022TIP3    H233482   1.067   2.179   0.646 -0.4985 -1.0979  1.7364
 4023TIP3   OH233483   2.187   4.592  16.283  0.4186  0.2839  0.2664
 4023TIP3    H133484   2.220   4.630  16.365  0.0458  0.2509  0.4386
 4023TIP3    H233485   2.099   4.628  16.274 -0.9918 -2.4054  1.7625
 4024TIP3   OH233486   0.392   0.059  15.972  0.7387  0.1801 -0.2634
 4024TIP3    H133487   0.479   0.099  15.964  0.0024  1.6500 -1.3064
 4024TIP3    H233488   0.337   0.109  15.912 -0.8899 -0.6012  0.5196
 4025TIP3   OH233489   6.043   0.768   3.797  0.0992 -0.0386 -0.4376
 4025TIP3    H133490   5.976   0.727   3.851  0.1510  0.1775 -0.2081
 4025TIP3    H233491   6.125   0.749   3.841  0.1521  0.0385 -0.5024
 4026TIP3   OH233492   4.091   0.999  12.064 -0.6162 -0.2035 -0.3669
 4026TIP3    H133493   4.024   1.049  12.111  0.2675  0.1819  0.5160
 4026TIP3    H233494   4.165   0.995  12.124  0.7289  0.7044 -1.8810
 4027TIP3   OH233495   3.362   6.561   5.969  0.0722 -0.0324  0.1721
 4027TIP3    H133496   3.394   6.648   5.946 -2.9289  1.1790  0.0675
 4027TIP3    H233497   3.292   6.578   6.032 -1.2465 -2.2895 -0.5911
 4028TIP3   OH233498   4.216   3.393  12.048 -0.3076  0.1129 -0.3190
 4028TIP3    H133499   4.256   3.375  11.963 -1.0745 -1.3080 -0.4107
 4028TIP3    H233500   4.237   3.484  12.066  1.5079 -0.1054 -1.1400
 4029TIP3   OH233501   0.142   4.030   0.163  0.1642 -0.0980 -0.2143
 4029TIP3    H133502   0.220   3.975   0.159  0.8181  0.8396 -0.7222
 4029TIP3    H233503   0.126   4.043   0.256  2.2449  1.8967 -0.0353
 4030TIP3   OH233504   4.768   5.755   0.011  0.0934  0.4857  0.1756
 4030TIP3    H133505   4.813   5.763   0.096 -0.3943 -0.0494  0.4928
 4030TIP3    H233506   4.705   5.685   0.024 -0.3722  0.7724 -0.4710
 4031TIP3   OH233507   5.750   3.095   5.668 -0.6996  0.4527 -0.0151
 4031TIP3    H133508   5.752   3.013   5.617  0.3977  0.9340 -0.7822
 4031TIP3    H233509   5.668   3.137   5.641 -0.6952  0.1575 -0.5165
 4032TIP3   OH233510   0.576   3.598   0.789 -0.1540  0.0100  0.0874
 4032TIP3    H133511   0.573   3.555   0.704  0.2706 -1.5246  0.8154
 4032TIP3    H233512   0.649   3.556   0.835 -0.2874  0.8996  1.1727
 4033TIP3   OH233513   0.623   0.004   1.157 -0.8424  0.2377 -0.0471
 4033TIP3    H133514   0.636  -0.003   1.251  2.0782 -1.5423 -0.4728
 4033TIP3    H233515   0.528  -0.002   1.146 -1.4819  2.5599  2.8261
 4034TIP3   OH233516   5.145   4.053   2.536  0.3004 -0.4917 -0.5807
 4034TIP3    H133517   5.169   4.067   2.627 -0.6977  0.9786 -0.5074
 4034TIP3    H233518   5.091   3.973   2.537  0.0681 -0.3284  0.1524
 4035TIP3   OH233519   4.394   4.754  12.739  0.1712 -0.2219  0.3799
 4035TIP3    H133520   4.429   4.801  12.814 -0.9092 -1.3271  1.6230
 4035TIP3    H233521   4.405   4.661  12.761 -0.4669 -0.5688 -0.6758
 4036TIP3   OH233522   6.509   6.424  15.604 -0.2870  0.1852  0.3163
 4036TIP3    H133523   6.521   6.519  15.605  2.1804 -0.0437 -0.1387
 4036TIP3    H233524   6.491   6.401  15.695 -3.0458  1.2340  0.1239
 4037TIP3   OH233525   2.835   1.517   2.148 -0.1744  0.0581  0.0010
 4037TIP3    H133526   2.744   1.498   2.129 -0.4434  1.1979  0.1132
 4037TIP3    H233527   2.836   1.608   2.176  1.1089  0.3108 -0.7734
 4038TIP3   OH233528   5.001   6.581   2.716 -0.1019  0.0881 -0.3252
 4038TIP3    H133529   4.950   6.655   2.683 -0.4859 -0.8129 -1.8832
 4038TIP3    H233530   4.942   6.534   2.774  0.7365  1.9732  2.2382
 4039TIP3   OH233531   0.843   4.254  12.102 -0.2394  0.3541  0.0828
 4039TIP3    H133532   0.792   4.192  12.049 -0.3715 -0.2810  0.9320
 4039TIP3    H233533   0.934   4.229  12.086 -0.1672  1.3595 -1.2762
 4040TIP3   OH233534   5.822   4.130  14.005 -0.3018  1.1002  0.0981
 4040TIP3    H133535   5.738   4.101  13.969  0.7783 -1.5289 -0.6053
 4040TIP3    H233536   5.799   4.189  14.077 -2.7345  0.4302 -0.0367
 4041TIP3   OH233537   2.070   6.707  13.102  0.4566 -0.0182  0.2771
 4041TIP3    H133538   2.149   6.720  13.155 -0.4728 -1.3633  2.0948
 4041TIP3    H233539   2.001   6.688  13.166 -1.5625  1.8700 -1.1859
 4042TIP3   OH233540   1.474   4.024   3.976  0.0690 -0.1340 -0.0944
 4042TIP3    H133541   1.518   4.103   4.005  1.4762 -0.7335 -0.5484
 4042TIP3    H233542   1.524   3.952   4.015 -0.5193 -0.8349 -0.5980
 4043TIP3   OH233543   3.013   4.332   4.729 -0.7028 -0.3045 -0.1683
 4043TIP3    H133544   2.986   4.391   4.659  2.2454  0.5065 -0.7602
 4043TIP3    H233545   3.025   4.247   4.686 -0.1726 -0.1241 -0.3830
 4044TIP3   OH233546   0.937   2.985  11.488 -0.3716  0.0588 -0.7466
 4044TIP3    H133547   0.874   2.929  11.442 -1.7666  0.8890  0.0600
 4044TIP3    H233548   0.884   3.033  11.552  1.1474  0.5749  0.1895
 4045TIP3   OH233549   6.235   3.417   3.800 -0.4718 -0.3420 -0.0308
 4045TIP3    H133550   6.294   3.345   3.780 -1.6246 -1.2556 -0.2539
 4045TIP3    H233551   6.174   3.381   3.865 -0.2542  0.8504  0.8842
 4046TIP3   OH233552   1.350   0.365   5.715 -0.3238  0.4834 -0.1275
 4046TIP3    H133553   1.431   0.407   5.743  0.6430 -1.6384  0.4724
 4046TIP3    H233554   1.302   0.348   5.796 -1.0027  0.9911 -0.4137
 4047TIP3   OH233555   5.279   1.932  12.257  0.2741  0.0778 -0.0445
 4047TIP3    H133556   5.202   1.888  12.292 -0.7070  0.4841 -1.6227
 4047TIP3    H233557   5.276   2.019  12.297  0.1254 -0.0291  0.1825
 4048TIP3   OH233558   4.219   5.706  12.234  0.9553 -0.0214 -0.4154
 4048TIP3    H133559   4.201   5.779  12.294  0.9837 -0.3774  0.0273
 4048TIP3    H233560   4.229   5.748  12.148 -0.4165  0.3493 -0.4117
 4049TIP3   OH233561   0.428   0.463   4.974 -0.4908  0.1764 -0.1491
 4049TIP3    H133562   0.434   0.494   4.884 -0.2827 -1.8091 -0.8548
 4049TIP3    H233563   0.342   0.423   4.981  0.0844 -1.0552  0.0637
 4050TIP3   OH233564   2.507   2.363   1.165  0.0234  0.0196 -0.0370
 4050TIP3    H133565   2.577   2.307   1.198  0.1753 -0.0210 -0.4186
 4050TIP3    H233566   2.454   2.305   1.110  0.1258  0.2300 -0.3559
 4051TIP3   OH233567   4.106   5.614  16.657  0.4365 -0.2897 -0.5230
 4051TIP3    H133568   4.106   5.529  16.612  0.3571 -0.6994  0.2316
 4051TIP3    H233569   4.066   5.674  16.594 -2.3452 -1.4262 -0.0136
 4052TIP3   OH233570   3.081   1.414   3.127 -0.0683 -0.3316  0.2484
 4052TIP3    H133571   3.135   1.486   3.095  0.0691 -0.4427  0.2299
 4052TIP3    H233572   3.087   1.347   3.058  0.5375 -0.7277  0.6688
 4053TIP3   OH233573   0.521   5.600   1.947 -0.2770 -0.1116  0.1318
 4053TIP3    H133574   0.482   5.656   1.879 -0.5610  0.1915  0.5364
 4053TIP3    H233575   0.486   5.513   1.930 -2.1403  0.3615  1.1992
 4054TIP3   OH233576   5.042   0.116  11.594 -0.0306 -0.4793 -0.1646
 4054TIP3    H133577   5.049   0.068  11.677  1.9111 -0.5437 -0.3335
 4054TIP3    H233578   5.070   0.205  11.614  0.5294 -0.5146 -0.7624
 4055TIP3   OH233579   0.272   3.284  14.182 -0.4570 -0.2097  0.7991
 4055TIP3    H133580   0.248   3.243  14.099 -1.0719 -0.2299  0.9823
 4055TIP3    H233581   0.254   3.377  14.170 -1.1350 -0.2981  1.1158
 4056TIP3   OH233582   5.886   1.542  15.005  1.1132  0.1212  0.3720
 4056TIP3    H133583   5.802   1.500  15.024  0.8227  0.6813  0.3382
 4056TIP3    H233584   5.895   1.608  15.074  0.8619  1.0140 -0.4418
 4057TIP3   OH233585   1.671   5.186  11.089 -0.7362  0.5699  0.5357
 4057TIP3    H133586   1.677   5.141  11.005 -3.6219 -0.7993  0.9385
 4057TIP3    H233587   1.625   5.268  11.070 -0.8162  0.5615  0.6911
 4058TIP3   OH233588   6.756   1.003  16.736  0.8344  0.5477 -0.0140
 4058TIP3    H133589   6.798   0.985  16.652  2.1589  1.0563  0.5182
 4058TIP3    H233590   6.811   1.070  16.776  0.0840  0.4806  1.1644
 4059TIP3   OH233591   2.771   1.833  11.801  0.1211  0.0099  0.8082
 4059TIP3    H133592   2.866   1.840  11.813  0.2218 -0.4581  0.3115
 4059TIP3    H233593   2.760   1.795  11.714 -0.5387  0.6215  0.6136
 4060TIP3   OH233594   3.020   5.770  17.237 -0.3187 -0.3160 -0.4964
 4060TIP3    H133595   2.962   5.827  17.287  0.6270  1.8799 -1.7559
 4060TIP3    H233596   2.960   5.716  17.184 -1.2593  0.4039 -0.2052
 4061TIP3   OH233597   1.624   0.261  15.465 -0.0404  0.0733 -0.7365
 4061TIP3    H133598   1.572   0.188  15.499  0.5648 -1.3463 -2.6325
 4061TIP3    H233599   1.678   0.289  15.539 -1.2844 -0.4806  0.4114
 4062TIP3   OH233600   2.191   5.846   5.431 -0.1865 -0.2576 -0.3425
 4062TIP3    H133601   2.237   5.771   5.393  0.7727 -0.1563  0.5678
 4062TIP3    H233602   2.258   5.915   5.436 -0.4711 -0.0486  0.8488
 4063TIP3   OH233603   0.147   4.638   6.069  0.1462  0.2406 -0.4747
 4063TIP3    H133604   0.230   4.602   6.100 -0.2066  1.1089  1.6916
 4063TIP3    H233605   0.094   4.648   6.149 -1.6337  0.7516 -1.6513
 4064TIP3   OH233606   4.082   2.248   3.114 -0.4362 -0.0497  0.2215
 4064TIP3    H133607   4.153   2.232   3.051 -0.8565 -1.5198  0.0785
 4064TIP3    H233608   4.108   2.329   3.159 -0.5378  1.5443 -2.3873
 4065TIP3   OH233609   6.473   4.420   1.387 -0.2919  0.0755  0.0488
 4065TIP3    H133610   6.480   4.328   1.362  2.5262 -0.4791  2.3974
 4065TIP3    H233611   6.527   4.466   1.322 -0.2054 -0.1632 -0.0506
 4066TIP3   OH233612   2.672   6.284   1.042 -0.0215  0.2951  0.5473
 4066TIP3    H133613   2.749   6.262   1.095 -1.4373 -0.1097  2.5896
 4066TIP3    H233614   2.636   6.199   1.016  0.5969  0.4945 -1.0480
 4067TIP3   OH233615   3.049   3.798  16.297  0.4024 -0.1761 -0.1709
 4067TIP3    H133616   2.982   3.866  16.293  0.9420  0.5015  1.1964
 4067TIP3    H233617   3.025   3.735  16.230 -1.0718  0.5183 -0.3300
 4068TIP3   OH233618   1.121   5.033  16.030  0.1460 -0.0623  0.2464
 4068TIP3    H133619   1.161   4.990  15.954  0.8017 -0.2977  0.7160
 4068TIP3    H233620   1.035   5.061  15.999 -0.0037 -1.0545 -0.2988
 4069TIP3   OH233621   1.584   1.809   6.076 -0.2286  0.9649  0.1675
 4069TIP3    H133622   1.573   1.731   6.022  0.6791  1.0390 -0.1304
 4069TIP3    H233623   1.519   1.799   6.145 -0.1871 -0.0047  0.0775
 4070TIP3   OH233624   3.088   6.358  14.012  0.3409 -0.0075 -0.2979
 4070TIP3    H133625   3.109   6.269  13.984  0.7952  0.0087 -0.0079
 4070TIP3    H233626   3.083   6.353  14.108 -0.5685  0.0774 -0.3248
 4071TIP3   OH233627   5.618   1.806  15.055  0.0318  0.7349  0.2714
 4071TIP3    H133628   5.571   1.724  15.044  1.3607 -0.0819  0.3591
 4071TIP3    H233629   5.648   1.828  14.966 -0.2694  1.0951  0.2587
 4072TIP3   OH233630   6.137   5.460   4.495  0.4216  0.0937  0.1095
 4072TIP3    H133631   6.142   5.482   4.588 -1.0364 -2.5856  0.8999
 4072TIP3    H233632   6.051   5.421   4.484  0.5852  0.2780 -2.3981
 4073TIP3   OH233633   2.518   2.142   6.363 -0.2110 -0.1954 -0.5632
 4073TIP3    H133634   2.494   2.067   6.310  4.2147 -1.4814 -1.1959
 4073TIP3    H233635   2.565   2.105   6.437  3.1988  1.7764 -1.4999
 4074TIP3   OH233636   6.353   5.064  16.561 -0.5959  0.2659  0.0862
 4074TIP3    H133637   6.360   4.999  16.631 -1.4761  0.0846  0.0192
 4074TIP3    H233638   6.443   5.079  16.533 -0.0061  1.4992  2.3088
 4075TIP3   OH233639   2.330   2.670  11.214 -0.2515  0.4781  0.0631
 4075TIP3    H133640   2.253   2.625  11.251  1.2035 -1.3192  1.1056
 4075TIP3    H233641   2.341   2.748  11.269 -1.4294  0.8732 -0.2345
 4076TIP3   OH233642   0.692   1.160  13.740 -0.4186  0.4494 -0.2900
 4076TIP3    H133643   0.707   1.253  13.750  1.2972  0.4746 -2.4554
 4076TIP3    H233644   0.686   1.146  13.645  0.0516 -1.7343 -0.0596
 4077TIP3   OH233645   1.072   1.622  13.778  0.5303 -0.2855 -0.7270
 4077TIP3    H133646   1.156   1.609  13.735  0.3437  0.2972 -1.2776
 4077TIP3    H233647   1.013   1.650  13.708 -0.1289 -0.7125 -0.3492
 4078TIP3   OH233648   6.672   5.897  15.334 -0.0056 -0.3406  0.1081
 4078TIP3    H133649   6.731   5.958  15.377 -1.0633  2.5513 -2.2118
 4078TIP3    H233650   6.706   5.888  15.245 -1.8138 -0.3412 -0.6227
 4079TIP3   OH233651   5.897   3.748   2.926 -0.2675  0.2848 -0.2952
 4079TIP3    H133652   5.865   3.701   3.003  0.9959  0.5192  0.4121
 4079TIP3    H233653   5.878   3.689   2.852 -0.3537 -0.5167  0.3498
 4080TIP3   OH233654   2.212   6.293  15.183 -0.4342  0.1892 -0.3975
 4080TIP3    H133655   2.266   6.297  15.261 -1.5528 -1.2814  0.5162
 4080TIP3    H233656   2.140   6.354  15.201 -1.5770 -1.3546  0.4987
 4081TIP3   OH233657   6.021   2.635   6.568  0.2604  0.0400 -0.7210
 4081TIP3    H133658   6.031   2.572   6.496  1.6625  1.2279 -1.6166
 4081TIP3    H233659   5.956   2.594   6.626 -0.2542 -1.3639 -2.1912
 4082TIP3   OH233660   2.117   5.244  12.158  0.2405  0.1704 -0.3075
 4082TIP3    H133661   2.048   5.185  12.128  1.5513 -1.4063 -0.3372
 4082TIP3    H233662   2.158   5.199  12.231  0.2779  1.7788  0.7038
 4083TIP3   OH233663   4.258   3.923   3.374  0.5710 -0.0987 -0.1664
 4083TIP3    H133664   4.190   3.939   3.308  1.5206  0.2021 -1.1051
 4083TIP3    H233665   4.333   3.890   3.324  0.6619 -1.8099  1.0215
 4084TIP3   OH233666   1.826   6.207  12.162 -0.8311  0.0057 -0.2005
 4084TIP3    H133667   1.861   6.226  12.075 -2.1619  0.7207 -0.6176
 4084TIP3    H233668   1.890   6.244  12.223  0.4720 -1.1287 -0.8363
 4085TIP3   OH233669   1.126   6.701   5.964 -0.0607  0.3296  0.1879
 4085TIP3    H133670   1.188   6.630   5.982 -0.5388 -0.2360 -0.3509
 4085TIP3    H233671   1.115   6.744   6.049 -0.6765 -0.9904  0.8149
 4086TIP3   OH233672   2.622   3.094   2.005  0.5568  0.2508 -0.0954
 4086TIP3    H133673   2.564   3.085   1.929  0.2542  0.4332  0.1075
 4086TIP3    H233674   2.619   3.009   2.048  0.4367  0.2584 -0.0869
 4087TIP3   OH233675   3.315   2.928  13.703 -0.3378 -0.1203  0.1567
 4087TIP3    H133676   3.343   2.844  13.741 -1.4229 -0.3805  0.4247
 4087TIP3    H233677   3.334   2.992  13.772 -1.2158 -0.4236  0.7016
 4088TIP3   OH233678   4.603   6.357  16.405  0.0148  0.0532 -0.6148
 4088TIP3    H133679   4.587   6.435  16.351 -2.1275 -0.1139 -0.3204
 4088TIP3    H233680   4.536   6.295  16.378  1.4578 -1.5786 -0.5772
 4089TIP3   OH233681   0.409   4.333  15.142  0.2981 -0.0288  0.4067
 4089TIP3    H133682   0.496   4.308  15.171 -0.2715 -1.4829  0.9615
 4089TIP3    H233683   0.355   4.329  15.221 -0.9906 -2.6899 -0.4946
 4090TIP3   OH233684   4.734   0.731   5.093 -0.4463  0.4812  0.1635
 4090TIP3    H133685   4.641   0.740   5.111 -0.3655  1.6493  0.0490
 4090TIP3    H233686   4.768   0.821   5.094  0.6067  0.1037 -0.1684
 4091TIP3   OH233687   0.615   0.862   0.810 -0.4744  0.7307 -0.6479
 4091TIP3    H133688   0.538   0.889   0.761  0.7494  1.6064 -2.2220
 4091TIP3    H233689   0.635   0.774   0.778 -0.3664  0.8209 -0.8284
 4092TIP3   OH233690   4.087   1.413   2.096  0.5818 -0.0024 -0.3475
 4092TIP3    H133691   4.043   1.494   2.074 -0.1967 -0.3623 -0.1450
 4092TIP3    H233692   4.067   1.354   2.024 -0.9690 -0.8009  0.6686
 4093TIP3   OH233693   1.224   4.068   4.037  1.1554  0.3782  0.1061
 4093TIP3    H133694   1.194   4.156   4.011  0.0638  0.3132  1.0629
 4093TIP3    H233695   1.315   4.065   4.007  0.6902  1.1494 -1.5735
 4094TIP3   OH233696   3.361   2.452  12.514  0.1120  0.4374 -0.3413
 4094TIP3    H133697   3.432   2.473  12.454 -0.1519 -0.3532 -0.9525
 4094TIP3    H233698   3.285   2.496  12.477 -0.0392 -0.0044 -0.5680
 4095TIP3   OH233699   5.331   3.018   3.319 -0.5866  0.0324  0.6824
 4095TIP3    H133700   5.359   3.109   3.320  1.0303 -0.3778  3.1151
 4095TIP3    H233701   5.382   2.977   3.389 -2.1167 -2.4810  0.4477
 4096TIP3   OH233702   1.497   1.895  13.745 -0.2853  0.2115 -0.4519
 4096TIP3    H133703   1.420   1.948  13.767 -1.2969 -1.3824 -0.0173
 4096TIP3    H233704   1.514   1.916  13.653 -1.1922  0.6315 -0.5377
 4097TIP3   OH233705   0.241   4.564  15.034  0.2899 -0.5498 -0.5021
 4097TIP3    H133706   0.189   4.494  14.995 -1.0650  0.5750 -0.7847
 4097TIP3    H233707   0.303   4.519  15.092 -2.5235 -1.8847  1.7004
 4098TIP3   OH233708   0.704   4.835  15.978 -0.6565  0.1197 -0.0054
 4098TIP3    H133709   0.636   4.900  15.994  0.1798  0.8887  0.5586
 4098TIP3    H233710   0.770   4.853  16.046 -0.7791 -1.8533  0.7016
 4099TIP3   OH233711   1.244   1.333   2.115  0.1643 -0.2286  0.6385
 4099TIP3    H133712   1.200   1.402   2.065  1.2577 -0.5910 -0.8773
 4099TIP3    H233713   1.229   1.253   2.063  1.5709 -0.5625  0.7228
 4100TIP3   OH233714   2.151   0.415  11.988  0.1433  0.2785 -0.1498
 4100TIP3    H133715   2.209   0.385  12.057 -1.3662  0.2164  1.1721
 4100TIP3    H233716   2.164   0.510  11.986  1.8476  0.0440 -1.3964
 4101TIP3   OH233717   6.519   5.918   1.923  0.0845  0.3871  0.4370
 4101TIP3    H133718   6.560   5.946   1.842 -0.2604  0.6599  0.3552
 4101TIP3    H233719   6.591   5.914   1.987  0.0097  2.3950  0.6995
 4102TIP3   OH233720   1.391   2.636  16.930 -0.3235 -0.4700 -0.4348
 4102TIP3    H133721   1.360   2.699  16.865 -0.7299 -0.9064 -0.6681
 4102TIP3    H233722   1.312   2.603  16.972 -0.0532 -0.0499  0.4269
 4103TIP3   OH233723   3.872   3.124  11.186 -0.1699 -0.4719 -0.0634
 4103TIP3    H133724   3.930   3.139  11.110 -0.8942  0.2463 -0.4883
 4103TIP3    H233725   3.800   3.073  11.150 -1.4255  1.3843 -0.3000
 4104TIP3   OH233726   6.355   0.772   5.757 -0.2212 -0.3311 -0.6200
 4104TIP3    H133727   6.280   0.825   5.731 -0.9219 -0.7703  0.4651
 4104TIP3    H233728   6.318   0.688   5.783  0.5691 -0.3529  0.5291
 4105TIP3   OH233729   0.644   5.712  13.895 -0.2006  0.2402 -0.6551
 4105TIP3    H133730   0.614   5.632  13.851  1.5342 -1.0525  0.4127
 4105TIP3    H233731   0.654   5.687  13.987  2.7895  0.9069 -0.6978
 4106TIP3   OH233732   0.062   1.812  12.129  0.6275 -0.0120  0.4703
 4106TIP3    H133733  -0.011   1.867  12.157  0.0570  0.3790 -1.6453
 4106TIP3    H233734   0.075   1.751  12.201 -2.6538 -0.9449  0.3944
 4107TIP3   OH233735   3.267   1.206  12.532 -0.0605  0.1799 -0.6382
 4107TIP3    H133736   3.255   1.126  12.584 -1.2041 -0.0897 -1.2901
 4107TIP3    H233737   3.299   1.175  12.448  4.5910  0.7885  0.6460
 4108TIP3   OH233738   1.656   4.620  17.060  0.1950  0.0635  0.1479
 4108TIP3    H133739   1.628   4.638  17.149 -0.9898  0.5728 -0.2976
 4108TIP3    H233740   1.644   4.703  17.014  2.1341  0.1924 -0.1793
 4109TIP3   OH233741   4.393   6.154   4.010 -0.5590 -0.2627  0.2732
 4109TIP3    H133742   4.412   6.217   4.079 -0.1931 -0.6382  0.5212
 4109TIP3    H233743   4.429   6.071   4.042 -2.5584 -1.0015  0.7348
 4110TIP3   OH233744   5.650   5.620  16.670 -0.6993 -0.3651  0.2161
 4110TIP3    H133745   5.640   5.540  16.618 -0.4698 -1.4231  1.7215
 4110TIP3    H233746   5.595   5.605  16.747  1.3522 -0.2177  1.7857
 4111TIP3   OH233747   1.990   3.611  10.838 -0.4317 -0.3934  0.0567
 4111TIP3    H133748   2.047   3.609  10.761 -0.5176  1.1145 -0.0776
 4111TIP3    H233749   1.908   3.648  10.806 -0.1509  1.1688  1.0380
 4112TIP3   OH233750   3.582   4.177  13.515  0.8102  0.0750 -0.5839
 4112TIP3    H133751   3.507   4.147  13.464  1.0440 -0.1417 -0.8072
 4112TIP3    H233752   3.625   4.241  13.458 -0.1410  1.4563  0.2121
 4113TIP3   OH233753   0.783   3.168   2.404 -0.3556 -0.4977 -0.0077
 4113TIP3    H133754   0.724   3.233   2.366  0.0671 -0.0512  0.0898
 4113TIP3    H233755   0.729   3.122   2.469  0.0084  1.5221  1.8290
 4114TIP3   OH233756   4.354   5.613  16.298 -0.2052 -0.3105  0.0967
 4114TIP3    H133757   4.269   5.607  16.254 -0.3114 -0.4581  0.3194
 4114TIP3    H233758   4.336   5.589  16.389 -0.0222  0.1939  0.2671
 4115TIP3   OH233759   4.241   3.633   2.507  0.0061 -0.0457  0.1562
 4115TIP3    H133760   4.242   3.574   2.583 -0.6672 -1.7089 -1.0775
 4115TIP3    H233761   4.312   3.602   2.451 -0.1710  0.5042 -0.3774
 4116TIP3   OH233762   4.914   5.103   1.640  0.3821  0.3299 -0.3643
 4116TIP3    H133763   4.910   5.018   1.684 -2.5517  0.3110 -0.4859
 4116TIP3    H233764   4.948   5.163   1.706  1.9585 -0.7898 -0.1033
 4117TIP3   OH233765   2.952   4.485  12.113  0.4170  0.0060 -0.3896
 4117TIP3    H133766   3.011   4.526  12.177 -0.3402 -0.4321  0.6287
 4117TIP3    H233767   2.944   4.394  12.143  0.2884 -0.2851 -1.2959
 4118TIP3   OH233768   0.906   1.815   4.537 -0.3215  0.0540  0.2121
 4118TIP3    H133769   0.908   1.910   4.537 -0.3076  0.1892 -3.5558
 4118TIP3    H233770   0.911   1.790   4.445  0.3671 -3.6408  1.0733
 4119TIP3   OH233771   5.674   1.591   2.011  0.0562 -0.0396 -0.0980
 4119TIP3    H133772   5.757   1.559   1.975  1.2523  2.6974 -0.0408
 4119TIP3    H233773   5.668   1.551   2.097  0.5017 -1.4865 -0.7058
 4120TIP3   OH233774   0.435   5.601  15.140  0.1166 -0.0280 -0.2174
 4120TIP3    H133775   0.444   5.553  15.222 -0.3638  0.0429 -0.1164
 4120TIP3    H233776   0.521   5.641  15.125  0.7432 -1.4990 -0.6836
 4121TIP3   OH233777   2.355   1.676  16.298  0.0356 -0.1128  0.5642
 4121TIP3    H133778   2.271   1.717  16.280  0.3964 -0.0136 -1.1706
 4121TIP3    H233779   2.386   1.648  16.211  0.1656 -3.3846  1.5467
 4122TIP3   OH233780   6.039   1.569  12.860  0.5365  0.2563 -0.4770
 4122TIP3    H133781   6.078   1.639  12.807  1.4806  1.0498  1.1769
 4122TIP3    H233782   6.113   1.521  12.895 -0.0539 -0.1638  0.2333
 4123TIP3   OH233783   4.000   1.237  11.433  0.0389 -0.2949  0.5485
 4123TIP3    H133784   4.025   1.269  11.520 -0.1637 -0.4342  0.6598
 4123TIP3    H233785   4.045   1.295  11.373  0.0061 -0.0561  0.7502
 4124TIP3   OH233786   6.757   1.359  16.135  0.7726 -0.2649 -0.3518
 4124TIP3    H133787   6.783   1.273  16.166 -1.2109 -0.2979  1.3381
 4124TIP3    H233788   6.837   1.412  16.141  1.1548 -1.0374  2.1359
 4125TIP3   OH233789   4.053   0.089   0.327  0.0523  0.5517 -0.4210
 4125TIP3    H133790   3.996   0.041   0.267 -1.2982  0.5680  0.7785
 4125TIP3    H233791   4.007   0.171   0.344 -0.4460 -0.0929  1.7985
 4126TIP3   OH233792   0.678   2.639  11.860  0.4565  0.4160 -0.2618
 4126TIP3    H133793   0.720   2.561  11.894  2.8749  2.1087  0.8811
 4126TIP3    H233794   0.598   2.648  11.913  0.3898 -0.9528 -0.0840
 4127TIP3   OH233795   6.511   6.290   4.283  0.3653  0.5607  0.0260
 4127TIP3    H133796   6.431   6.324   4.244 -0.5931 -0.8440  0.6688
 4127TIP3    H233797   6.568   6.271   4.209 -0.4101  0.3515 -0.5318
 4128TIP3   OH233798   5.257   4.959   0.675  0.2405  0.0408 -0.4536
 4128TIP3    H133799   5.352   4.949   0.677  0.3271  0.9015  0.1869
 4128TIP3    H233800   5.229   4.940   0.765  0.0292  1.7007 -0.1381
 4129TIP3   OH233801   2.186   4.361  16.131 -0.0713  0.0731 -0.0801
 4129TIP3    H133802   2.094   4.350  16.105 -0.1265  0.6047 -0.1171
 4129TIP3    H233803   2.181   4.404  16.217  0.1551  0.6175 -0.3397
 4130TIP3   OH233804   6.382   6.198   2.947 -0.0546 -0.8599 -0.4198
 4130TIP3    H133805   6.447   6.139   2.909  0.5308 -0.7822  0.4160
 4130TIP3    H233806   6.392   6.186   3.042  0.2306  0.7132 -0.2107
 4131TIP3   OH233807   6.302   2.129  13.958 -0.0973 -0.2536 -0.1710
 4131TIP3    H133808   6.364   2.168  14.019  0.9025 -0.1571 -1.2264
 4131TIP3    H233809   6.302   2.187  13.882  0.8191 -1.8069 -1.4330
 4132TIP3   OH233810   5.356   2.283  15.065  0.7459  0.0225 -0.1968
 4132TIP3    H133811   5.407   2.350  15.018  1.9395  0.4574  1.6320
 4132TIP3    H233812   5.401   2.201  15.045  0.7998  0.1003 -0.4003
 4133TIP3   OH233813   2.470   0.934   0.147  0.0267  0.2016 -0.6872
 4133TIP3    H133814   2.412   0.860   0.127  0.0459 -0.0592  0.1760
 4133TIP3    H233815   2.455   0.952   0.240  0.2676  1.0733 -0.8063
 4134TIP3   OH233816   6.351   4.229   4.257  0.3130  0.2836  0.3272
 4134TIP3    H133817   6.369   4.138   4.233 -0.6789  0.5857 -1.7481
 4134TIP3    H233818   6.436   4.265   4.281  0.6735 -1.2633  1.5577
 4135TIP3   OH233819   4.653   2.081  15.868 -0.3762 -0.1835 -0.2999
 4135TIP3    H133820   4.702   2.143  15.923  0.5417 -1.3759  0.2726
 4135TIP3    H233821   4.712   2.006  15.858 -1.8243 -1.4064 -0.1148
 4136TIP3   OH233822   3.284   3.267   1.773  0.1976 -0.1261  0.3828
 4136TIP3    H133823   3.324   3.333   1.829  0.8353  0.2556 -0.5013
 4136TIP3    H233824   3.354   3.240   1.714  0.2600 -2.3701  1.3854
 4137TIP3   OH233825   4.070   6.721  15.747 -0.2894 -0.3667 -0.0749
 4137TIP3    H133826   4.162   6.736  15.723 -0.9979  1.8725 -1.6136
 4137TIP3    H233827   4.042   6.650  15.689 -0.3399  1.0092 -1.7915
 4138TIP3   OH233828   1.474   0.129   1.357  0.4781 -0.3314 -0.1010
 4138TIP3    H133829   1.497   0.078   1.435 -1.1057 -0.6792  0.1774
 4138TIP3    H233830   1.512   0.215   1.372 -1.6981  0.3478  2.1849
 4139TIP3   OH233831   4.419   2.503   5.909  0.2702 -0.2577 -0.5639
 4139TIP3    H133832   4.463   2.458   5.837  0.4876 -0.4110 -0.3390
 4139TIP3    H233833   4.433   2.447   5.985  1.1685  0.5303 -0.1184
 4140TIP3   OH233834   1.811   5.067  16.647 -0.0176 -0.1285 -0.1544
 4140TIP3    H133835   1.729   5.114  16.629 -0.0318 -0.1690 -0.1971
 4140TIP3    H233836   1.856   5.063  16.562  0.5033  0.7844  0.0713
 4141TIP3   OH233837   6.023   4.883   2.300 -0.0559  0.5730 -0.0610
 4141TIP3    H133838   5.965   4.853   2.229  1.1026 -0.5733 -0.5580
 4141TIP3    H233839   6.099   4.920   2.255 -0.1964  1.7165  0.5933
 4142TIP3   OH233840   0.672   5.968   4.305 -0.1112  0.7976  0.1589
 4142TIP3    H133841   0.740   5.956   4.238 -1.1773 -1.0219 -0.6739
 4142TIP3    H233842   0.702   6.043   4.356  2.6770 -0.0656  0.0001
 4143TIP3   OH233843   1.969   1.725  12.532 -0.3335 -0.2318  0.0541
 4143TIP3    H133844   1.888   1.771  12.509 -1.3592 -2.0407 -0.1975
 4143TIP3    H233845   1.943   1.633  12.538  1.6145 -0.8038  0.5043
 4144TIP3   OH233846   4.371   4.304  16.808 -0.1381 -0.3320  0.5841
 4144TIP3    H133847   4.446   4.351  16.844 -0.0890  0.1801 -0.1604
 4144TIP3    H233848   4.392   4.295  16.715 -0.7960 -0.5855  0.4573
 4145TIP3   OH233849   4.919   6.389   0.513 -0.5452  0.1880 -0.3649
 4145TIP3    H133850   4.984   6.437   0.462  0.9645  0.0345  1.2975
 4145TIP3    H233851   4.905   6.308   0.464 -0.0056  0.5330 -1.1154
 4146TIP3   OH233852   3.157   6.174   1.478  0.0370 -0.0861 -0.2869
 4146TIP3    H133853   3.171   6.142   1.568 -1.9278  1.5396  0.6634
 4146TIP3    H233854   3.125   6.097   1.430  1.0604 -0.9651  0.3782
 4147TIP3   OH233855   0.073   2.075  12.336  1.1724  0.6260 -0.2761
 4147TIP3    H133856   0.024   1.997  12.360 -0.6824  2.1503  1.1772
 4147TIP3    H233857   0.164   2.046  12.332  0.6993 -1.3297  1.4722
 4148TIP3   OH233858   6.374   1.742   0.701 -0.0237 -0.3769 -0.6161
 4148TIP3    H133859   6.424   1.738   0.782  1.7023 -1.1139 -1.6558
 4148TIP3    H233860   6.383   1.832   0.671  0.5873 -0.4753 -0.7324
 4149TIP3   OH233861   3.860   4.997  12.952 -0.1565  0.1822 -0.3316
 4149TIP3    H133862   3.798   5.055  12.996 -1.7946 -1.7006  0.0069
 4149TIP3    H233863   3.813   4.968  12.874  1.1571  0.3566 -1.2001
 4150TIP3   OH233864   6.458   2.372  13.088 -0.1749 -0.3916  0.0822
 4150TIP3    H133865   6.535   2.356  13.035 -0.2517 -1.5895  0.2934
 4150TIP3    H233866   6.487   2.355  13.178 -0.2374  0.8796  0.3546
 4151TIP3   OH233867   3.101   1.225   2.934 -0.1273  0.0191 -0.0881
 4151TIP3    H133868   3.138   1.236   2.847 -1.0775 -0.9502 -0.6402
 4151TIP3    H233869   3.006   1.222   2.919 -0.2995 -0.1272  0.9782
 4152TIP3   OH233870   3.199   4.305  13.488 -0.5450 -0.1211 -1.0271
 4152TIP3    H133871   3.231   4.218  13.513  1.0465  0.2629 -1.6093
 4152TIP3    H233872   3.104   4.295  13.485 -0.4613 -1.5670 -0.0929
 4153TIP3   OH233873   2.540   4.102   2.319 -0.0143  0.6478 -0.6247
 4153TIP3    H133874   2.470   4.085   2.257  0.7999  1.2773 -1.7517
 4153TIP3    H233875   2.508   4.067   2.402 -1.4741  0.5517 -1.2060
 4154TIP3   OH233876   0.853   1.974  13.829  0.2126  0.1114  0.0743
 4154TIP3    H133877   0.929   1.974  13.887  0.1544 -0.5021  0.1529
 4154TIP3    H233878   0.793   1.909  13.866 -1.3128  2.0883  1.2431
 4155TIP3   OH233879   0.233   6.083   1.822 -0.6192  0.1633  0.2141
 4155TIP3    H133880   0.211   6.174   1.803 -0.4719  0.5330  1.7433
 4155TIP3    H233881   0.299   6.088   1.890 -0.1465 -1.0873 -0.1363
 4156TIP3   OH233882   2.282   4.876   0.570 -0.1725 -0.8488 -0.1397
 4156TIP3    H133883   2.357   4.900   0.623 -0.0014 -1.1501 -0.2427
 4156TIP3    H233884   2.207   4.888   0.628 -0.0625 -0.3717 -0.0964
 4157TIP3   OH233885   0.794   4.978  11.151  0.2542 -0.3541 -0.1673
 4157TIP3    H133886   0.859   4.934  11.097 -0.1975 -0.4642 -0.6258
 4157TIP3    H233887   0.764   5.053  11.099 -1.9681 -1.8271 -1.1533
 4158TIP3   OH233888   0.710   2.704   0.793 -0.2347  0.0644 -0.5844
 4158TIP3    H133889   0.702   2.750   0.709 -1.1984  0.2912 -0.3760
 4158TIP3    H233890   0.784   2.644   0.780  0.6064  1.1713 -1.0795
 4159TIP3   OH233891   6.075   1.571   6.395 -0.0933  0.0253 -0.7548
 4159TIP3    H133892   6.159   1.579   6.441 -0.9711 -0.0026  0.9601
 4159TIP3    H233893   6.097   1.526   6.313  1.4597 -0.6695 -0.0208
 4160TIP3   OH233894   3.125   4.154  16.743  0.1518  0.6026  0.0098
 4160TIP3    H133895   3.188   4.143  16.672 -0.9350  0.3352 -0.9543
 4160TIP3    H233896   3.061   4.084  16.729 -1.1975  1.7835  0.0054
 4161TIP3   OH233897   4.032   4.399   1.426  0.4528 -0.4314 -0.7296
 4161TIP3    H133898   3.993   4.398   1.514  0.5853 -1.1944 -0.6682
 4161TIP3    H233899   3.975   4.456   1.375  0.8609  0.7346  0.0627
 4162TIP3   OH233900   0.094   5.431  11.306  0.3869  0.0954 -0.2793
 4162TIP3    H133901   0.127   5.347  11.272 -0.0300  0.3062 -1.2313
 4162TIP3    H233902   0.049   5.408  11.387  0.6390 -0.5419 -0.3123
 4163TIP3   OH233903   4.723   4.861   0.518  0.2265 -0.0916  0.2563
 4163TIP3    H133904   4.790   4.837   0.453  0.1195 -2.5269  0.9428
 4163TIP3    H233905   4.770   4.860   0.601 -0.3654 -0.4982  0.5925
 4164TIP3   OH233906   3.552   4.892   6.013  0.0845 -0.0158 -0.4761
 4164TIP3    H133907   3.487   4.824   5.994  0.5802 -0.2652 -1.3279
 4164TIP3    H233908   3.525   4.927   6.098 -0.0726 -1.4072  0.0774
 4165TIP3   OH233909   1.118   5.500  12.751 -0.7102  0.1594 -0.1477
 4165TIP3    H133910   1.194   5.557  12.738 -0.9056  0.8811  1.6483
 4165TIP3    H233911   1.135   5.425  12.695  1.3315  0.3058  0.2005
 4166TIP3   OH233912   0.890   2.741  15.378  0.0534  0.2743  0.0234
 4166TIP3    H133913   0.861   2.818  15.329 -0.7597 -0.9054 -1.4534
 4166TIP3    H233914   0.985   2.750  15.382 -0.1458  2.3908  1.7633
 4167TIP3   OH233915   4.196   1.277  15.442 -0.5043 -0.4436 -0.2000
 4167TIP3    H133916   4.203   1.292  15.536  0.6786 -0.7779 -0.2148
 4167TIP3    H233917   4.180   1.364  15.404  1.1142  0.0347  0.1452
 4168TIP3   OH233918   6.589   1.072  11.965  0.1840  0.1190 -0.2675
 4168TIP3    H133919   6.683   1.076  11.952  0.3135 -0.4978  0.3902
 4168TIP3    H233920   6.552   1.075  11.877  0.7743  1.1681 -0.4920
 4169TIP3   OH233921   1.904   2.935  13.326  0.3335  0.6237  0.6011
 4169TIP3    H133922   1.855   2.857  13.303  1.4809  0.7314 -2.7860
 4169TIP3    H233923   1.962   2.907  13.397 -0.8409 -0.9170  1.0070
 4170TIP3   OH233924   5.685   5.364  14.938 -0.1041  0.0325  0.0331
 4170TIP3    H133925   5.673   5.459  14.934 -0.2123  0.0820  1.1894
 4170TIP3    H233926   5.619   5.334  15.000  0.5936 -0.6760  0.4563
 4171TIP3   OH233927   5.566   0.519   5.536  0.5321 -0.2280 -0.1677
 4171TIP3    H133928   5.480   0.530   5.576  1.1357 -1.5476  1.6469
 4171TIP3    H233929   5.624   0.498   5.610  2.5973  1.4369 -1.2067
 4172TIP3   OH233930   2.707   4.614  16.184  0.3626 -0.1067 -0.2269
 4172TIP3    H133931   2.613   4.600  16.196  0.1841  0.6653 -0.5889
 4172TIP3    H233932   2.712   4.662  16.101  1.0003  0.6775  0.2580
 4173TIP3   OH233933   4.685   5.305   1.650  0.0463 -0.0188  0.2480
 4173TIP3    H133934   4.603   5.326   1.696 -0.2705 -0.6286 -0.0287
 4173TIP3    H233935   4.717   5.226   1.692 -0.2288 -0.5672 -0.5369
 4174TIP3   OH233936   4.170   6.706   4.958 -0.4592 -0.3300  0.3040
 4174TIP3    H133937   4.140   6.710   4.867 -1.9319 -0.0202  0.7737
 4174TIP3    H233938   4.101   6.658   5.003  0.6472 -1.1940  1.1243
 4175TIP3   OH233939   4.382   0.590   0.335 -0.2183  0.0941 -0.4099
 4175TIP3    H133940   4.465   0.606   0.290  1.0542  1.3228  2.1202
 4175TIP3    H233941   4.378   0.495   0.345  1.6425  0.0673  0.5803
 4176TIP3   OH233942   0.977   0.513   4.496 -0.0380 -0.2605 -1.0624
 4176TIP3    H133943   1.063   0.545   4.524 -1.0559  0.6952  1.1444
 4176TIP3    H233944   0.988   0.418   4.489  1.0637 -0.2033 -0.3059
 4177TIP3   OH233945   3.815   3.445  16.360 -0.3442  0.1937 -0.1413
 4177TIP3    H133946   3.798   3.492  16.442  1.6948  2.5343 -0.9671
 4177TIP3    H233947   3.753   3.371  16.363  0.6859 -0.8331  4.2299
 4178TIP3   OH233948   3.406   1.351  14.553 -0.3409 -0.0270 -0.1133
 4178TIP3    H133949   3.329   1.302  14.526 -0.4903 -0.0467  0.3446
 4178TIP3    H233950   3.371   1.430  14.594 -0.1081  0.2377 -0.4142
 4179TIP3   OH233951   4.412   0.559  14.767 -0.7503  0.5088 -0.1296
 4179TIP3    H133952   4.342   0.557  14.702 -0.5848 -0.0715 -0.2980
 4179TIP3    H233953   4.492   0.569  14.715 -0.6329  0.2214 -0.0074
 4180TIP3   OH233954   0.294   4.883  11.769 -0.1740 -0.0771 -0.3383
 4180TIP3    H133955   0.368   4.902  11.712  1.6136  0.4450  2.0160
 4180TIP3    H233956   0.307   4.939  11.845 -0.2462 -3.4253  2.3940
 4181TIP3   OH233957   5.307   0.354   1.435  0.8523 -0.3345  0.0304
 4181TIP3    H133958   5.353   0.320   1.512  2.1138 -0.4077 -0.7283
 4181TIP3    H233959   5.310   0.449   1.445 -4.3289 -0.1120  3.1364
 4182TIP3   OH233960   4.518   1.358   6.440 -0.0068  0.1871  0.0239
 4182TIP3    H133961   4.462   1.285   6.412 -0.0998  0.3335 -0.1728
 4182TIP3    H233962   4.557   1.328   6.522  0.9820 -0.6203 -0.7053
 4183TIP3   OH233963   4.590   5.208  12.965 -0.7671 -0.3737 -0.3052
 4183TIP3    H133964   4.514   5.233  13.017 -0.8229 -1.9906  0.4633
 4183TIP3    H233965   4.584   5.112  12.959  0.3421 -0.3884 -1.5857
 4184TIP3   OH233966   2.051   4.890   0.727  0.2176  0.0189 -0.1811
 4184TIP3    H133967   1.964   4.916   0.697  0.1909 -2.0008 -2.1776
 4184TIP3    H233968   2.037   4.810   0.778  0.9283 -0.9003 -1.3649
 4185TIP3   OH233969   0.670   3.958   0.508 -0.1705  0.0999 -0.1676
 4185TIP3    H133970   0.592   3.904   0.520  0.1117 -0.6877 -1.6635
 4185TIP3    H233971   0.699   3.979   0.597  0.6007 -3.5318  0.5904
 4186TIP3   OH233972   5.892   0.331   1.785  0.7217 -0.2156  0.7424
 4186TIP3    H133973   5.917   0.239   1.798  0.0270 -0.3497  1.2304
 4186TIP3    H233974   5.901   0.371   1.872  1.4784  0.2970  0.4294
 4187TIP3   OH233975   1.932   1.715   2.061  0.3459 -0.2462  0.4504
 4187TIP3    H133976   1.856   1.692   2.114  0.9650 -0.4492  1.2878
 4187TIP3    H233977   1.896   1.751   1.980 -0.6287 -1.6696  0.2293
 4188TIP3   OH233978   5.241   4.733   1.362 -0.2431  0.7047  0.4340
 4188TIP3    H133979   5.187   4.778   1.297 -3.8097 -1.2598  1.7632
 4188TIP3    H233980   5.215   4.770   1.446  0.0740 -0.6902  1.1791
 4189TIP3   OH233981   3.286   2.641  15.379  0.1127 -0.5999  0.3300
 4189TIP3    H133982   3.197   2.606  15.380  0.1612 -0.8068 -0.8985
 4189TIP3    H233983   3.334   2.582  15.321  0.3504  1.1242 -1.3133
 4190TIP3   OH233984   4.377   3.954  15.453  0.0264  0.4717  0.1871
 4190TIP3    H133985   4.457   3.921  15.494  0.4748 -2.2433 -2.5676
 4190TIP3    H233986   4.312   3.886  15.469 -1.0645  1.4673  0.1808
 4191TIP3   OH233987   1.113   0.714   6.131  0.0397 -0.8082 -0.4027
 4191TIP3    H133988   1.102   0.798   6.175 -2.5842 -1.5810  0.6192
 4191TIP3    H233989   1.198   0.720   6.087 -0.4480  2.6577 -1.0918
 4192TIP3   OH233990   0.013   0.931   0.613 -0.2035  0.3345  0.3667
 4192TIP3    H133991   0.009   0.839   0.589 -0.8995  0.3661  0.3525
 4192TIP3    H233992   0.076   0.969   0.552 -0.7282  0.0841 -0.3408
 4193TIP3   OH233993   4.522   5.933   4.140 -0.1961 -0.2330  0.0147
 4193TIP3    H133994   4.613   5.952   4.117 -0.9474  1.4270 -1.8608
 4193TIP3    H233995   4.521   5.938   4.236  1.2005  2.3315  0.0012
 4194TIP3   OH233996   2.220   5.353  13.134  0.1433  0.0787 -0.6880
 4194TIP3    H133997   2.309   5.373  13.103  0.4391 -0.7707 -0.4187
 4194TIP3    H233998   2.197   5.272  13.087 -1.4285  1.5114 -2.5668
 4195TIP3   OH233999   3.588   3.079   2.031 -0.2571  0.1693 -0.5740
 4195TIP3    H134000   3.657   3.141   2.057  0.1010 -1.2123  2.2116
 4195TIP3    H234001   3.628   3.027   1.961  1.3260 -0.1408  0.5078
 4196TIP3   OH234002   4.769   2.138   1.633 -0.1339  0.8186  0.5564
 4196TIP3    H134003   4.704   2.206   1.614 -0.5824  0.2726  0.1068
 4196TIP3    H234004   4.846   2.163   1.582  0.1374  1.6321  1.3204
 4197TIP3   OH234005   0.378   2.063   2.578 -0.0084  0.3494 -0.3993
 4197TIP3    H134006   0.465   2.051   2.541 -0.3151  0.2766 -1.1038
 4197TIP3    H234007   0.365   2.158   2.579  0.6627  0.4630  1.1039
 4198TIP3   OH234008   2.285   1.879  16.954  0.1438 -0.7278  0.2486
 4198TIP3    H134009   2.211   1.939  16.963 -0.3364 -0.9412 -1.8542
 4198TIP3    H234010   2.328   1.882  17.039 -1.2351  0.7763  0.9507
 4199TIP3   OH234011   6.705   3.609   0.980 -0.6967  0.1217 -0.2142
 4199TIP3    H134012   6.621   3.597   1.024 -0.8381 -0.6917 -0.6832
 4199TIP3    H234013   6.768   3.564   1.036 -0.2549  2.2078  1.0594
 4200TIP3   OH234014   3.925   2.053   1.551 -0.4344 -0.2687  0.0832
 4200TIP3    H134015   3.906   2.145   1.570 -2.7491 -0.9266  1.2964
 4200TIP3    H234016   4.020   2.051   1.539 -0.1242  2.0291  1.4323
 4201TIP3   OH234017   2.325   3.232  16.694 -0.3007  0.0599  0.0392
 4201TIP3    H134018   2.370   3.274  16.621 -0.6286  0.3095 -0.0253
 4201TIP3    H234019   2.371   3.262  16.772 -1.3952  1.7080  0.1053
 4202TIP3   OH234020   3.749   5.509   4.785 -0.4101  0.2078 -0.6221
 4202TIP3    H134021   3.839   5.499   4.755  0.0953  1.3425  0.3919
 4202TIP3    H234022   3.697   5.453   4.727  0.7360  0.7796 -2.2686
 4203TIP3   OH234023   2.914   6.719   1.998  0.5913  0.4488  0.5012
 4203TIP3    H134024   2.923   6.801   1.950  0.2791  0.3886  0.3382
 4203TIP3    H234025   2.921   6.744   2.090  1.5569  0.5204  0.4259
 4204TIP3   OH234026   2.446   1.794  15.558 -1.0370 -0.7831  0.6487
 4204TIP3    H134027   2.408   1.708  15.577 -1.8947 -1.0613 -1.9318
 4204TIP3    H234028   2.403   1.822  15.478  1.6865  0.5162 -0.4848
 4205TIP3   OH234029   0.969   6.250  14.195  0.6337  0.0989 -0.2026
 4205TIP3    H134030   0.955   6.186  14.126 -0.5790  2.7147 -2.6316
 4205TIP3    H234031   1.063   6.253  14.207  1.0758  0.5697 -2.9689
 4206TIP3   OH234032   5.953   4.029  17.025 -0.2620  0.0969 -0.0537
 4206TIP3    H134033   6.027   4.080  17.058  0.3602  1.1571 -2.8073
 4206TIP3    H234034   5.919   3.983  17.102  0.9905  2.3699  1.9941
 4207TIP3   OH234035   1.652   1.293  14.225 -0.2661  0.2744 -0.8587
 4207TIP3    H134036   1.605   1.213  14.199 -0.3481  0.5211 -1.5028
 4207TIP3    H234037   1.589   1.363  14.212 -1.0429  0.2339  2.0930
 4208TIP3   OH234038   6.592   2.799  15.631 -0.0603 -0.7350  0.1641
 4208TIP3    H134039   6.647   2.844  15.694 -0.2043 -1.2266  0.6457
 4208TIP3    H234040   6.536   2.742  15.684  0.3984 -1.7979 -0.4517
 4209TIP3   OH234041   0.142   3.995   1.587 -0.0564  0.5091  0.1978
 4209TIP3    H134042   0.205   4.046   1.536  0.5164 -0.7717 -0.3975
 4209TIP3    H234043   0.135   4.042   1.670  0.7736  1.3134 -0.1685
 4210TIP3   OH234044   3.563   5.416   0.172 -0.2610 -0.3122  0.3233
 4210TIP3    H134045   3.471   5.438   0.156 -0.3473 -0.3991  0.7087
 4210TIP3    H234046   3.573   5.328   0.135 -0.7893 -1.0520  1.8823
 4211TIP3   OH234047   0.689   2.722  16.908  0.3219 -0.3458  0.3084
 4211TIP3    H134048   0.646   2.799  16.869 -0.2226 -1.4333 -1.3606
 4211TIP3    H234049   0.640   2.648  16.872 -0.3927 -1.4746  3.3415
 4212TIP3   OH234050   6.541   4.328  11.094  0.0131 -0.0476 -0.0765
 4212TIP3    H134051   6.474   4.395  11.108  0.9641  0.7580  0.6738
 4212TIP3    H234052   6.508   4.278  11.019 -0.8192  1.1148 -0.5166
 4213TIP3   OH234053   0.360   3.667  16.245 -0.0832 -0.0525  0.0413
 4213TIP3    H134054   0.288   3.604  16.241 -1.1770  1.1616  0.0142
 4213TIP3    H234055   0.321   3.746  16.281  1.2049  0.7051 -0.1532
 4214TIP3   OH234056   4.429   5.218   2.421  0.6936  0.2215 -0.2869
 4214TIP3    H134057   4.482   5.177   2.352  1.2532 -0.2938  0.4366
 4214TIP3    H234058   4.339   5.199   2.396  0.9213 -3.0176  0.8774
 4215TIP3   OH234059   2.655   4.939  10.557 -0.1797 -0.2425  0.5230
 4215TIP3    H134060   2.637   4.855  10.515  0.5631  0.8629 -2.1797
 4215TIP3    H234061   2.738   4.968  10.519  0.1149  1.2549  2.1773
 4216TIP3   OH234062   2.242   1.671  13.211 -0.0395  0.1690 -0.1895
 4216TIP3    H134063   2.321   1.620  13.226 -0.5976 -1.3707 -2.0896
 4216TIP3    H234064   2.228   1.668  13.116 -2.6001 -0.0188  0.1071
 4217TIP3   OH234065   4.520   3.191  14.673  0.0616  0.9877  0.2384
 4217TIP3    H134066   4.583   3.195  14.744 -0.4031 -0.2331  0.7486
 4217TIP3    H234067   4.572   3.170  14.595  0.2495 -0.6339  0.7604
 4218TIP3   OH234068   1.766   3.297  16.873  0.3629 -0.2166 -0.0911
 4218TIP3    H134069   1.838   3.342  16.829  1.3367 -0.7430  0.8983
 4218TIP3    H234070   1.689   3.350  16.854  1.0478  0.4901 -0.9920
 4219TIP3   OH234071   1.128   2.198   1.426  1.0405  0.0004  0.0809
 4219TIP3    H134072   1.117   2.105   1.447  0.8492  0.0289  0.1059
 4219TIP3    H234073   1.140   2.241   1.511  0.6522  0.0629  0.1057
 4220TIP3   OH234074   6.303   3.633  14.389 -0.3537 -0.5338 -0.1125
 4220TIP3    H134075   6.240   3.674  14.330  0.1544  1.0656  0.4082
 4220TIP3    H234076   6.250   3.599  14.461 -0.7110 -0.0215 -0.1315
 4221TIP3   OH234077   3.218   4.211   5.938  0.3181  0.1102  0.0669
 4221TIP3    H134078   3.132   4.249   5.919  0.0503 -0.5130  0.0282
 4221TIP3    H234079   3.205   4.158   6.016  0.5363 -0.4267 -0.2526
 4222TIP3   OH234080   4.723   4.965  11.995  0.1082  0.6407 -0.5705
 4222TIP3    H134081   4.812   4.938  11.974 -0.0667  0.5012 -1.1568
 4222TIP3    H234082   4.730   5.058  12.017  0.6427  0.2534  0.9905
 4223TIP3   OH234083   0.426   0.635  14.994 -0.3014 -0.4408  0.1533
 4223TIP3    H134084   0.429   0.553  15.044 -0.2146  0.4660  1.7187
 4223TIP3    H234085   0.458   0.701  15.056  0.1318  0.6966 -1.2452
 4224TIP3   OH234086   4.195   2.171  16.903  0.3066  0.2865  0.3608
 4224TIP3    H134087   4.228   2.107  16.966  0.2970 -0.0610  0.0164
 4224TIP3    H234088   4.262   2.240  16.902  2.0999 -1.3240 -1.7872
 4225TIP3   OH234089   4.586   3.697   2.075  0.0387 -0.4967 -0.1765
 4225TIP3    H134090   4.596   3.723   2.167  0.3616  2.9243 -1.0245
 4225TIP3    H234091   4.493   3.709   2.057  0.4108  1.8397 -0.9450
 4226TIP3   OH234092   0.336   5.268   5.071 -0.4228  0.4102  0.2191
 4226TIP3    H134093   0.395   5.337   5.099 -1.7735  0.5738  3.0720
 4226TIP3    H234094   0.269   5.312   5.019  1.1544  0.4201 -1.9184
 4227TIP3   OH234095   4.321   3.509  16.147  0.4634 -0.0730 -0.1546
 4227TIP3    H134096   4.388   3.440  16.144 -0.3832 -0.9342  0.1330
 4227TIP3    H234097   4.354   3.571  16.211  0.5808 -0.9295  0.6423
 4228TIP3   OH234098   0.804   2.207   5.947 -0.0506  0.0886  0.0498
 4228TIP3    H134099   0.853   2.268   5.893 -1.1966  0.8535 -0.1505
 4228TIP3    H234100   0.765   2.262   6.015 -0.7249 -0.4852  0.1327
 4229TIP3   OH234101   6.250   4.122   2.102 -0.1199 -0.1786  0.3259
 4229TIP3    H134102   6.185   4.073   2.052 -1.1531 -0.6447  2.0657
 4229TIP3    H234103   6.305   4.163   2.035 -1.9201 -0.1172 -1.1983
 4230TIP3   OH234104   3.868   4.621   3.804 -0.1755 -1.0617 -0.1850
 4230TIP3    H134105   3.870   4.669   3.722 -0.1911 -0.8052 -0.0358
 4230TIP3    H234106   3.831   4.536   3.781 -1.3844 -0.5470 -0.2224
 4231TIP3   OH234107   5.141   3.242   5.308  0.0974  0.3464  0.6440
 4231TIP3    H134108   5.214   3.182   5.296 -0.4286 -0.1016 -0.5761
 4231TIP3    H234109   5.067   3.186   5.331 -0.0090  0.7297  1.2701
 4232TIP3   OH234110   4.791   4.776   1.250 -0.0715  0.4682  0.2736
 4232TIP3    H134111   4.802   4.708   1.317 -1.0280  0.5854  0.5656
 4232TIP3    H234112   4.736   4.842   1.291  0.5473  1.2597 -0.1364
 4233TIP3   OH234113   3.468   1.800  16.063 -0.7470 -0.1826 -0.3062
 4233TIP3    H134114   3.475   1.710  16.031 -0.3895 -0.6594  1.0353
 4233TIP3    H234115   3.555   1.837  16.048 -0.6428 -0.3383 -0.0971
 4234TIP3   OH234116   4.395   4.456  14.893 -0.1651  0.4322 -0.3631
 4234TIP3    H134117   4.474   4.508  14.883  0.3258 -0.4666 -1.4463
 4234TIP3    H234118   4.345   4.500  14.962  0.5235  1.9292 -0.7829
 4235TIP3   OH234119   4.350   5.334  14.575 -0.0339  0.1256  0.5284
 4235TIP3    H134120   4.266   5.369  14.604  0.2354  0.0896  1.4155
 4235TIP3    H234121   4.388   5.405  14.523  0.4231  1.1568  2.1561
 4236TIP3   OH234122   1.814   5.924   4.324  0.9121  0.1668  0.4672
 4236TIP3    H134123   1.785   5.955   4.238  1.6450 -0.0557  0.1302
 4236TIP3    H234124   1.788   5.832   4.326  1.5043 -0.0151  0.1915
 4237TIP3   OH234125   1.609   1.591   5.526  0.8420  0.2690  0.0437
 4237TIP3    H134126   1.600   1.496   5.523  2.2393  0.0457  1.5595
 4237TIP3    H234127   1.699   1.608   5.499  1.0008  1.0492  1.0008
 4238TIP3   OH234128   4.078   1.276   6.173 -0.1590 -0.1811 -0.5696
 4238TIP3    H134129   4.117   1.362   6.159  1.1934 -0.7181 -0.3233
 4238TIP3    H234130   4.014   1.290   6.243  0.5420  0.5051 -0.0382
 4239TIP3   OH234131   4.818   0.173   5.184 -0.4562 -0.2397 -0.1341
 4239TIP3    H134132   4.828   0.163   5.090  0.3743 -0.0216 -0.0831
 4239TIP3    H234133   4.775   0.092   5.213  0.0154 -0.6611 -0.5938
 4240TIP3   OH234134   3.569   1.415  17.187 -0.1507  0.1064 -0.8632
 4240TIP3    H134135   3.498   1.428  17.251  0.5088 -2.4774  0.5501
 4240TIP3    H234136   3.649   1.421  17.238  0.4383 -1.1474 -1.5979
 4241TIP3   OH234137   4.019   2.270   2.830  0.0446 -0.1693 -0.0172
 4241TIP3    H134138   4.096   2.290   2.883  0.1752 -0.1702 -0.2056
 4241TIP3    H234139   3.976   2.354   2.816  1.0326  0.1216 -1.4908
 4242TIP3   OH234140   0.902   1.159  12.624 -0.6517  0.2011  0.0368
 4242TIP3    H134141   0.956   1.169  12.703 -1.6567  1.7960  0.5742
 4242TIP3    H234142   0.823   1.114  12.654 -0.7764  0.2787 -0.1727
 4243TIP3   OH234143   1.767   5.242  15.742  0.1074  0.1045 -0.3120
 4243TIP3    H134144   1.754   5.220  15.649 -1.4543  1.3523 -0.4352
 4243TIP3    H234145   1.797   5.333  15.741 -0.6367  0.3668  0.4167
 4244TIP3   OH234146   1.706   6.162   4.845 -0.3116  0.0304 -0.2550
 4244TIP3    H134147   1.704   6.251   4.811 -0.0420  0.5456  1.0439
 4244TIP3    H234148   1.618   6.127   4.827 -0.8409  1.0035  0.3846
 4245TIP3   OH234149   4.692   4.870   0.990  0.2858  0.1568  0.2416
 4245TIP3    H134150   4.708   4.826   1.073 -0.1262 -0.8923 -0.2194
 4245TIP3    H234151   4.602   4.900   0.995 -0.3328 -1.4501 -0.4767
 4246TIP3   OH234152   6.505   0.507   3.901 -0.0507  0.0679 -0.2079
 4246TIP3    H134153   6.446   0.525   3.975 -0.0627  2.0246 -0.6542
 4246TIP3    H234154   6.590   0.492   3.941 -0.1514  0.6483  0.2304
 4247TIP3   OH234155   6.674   2.920   4.466  0.3258  0.3521 -0.0362
 4247TIP3    H134156   6.675   2.824   4.464  4.0764  0.1087  2.3020
 4247TIP3    H234157   6.672   2.946   4.374 -0.0683 -1.9891 -0.7646
 4248TIP3   OH234158   5.347   3.728   0.794  0.0435 -0.3080  0.7529
 4248TIP3    H134159   5.358   3.812   0.750 -0.3499  0.1317  1.4621
 4248TIP3    H234160   5.340   3.751   0.887 -1.9915 -0.9305  0.8108
 4249TIP3   OH234161   1.931   2.934   0.852  0.4138  0.1464  0.9518
 4249TIP3    H134162   1.930   2.873   0.925 -0.2424 -0.4331  0.4680
 4249TIP3    H234163   1.868   3.002   0.877 -2.9229 -2.0912 -0.7318
 4250TIP3   OH234164   2.613   1.057  14.888  0.4932  0.5852 -0.5724
 4250TIP3    H134165   2.598   0.984  14.948 -1.4725  0.8209 -0.7212
 4250TIP3    H234166   2.566   1.033  14.808  1.2762  1.2539 -1.2605
 4251TIP3   OH234167   6.762   2.514  15.830 -0.2375 -0.0075 -0.1868
 4251TIP3    H134168   6.805   2.436  15.864  0.3846  0.6657  0.6421
 4251TIP3    H234169   6.827   2.554  15.772 -1.1166 -0.8894 -1.8380
 4252TIP3   OH234170   0.175   3.538  14.927  0.0316 -0.4630 -0.0356
 4252TIP3    H134171   0.138   3.549  14.839 -1.7294 -1.3535  0.5303
 4252TIP3    H234172   0.269   3.531  14.913 -0.2152 -0.7094 -1.8584
 4253TIP3   OH234173   3.236   3.631  15.828 -0.2835  0.0319  0.4692
 4253TIP3    H134174   3.149   3.647  15.864 -0.7879  0.6117 -0.9502
 4253TIP3    H234175   3.283   3.714  15.840 -0.4377  0.2124 -0.1258
 4254TIP3   OH234176   6.011   4.993  14.635  0.1279  0.3631 -0.3547
 4254TIP3    H134177   5.974   5.051  14.568 -1.9811 -2.7809 -2.1821
 4254TIP3    H234178   6.043   4.917  14.586  2.1839 -0.3848  1.9491
 4255TIP3   OH234179   5.737   3.604   0.953 -0.5567  0.2347 -0.8066
 4255TIP3    H134180   5.682   3.632   1.026 -1.1112 -0.4529 -0.9436
 4255TIP3    H234181   5.721   3.669   0.885 -0.5273  0.5284 -0.5325
 4256TIP3   OH234182   2.980   5.548  15.047  0.1424 -0.1206 -0.2004
 4256TIP3    H134183   2.970   5.518  14.956  3.8363  1.1695 -1.1962
 4256TIP3    H234184   3.028   5.478  15.090 -0.8057 -0.3225  0.5634
 4257TIP3   OH234185   3.151   2.830  11.058  0.2871 -0.3976 -0.0290
 4257TIP3    H134186   3.154   2.744  11.017 -1.0770 -0.5303  0.1002
 4257TIP3    H234187   3.236   2.869  11.039  1.7287 -2.5269  1.6358
 4258TIP3   OH234188   5.535   5.402   4.737  0.5354  0.1497  0.2692
 4258TIP3    H134189   5.563   5.354   4.659 -0.8701 -0.6957  0.2488
 4258TIP3    H234190   5.546   5.339   4.809 -1.4999 -0.3486  0.2190
 4259TIP3   OH234191   3.259   3.406  17.020  0.3145 -0.7127 -0.0033
 4259TIP3    H134192   3.292   3.467  17.086 -0.4512 -1.8999  1.5380
 4259TIP3    H234193   3.229   3.330  17.070 -2.7977 -0.5825 -1.4458
 4260TIP3   OH234194   2.910   1.452   0.223  0.0565 -0.4987  0.3448
 4260TIP3    H134195   2.896   1.497   0.139 -0.2497  0.5100  0.9211
 4260TIP3    H234196   2.879   1.363   0.207 -2.9466  0.4396  0.2229
 4261TIP3   OH234197   3.910   5.834   4.720  0.1104  0.2582  0.2273
 4261TIP3    H134198   3.956   5.814   4.639 -0.4718  1.4393 -0.4193
 4261TIP3    H234199   3.964   5.902   4.762  1.7142 -1.9999  2.0671
 4262TIP3   OH234200   5.671   3.169   2.813 -0.1073 -0.2548  0.0135
 4262TIP3    H134201   5.690   3.112   2.888 -0.4459  0.1395  0.4076
 4262TIP3    H234202   5.753   3.214   2.796 -0.4308  0.8369  1.1798
 4263TIP3   OH234203   4.076   5.645   6.055 -0.0345 -0.0206 -0.6344
 4263TIP3    H134204   4.031   5.695   6.124 -0.4610 -1.4250  0.1382
 4263TIP3    H234205   4.123   5.577   6.102 -0.5735 -1.1949 -1.7568
 4264TIP3   OH234206   4.532   6.512  16.628 -0.0636  0.5253  0.1578
 4264TIP3    H134207   4.532   6.459  16.709 -0.8770  0.0375 -0.1521
 4264TIP3    H234208   4.577   6.457  16.564 -0.0552  0.6144  0.0877
 4265TIP3   OH234209   2.284   2.219  11.689  0.1885 -0.1638  0.0235
 4265TIP3    H134210   2.334   2.256  11.761 -1.4803 -0.1770  1.2566
 4265TIP3    H234211   2.323   2.133  11.673  0.4144 -0.2793  1.1225
 4266TIP3   OH234212   6.418   0.092  16.786 -0.1705  1.1965  0.1659
 4266TIP3    H134213   6.470   0.062  16.711 -0.8580 -0.2949  0.2473
 4266TIP3    H234214   6.448   0.182  16.801 -1.0091  2.1178 -2.8250
 4267TIP3   OH234215   4.909   6.059  12.943 -0.6968  0.3723 -0.1001
 4267TIP3    H134216   4.958   6.053  13.025 -0.2071  1.5408 -0.2931
 4267TIP3    H234217   4.972   6.092  12.879 -1.1756 -0.1611 -0.8668
 4268TIP3   OH234218   2.342   6.545   2.216  0.5386 -0.4075 -0.4930
 4268TIP3    H134219   2.371   6.562   2.306  1.5862 -0.3403 -0.8275
 4268TIP3    H234220   2.296   6.625   2.191  0.0667 -0.5043  0.0451
 4269TIP3   OH234221   5.346   4.549   0.718  0.5106  0.4195  0.6045
 4269TIP3    H134222   5.414   4.483   0.732  0.3365  0.4344  1.5554
 4269TIP3    H234223   5.359   4.612   0.788 -2.6118 -1.3609  3.0006
 4270TIP3   OH234224   5.377   3.969   2.787  0.0687  0.3348  0.6215
 4270TIP3    H134225   5.469   3.944   2.779 -0.3694 -2.3796  2.6236
 4270TIP3    H234226   5.378   4.065   2.791  2.7382  0.3969  0.0801
 4271TIP3   OH234227   1.633   6.692  13.660 -0.0264  0.0223 -0.3663
 4271TIP3    H134228   1.723   6.712  13.635 -0.2267  0.8685 -0.4621
 4271TIP3    H234229   1.587   6.679  13.577  0.3735 -2.2944 -0.2993
 4272TIP3   OH234230   2.608   3.855  14.429  0.3032 -0.4146  0.5544
 4272TIP3    H134231   2.619   3.930  14.487 -0.0057 -0.3198  0.4967
 4272TIP3    H234232   2.516   3.860  14.401  0.4850 -0.3845 -0.0404
 4273TIP3   OH234233   3.109   3.313   5.948  0.8694  0.1794  0.1509
 4273TIP3    H134234   3.066   3.392   5.917 -0.8925  0.0204  1.9631
 4273TIP3    H234235   3.042   3.245   5.942  1.7335 -0.7334  0.4714
 4274TIP3   OH234236   6.292   0.495   0.077 -0.0724  0.1387  1.0199
 4274TIP3    H134237   6.351   0.475   0.149 -0.5131  1.6412  1.8521
 4274TIP3    H234238   6.251   0.578   0.102  0.9316  1.5940 -1.6682
 4275TIP3   OH234239   4.198   0.861  12.439  0.2425 -0.1412 -0.2824
 4275TIP3    H134240   4.251   0.817  12.373  0.1437  0.2048 -0.5929
 4275TIP3    H234241   4.249   0.852  12.520  2.2697  2.7198 -1.0803
 4276TIP3   OH234242   6.701   1.460   2.217  0.1365  0.0473 -0.0098
 4276TIP3    H134243   6.619   1.495   2.183  1.3393 -0.4977 -3.9711
 4276TIP3    H234244   6.767   1.524   2.191  1.2756 -0.6848  0.9711
 4277TIP3   OH234245   0.850   4.658   3.860 -0.0449 -0.0772  0.0994
 4277TIP3    H134246   0.844   4.739   3.810  2.4758  0.6536  0.8463
 4277TIP3    H234247   0.791   4.670   3.934  0.1155  0.9805  0.0618
 4278TIP3   OH234248   6.595   4.340  14.076 -0.4447  0.9586 -0.2898
 4278TIP3    H134249   6.539   4.274  14.117  1.3797 -0.2462  0.4199
 4278TIP3    H234250   6.604   4.408  14.143 -0.2088  0.6306  0.0189
 4279TIP3   OH234251   1.455   3.434   4.252  0.5943 -0.0426  0.4914
 4279TIP3    H134252   1.396   3.359   4.256  0.3188 -0.0829 -2.2414
 4279TIP3    H234253   1.422   3.494   4.319 -0.2622 -1.5851  1.5230
 4280TIP3   OH234254   5.227   6.287  12.018  0.0165 -0.0198  0.1762
 4280TIP3    H134255   5.316   6.316  11.996 -0.6717  0.4737 -2.2579
 4280TIP3    H234256   5.239   6.200  12.056  1.4092 -1.5080 -3.2851
 4281TIP3   OH234257   0.145   3.990  11.563  0.1641  0.2914 -0.1373
 4281TIP3    H134258   0.137   4.045  11.485  1.2910 -1.1783 -1.3672
 4281TIP3    H234259   0.238   3.967  11.566 -0.3428 -2.0027 -0.0588
 4282TIP3   OH234260   4.004   4.590   2.881  0.7449 -0.3087  0.0610
 4282TIP3    H134261   3.913   4.584   2.852  1.7551 -0.5911 -3.5143
 4282TIP3    H234262   4.019   4.684   2.893 -0.0052 -0.2661  0.7455
 4283TIP3   OH234263   0.024   2.928  15.778 -0.1070 -0.3707 -0.3655
 4283TIP3    H134264   0.108   2.886  15.795 -0.1011 -0.0066  0.5622
 4283TIP3    H234265   0.009   2.984  15.855 -1.4629 -0.8498 -0.2591
 4284TIP3   OH234266   0.252   0.415  16.762 -0.6636 -0.0236  0.2383
 4284TIP3    H134267   0.179   0.444  16.708 -1.2715  0.4624  1.2871
 4284TIP3    H234268   0.225   0.330  16.796  0.8548 -1.6718 -2.3240
 4285TIP3   OH234269   2.547   6.220   5.164 -0.1133  0.4662  0.4125
 4285TIP3    H134270   2.550   6.291   5.228 -1.9152  0.8053  0.1743
 4285TIP3    H234271   2.637   6.187   5.160  0.5886  2.1994  1.1133
 4286TIP3   OH234272   2.297   3.273  12.180  0.1610 -0.0984 -0.2767
 4286TIP3    H134273   2.311   3.238  12.092 -0.9405  0.1679 -0.5784
 4286TIP3    H234274   2.226   3.219  12.216 -2.0901  2.1414 -1.0218
 4287TIP3   OH234275   2.426   3.348   1.792 -0.3057 -0.6138  0.3230
 4287TIP3    H134276   2.475   3.396   1.859 -0.2001  1.2418 -0.9834
 4287TIP3    H234277   2.487   3.341   1.718 -1.0489 -0.8215 -0.2875
 4288TIP3   OH234278   4.262   5.427   3.034 -0.3300  0.2916 -0.1202
 4288TIP3    H134279   4.175   5.452   3.064  0.1003  0.8915  0.6776
 4288TIP3    H234280   4.307   5.396   3.112  0.0299 -0.4600 -0.6126
 4289TIP3   OH234281   4.812   1.677  16.187 -0.2386  0.0962 -0.5667
 4289TIP3    H134282   4.730   1.692  16.233  0.5786 -0.9011  1.3315
 4289TIP3    H234283   4.788   1.673  16.094 -1.8578  2.9516 -0.3993
 4290TIP3   OH234284   4.743   5.327   3.253  0.2466  0.0357 -0.2382
 4290TIP3    H134285   4.710   5.409   3.290  1.1788 -0.4742  1.8515
 4290TIP3    H234286   4.664   5.280   3.227 -0.6185 -0.0761  2.2862
 4291TIP3   OH234287   1.068   1.544   3.695 -0.3177  0.4756 -0.0380
 4291TIP3    H134288   1.006   1.498   3.752 -0.4873 -0.0984 -0.6775
 4291TIP3    H234289   1.153   1.530   3.736 -0.2801 -0.9861 -0.5842
 4292TIP3   OH234290   6.048   6.395  14.273 -0.0089 -0.1121  0.2624
 4292TIP3    H134291   5.996   6.448  14.334  0.3796 -0.4591  0.9122
 4292TIP3    H234292   6.120   6.361  14.326  1.1944  0.7813 -0.7388
 4293TIP3   OH234293   6.376   1.779  16.224  0.1292 -0.0157 -0.0486
 4293TIP3    H134294   6.419   1.856  16.261 -0.7720 -0.4366  2.0043
 4293TIP3    H234295   6.322   1.745  16.295 -0.8929 -1.5109 -1.4638
 4294TIP3   OH234296   0.237   2.898  16.617 -0.3385  0.3434 -0.1161
 4294TIP3    H134297   0.143   2.881  16.632 -0.2464 -0.6542 -0.5824
 4294TIP3    H234298   0.239   2.978  16.565 -0.8399  1.4385  1.4777
 4295TIP3   OH234299   5.818   5.345  12.865 -0.3375 -0.2425  0.4682
 4295TIP3    H134300   5.894   5.323  12.811 -0.0720 -0.3283  0.8727
 4295TIP3    H234301   5.855   5.368  12.950 -0.7142  0.3691  0.4739
 4296TIP3   OH234302   1.715   3.092  13.437  0.2050 -0.4781 -0.7297
 4296TIP3    H134303   1.789   3.059  13.386  0.7115 -0.3752 -0.0769
 4296TIP3    H234304   1.724   3.187  13.433 -0.7780 -0.3973 -1.9152
 4297TIP3   OH234305   1.011   4.711   3.269 -0.0764  0.1867 -0.6625
 4297TIP3    H134306   0.944   4.653   3.304 -0.6379  0.6120 -1.0306
 4297TIP3    H234307   0.978   4.738   3.184  1.2421 -0.7818 -1.5310
 4298TIP3   OH234308   0.996   1.243  17.010 -0.1489 -0.6253 -0.5425
 4298TIP3    H134309   1.083   1.228  16.973 -0.0289  0.0024 -0.5243
 4298TIP3    H234310   0.937   1.239  16.935 -0.0746 -0.7800 -0.5936
 4299TIP3   OH234311   4.852   3.824   4.761 -0.2294  0.4441  0.3211
 4299TIP3    H134312   4.923   3.760   4.751 -0.6462  0.2218 -1.8024
 4299TIP3    H234313   4.774   3.777   4.732 -0.6928  1.6131 -0.4248
 4300TIP3   OH234314   4.176   6.112  15.600  0.0414  0.4852  0.5093
 4300TIP3    H134315   4.143   6.083  15.685  0.2237 -0.2757  0.3307
 4300TIP3    H234316   4.271   6.113  15.610  0.0833  0.0206  0.2044
 4301TIP3   OH234317   1.906   3.579  11.391  0.0529  0.2764 -0.3984
 4301TIP3    H134318   1.910   3.489  11.422  1.0768  0.4329 -0.0475
 4301TIP3    H234319   1.903   3.572  11.296  0.8695 -0.1227 -0.4051
 4302TIP3   OH234320   4.603   3.540   5.962 -0.0959  0.0744  0.5091
 4302TIP3    H134321   4.525   3.589   5.934 -1.0648 -2.3555 -1.3720
 4302TIP3    H234322   4.617   3.568   6.053 -2.1499  1.8018  0.3798
 4303TIP3   OH234323   5.213   2.987   5.036 -0.2300 -0.0475  0.7478
 4303TIP3    H134324   5.251   2.995   5.124 -1.0184  0.9602  1.0143
 4303TIP3    H234325   5.120   2.972   5.052 -0.0423 -2.3231  0.0986
 4304TIP3   OH234326   0.395   5.243  13.612 -0.0446  1.0136  0.8293
 4304TIP3    H134327   0.423   5.332  13.591  0.2812  0.7595  0.1366
 4304TIP3    H234328   0.395   5.198  13.527 -1.7179  0.7678  0.9338
 4305TIP3   OH234329   2.619   0.912   3.693  0.2992  0.2131  0.5950
 4305TIP3    H134330   2.632   0.957   3.609  0.2565 -0.3909  0.2574
 4305TIP3    H234331   2.610   0.983   3.757 -0.8205  0.7106 -0.0784
 4306TIP3   OH234332   1.631   4.662   3.623  0.2681  0.5198  0.1388
 4306TIP3    H134333   1.683   4.662   3.543  0.4149  0.5354  0.2339
 4306TIP3    H234334   1.663   4.587   3.673  0.3389  0.6469  0.2866
 4307TIP3   OH234335   1.386   5.881   6.032  0.3814 -0.4557 -0.0160
 4307TIP3    H134336   1.345   5.962   6.062 -0.7201 -0.4617 -1.4245
 4307TIP3    H234337   1.322   5.812   6.050  0.8745 -0.8805  0.1836
 4308TIP3   OH234338   1.335   3.894  14.808 -0.0008 -0.8594  0.1823
 4308TIP3    H134339   1.419   3.898  14.763 -0.1028 -1.5189 -0.0829
 4308TIP3    H234340   1.312   3.801  14.807 -1.2063 -0.5752 -0.6473
 4309TIP3   OH234341   0.140   1.585  14.208  0.0023  0.0783 -0.3276
 4309TIP3    H134342   0.082   1.658  14.230 -0.0589 -0.4523  1.4165
 4309TIP3    H234343   0.084   1.523  14.160 -0.0437  0.9659 -1.4548
 4310TIP3   OH234344   5.816   0.824   2.741 -0.0324  0.3821 -0.1626
 4310TIP3    H134345   5.781   0.830   2.652 -0.6357 -0.4874  0.0051
 4310TIP3    H234346   5.780   0.743   2.776  0.3776  0.5988  0.8058
 4311TIP3   OH234347   4.192   0.419  16.281 -0.4766  0.5523  0.4561
 4311TIP3    H134348   4.286   0.400  16.280 -0.5408  0.1717 -1.3306
 4311TIP3    H234349   4.170   0.426  16.374  1.0287 -0.7932  0.9572
 4312TIP3   OH234350   4.172   5.422  11.610 -0.1016 -0.4654 -0.6807
 4312TIP3    H134351   4.175   5.484  11.537  1.6929 -0.2930 -0.4986
 4312TIP3    H234352   4.097   5.450  11.662  0.2855  1.1664 -0.9527
 4313TIP3   OH234353   0.015   5.699  11.321  0.5291  0.4672 -0.6312
 4313TIP3    H134354  -0.058   5.675  11.379  2.2340  1.1114  1.9459
 4313TIP3    H234355   0.066   5.619  11.312  0.2871  0.3765 -1.2751
 4314TIP3   OH234356   1.882   0.596   0.804  0.7141  0.4271 -0.7320
 4314TIP3    H134357   1.878   0.631   0.716  0.8028  0.2764 -0.7975
 4314TIP3    H234358   1.920   0.509   0.793  0.8744  0.4715 -0.5265
 4315TIP3   OH234359   1.521   5.171   2.696 -0.4864 -0.4321  0.0788
 4315TIP3    H134360   1.439   5.156   2.649 -0.4676  1.2054 -0.5323
 4315TIP3    H234361   1.572   5.090   2.682 -2.2620 -1.7954  1.1350
 4316TIP3   OH234362   2.094   1.191   0.104  0.8856  0.3769  0.2498
 4316TIP3    H134363   2.124   1.208   0.193 -0.6285 -1.5907  1.1922
 4316TIP3    H234364   2.019   1.133   0.114  0.0960  0.8297 -2.2822
 4317TIP3   OH234365   2.983   6.343  13.434 -0.6417 -0.2500  0.0514
 4317TIP3    H134366   2.991   6.298  13.519 -2.5650 -0.7565 -0.0026
 4317TIP3    H234367   2.894   6.377  13.433 -0.7070 -0.3860 -1.8549
 4318TIP3   OH234368   3.923   5.551   3.830  0.3360 -0.5675  0.0753
 4318TIP3    H134369   3.918   5.609   3.754  0.9736 -0.3623  0.1801
 4318TIP3    H234370   3.971   5.474   3.798  1.2167 -0.1859  0.4322
 4319TIP3   OH234371   2.251   3.226  11.211 -0.0890  0.0284  0.0669
 4319TIP3    H134372   2.217   3.139  11.189  0.4738  0.1114 -1.2489
 4319TIP3    H234373   2.173   3.279  11.225 -0.5388 -0.0740 -1.7313
 4320TIP3   OH234374   5.107   0.889  16.965  0.7077 -0.2316  0.4849
 4320TIP3    H134375   5.046   0.897  16.892 -0.5967 -1.9764  1.3306
 4320TIP3    H234376   5.057   0.915  17.041  1.4623 -0.3255  1.0252
 4321TIP3   OH234377   2.496   2.314   4.865 -0.3370 -0.4139  1.2535
 4321TIP3    H134378   2.542   2.267   4.935 -0.7903  0.3587  2.0840
 4321TIP3    H234379   2.518   2.265   4.786 -1.3183 -2.4468  2.1597
 4322TIP3   OH234380   4.401   4.598  11.962  0.1067 -0.0883  0.2642
 4322TIP3    H134381   4.411   4.656  12.037  0.0062  0.3695 -0.0738
 4322TIP3    H234382   4.472   4.534  11.972  0.5323  0.3914  0.3653
 4323TIP3   OH234383   2.542   2.352  15.855  0.0712 -0.1229  0.1056
 4323TIP3    H134384   2.479   2.361  15.784 -0.6114  0.0874  0.7262
 4323TIP3    H234385   2.549   2.439  15.894  0.6108 -0.1830  0.1584
 4324TIP3   OH234386   5.453   4.983  14.744  1.1009 -0.2160 -0.0896
 4324TIP3    H134387   5.483   4.926  14.673  0.1172  0.3434 -0.9918
 4324TIP3    H234388   5.509   5.060  14.738  0.3880  0.2590 -0.9225
 4325TIP3   OH234389   0.787   4.095   1.674  0.0552 -0.3725 -0.2179
 4325TIP3    H134390   0.778   4.139   1.759  0.3242 -0.7976  0.0346
 4325TIP3    H234391   0.841   4.155   1.622  0.7265 -0.5640  0.2428
 4326TIP3   OH234392   5.572   1.849   2.083 -0.1862  0.4314 -0.3457
 4326TIP3    H134393   5.529   1.870   2.001  0.9413  0.8939 -0.8424
 4326TIP3    H234394   5.618   1.766   2.067  0.3026  0.6864 -0.3004
 4327TIP3   OH234395   5.286   2.195  15.795  0.1578  0.8014  0.6146
 4327TIP3    H134396   5.342   2.265  15.762  2.4927 -1.1881  0.0871
 4327TIP3    H234397   5.238   2.164  15.717  1.9154 -0.5673  0.0114
 4328TIP3   OH234398   1.036   4.113   5.430 -0.2168  0.0571  0.0315
 4328TIP3    H134399   1.103   4.148   5.370 -0.7123  0.6052 -0.2145
 4328TIP3    H234400   0.953   4.131   5.386 -0.6716  1.4650  1.3634
 4329TIP3   OH234401   3.269   6.201   2.278 -0.2430  0.1369 -0.1847
 4329TIP3    H134402   3.236   6.212   2.367 -0.6298 -0.9283 -0.1810
 4329TIP3    H234403   3.233   6.117   2.250 -0.4233  0.6360 -1.4889
 4330TIP3   OH234404   5.575   5.818  17.072  0.1225 -0.1513  0.0596
 4330TIP3    H134405   5.507   5.752  17.081 -0.1863  0.1700  0.1227
 4330TIP3    H234406   5.571   5.868  17.154 -0.0079  0.2796 -0.2039
 4331TIP3   OH234407   0.264   2.882  12.433 -0.0638  0.2975  0.0885
 4331TIP3    H134408   0.194   2.842  12.382  0.2914  0.4562 -0.5217
 4331TIP3    H234409   0.239   2.866  12.524 -2.2549  2.5153 -0.0005
 4332TIP3   OH234410   4.548   2.254   6.453 -0.6324 -0.2487  0.2446
 4332TIP3    H134411   4.528   2.162   6.472  1.1609 -0.3780  1.7122
 4332TIP3    H234412   4.463   2.293   6.434 -1.4708 -2.1408 -0.1648
 4333TIP3   OH234413   0.389   6.585  16.285 -0.3997  0.2855 -0.2789
 4333TIP3    H134414   0.329   6.532  16.337  1.2599  1.5159  3.2299
 4333TIP3    H234415   0.333   6.650  16.243 -1.8194 -0.5725  0.2067
 4334TIP3   OH234416   0.189   3.092  14.873 -0.1381 -0.5519 -0.0322
 4334TIP3    H134417   0.110   3.090  14.818  0.1033  1.0373 -0.4731
 4334TIP3    H234418   0.177   3.169  14.929  1.7745  0.6425 -1.1700
 4335TIP3   OH234419   1.285   0.211   3.895  0.1579  0.5678 -0.0476
 4335TIP3    H134420   1.240   0.137   3.936  0.7129  0.2549 -0.0005
 4335TIP3    H234421   1.305   0.269   3.968  1.0045  0.0843  0.1192
 4336TIP3   OH234422   3.877   1.610   3.558 -0.6989  0.1583  0.3622
 4336TIP3    H134423   3.844   1.586   3.472  1.6157 -0.6588 -0.3963
 4336TIP3    H234424   3.891   1.705   3.553  2.7091 -0.2509 -1.5801
 4337TIP3   OH234425   6.397   4.882   1.573 -0.0817  0.8351  0.7527
 4337TIP3    H134426   6.394   4.968   1.615  1.3169  0.3780  1.8859
 4337TIP3    H234427   6.430   4.824   1.642  2.8638  0.1294 -1.1163
 4338TIP3   OH234428   3.388   5.449  15.194 -0.1613  0.0123 -0.0177
 4338TIP3    H134429   3.472   5.405  15.212 -1.0127 -1.8457 -0.4005
 4338TIP3    H234430   3.407   5.542  15.206  1.9204 -0.3757  0.0692
 4339TIP3   OH234431   0.424   1.923  13.876  0.1443  0.3241 -0.0324
 4339TIP3    H134432   0.419   1.926  13.780 -0.3678 -0.2533 -0.0287
 4339TIP3    H234433   0.419   2.015  13.903 -2.8290  0.3848 -0.4270
 4340TIP3   OH234434   3.373   3.505   0.611 -0.2575  0.2754 -0.2584
 4340TIP3    H134435   3.321   3.434   0.647 -1.4133  1.0630 -0.3154
 4340TIP3    H234436   3.309   3.565   0.572  0.6532  1.4471 -0.0336
 4341TIP3   OH234437   2.423   0.157  10.361  0.1110  0.7313 -0.1777
 4341TIP3    H134438   2.371   0.081  10.387  1.9079 -0.2084  0.8522
 4341TIP3    H234439   2.395   0.226  10.422  0.8911 -0.1077  1.1789
 4342TIP3   OH234440   1.840   5.060  11.695 -0.2884  0.2517 -0.4042
 4342TIP3    H134441   1.868   4.998  11.627  4.3729 -0.9253  2.1820
 4342TIP3    H234442   1.769   5.015  11.740 -1.2441 -0.3547 -2.3857
 4343TIP3   OH234443   4.421   2.367   3.668  0.0933 -0.1789 -0.5918
 4343TIP3    H134444   4.392   2.434   3.605  1.3550 -0.8515 -1.9432
 4343TIP3    H234445   4.387   2.285   3.632 -0.2445 -0.4399  0.3034
 4344TIP3   OH234446   3.535   4.328  12.230  0.0985 -0.9395 -0.2977
 4344TIP3    H134447   3.561   4.240  12.200  0.0235 -2.0164  2.4648
 4344TIP3    H234448   3.615   4.380  12.224  0.5141 -1.6022 -0.6266
 4345TIP3   OH234449   3.984   2.506  12.576 -0.2373  0.0009 -0.2270
 4345TIP3    H134450   3.978   2.504  12.672 -1.2601  1.1302 -0.2445
 4345TIP3    H234451   3.901   2.543  12.548  0.3236  0.3063 -1.5292
 4346TIP3   OH234452   4.100   1.187  13.492 -0.1993 -0.6298  0.1747
 4346TIP3    H134453   4.085   1.124  13.562  0.6480  0.0975  1.0283
 4346TIP3    H234454   4.048   1.264  13.516  1.3836  0.2618  0.9146
 4347TIP3   OH234455   0.960   5.329  13.157  0.2834  0.4495  0.1816
 4347TIP3    H134456   1.004   5.398  13.109 -2.0465  0.9769 -1.3656
 4347TIP3    H234457   0.900   5.375  13.216  1.6634 -0.2409  2.2354
 4348TIP3   OH234458   5.854   6.110   2.164 -0.7640  0.0144  0.4303
 4348TIP3    H134459   5.776   6.135   2.213 -0.5950  0.7937  0.3187
 4348TIP3    H234460   5.853   6.166   2.087  1.1293  1.7929  1.5701
 4349TIP3   OH234461   0.895   4.539  14.329 -0.0106 -0.1319 -0.1871
 4349TIP3    H134462   0.944   4.619  14.310  0.4356 -0.0609  1.1929
 4349TIP3    H234463   0.961   4.470  14.329  0.2845  0.0650  2.4274
 4350TIP3   OH234464   0.229   6.133   2.819 -0.1373  0.2777 -0.0399
 4350TIP3    H134465   0.234   6.054   2.874  0.9122  0.5556  0.2929
 4350TIP3    H234466   0.320   6.164   2.815  0.1583 -0.6711 -3.3041
 4351TIP3   OH234467   6.739   1.518  15.558  0.2132  0.0142 -0.2608
 4351TIP3    H134468   6.805   1.459  15.596 -0.2715 -2.0864 -2.4112
 4351TIP3    H234469   6.664   1.461  15.540 -0.7104  1.5435 -1.4281
 4352TIP3   OH234470   0.088   4.221   4.494  0.1589 -0.5967 -0.0853
 4352TIP3    H134471   0.083   4.142   4.441  0.3958  0.4767 -1.7579
 4352TIP3    H234472   0.139   4.282   4.442 -1.5157  1.2789  0.3448
 4353TIP3   OH234473   0.025   2.128  10.798 -0.2438  0.2354 -0.0880
 4353TIP3    H134474   0.011   2.222  10.787 -3.9654 -0.1793 -0.3659
 4353TIP3    H234475  -0.003   2.089  10.715  0.0122 -1.1690  0.4505
 4354TIP3   OH234476   4.235   3.405  12.711 -0.1318 -0.2282 -0.1795
 4354TIP3    H134477   4.147   3.390  12.678 -0.2186 -1.5533  0.5393
 4354TIP3    H234478   4.283   3.326  12.686  1.0368  0.7699 -1.1344
 4355TIP3   OH234479   4.110   2.450   4.143 -0.2959 -0.0754  0.0351
 4355TIP3    H134480   4.049   2.522   4.130 -5.0341 -3.5812  0.0310
 4355TIP3    H234481   4.142   2.429   4.055  0.4472  1.3635 -0.0673
 4356TIP3   OH234482   4.879   3.383   1.264  0.1853  0.3515  0.6491
 4356TIP3    H134483   4.943   3.315   1.281 -0.1212  0.3892  2.1553
 4356TIP3    H234484   4.827   3.351   1.191  2.2261  0.5707 -0.9981
 4357TIP3   OH234485   2.270   5.807   5.949  0.3885 -0.3659  0.3690
 4357TIP3    H134486   2.363   5.795   5.930  0.2181 -1.8463  0.3857
 4357TIP3    H234487   2.261   5.783   6.041  0.2349  1.2953  0.8163
 4358TIP3   OH234488   4.053   3.894   3.776  0.3877 -0.1527  0.1027
 4358TIP3    H134489   4.005   3.949   3.713  0.0417 -0.5698  0.0023
 4358TIP3    H234490   4.128   3.948   3.800  0.0466  0.3805  0.0144
 4359TIP3   OH234491   4.483   2.758   0.405 -0.1779  0.3374 -0.0909
 4359TIP3    H134492   4.479   2.665   0.381  0.0026  0.2294  0.2909
 4359TIP3    H234493   4.548   2.795   0.347 -0.7948  0.3876 -0.7675
 4360TIP3   OH234494   3.129   0.152  12.518  0.0935  0.2996 -0.2484
 4360TIP3    H134495   3.143   0.247  12.513 -2.0636  0.6264 -1.3336
 4360TIP3    H234496   3.042   0.142  12.556  0.7018 -1.3111  0.8360
 4361TIP3   OH234497   2.327   6.123  16.135 -0.0028 -0.8315 -0.0530
 4361TIP3    H134498   2.238   6.090  16.129 -0.5082  0.6646 -1.3925
 4361TIP3    H234499   2.367   6.070  16.205 -2.3821 -0.4565  1.7437
 4362TIP3   OH234500   0.526   1.374   3.728  0.1959 -0.1875 -0.6382
 4362TIP3    H134501   0.604   1.364   3.674  1.4059 -0.5353  1.0978
 4362TIP3    H234502   0.530   1.464   3.760 -0.8455  0.2148 -1.5595
 4363TIP3   OH234503   2.115   5.332   1.399  0.2271  0.3025  0.6889
 4363TIP3    H134504   2.117   5.418   1.356 -0.8540  0.3869  0.7801
 4363TIP3    H234505   2.093   5.352   1.490 -0.4147 -0.0863  0.6263
 4364TIP3   OH234506   6.694   3.085   3.175  0.0574  0.4508  0.1000
 4364TIP3    H134507   6.673   3.094   3.082 -1.7075 -0.0180  0.4181
 4364TIP3    H234508   6.763   3.150   3.191  2.2381 -1.1469 -2.0416
 4365TIP3   OH234509   3.386   3.475  16.090  0.1927  0.2517  0.1118
 4365TIP3    H134510   3.428   3.438  16.012 -0.4102 -0.6525  0.1994
 4365TIP3    H234511   3.430   3.558  16.104 -1.2799  1.6182 -2.6111
 4366TIP3   OH234512   4.633   1.724   6.243 -1.0020  0.4473 -0.6824
 4366TIP3    H134513   4.619   1.756   6.332 -0.7171  0.6992 -0.7282
 4366TIP3    H234514   4.545   1.701   6.212 -1.0081 -0.4164 -0.0507
 4367TIP3   OH234515   4.026   0.198  15.375 -0.0294 -0.6119 -0.0745
 4367TIP3    H134516   4.068   0.267  15.324  0.6766  1.2446  2.7713
 4367TIP3    H234517   4.097   0.138  15.399  0.4102  0.5034  1.6222
 4368TIP3   OH234518   3.665   3.799  12.689 -0.2669 -0.3890 -0.4119
 4368TIP3    H134519   3.695   3.776  12.601  0.6866  0.6245 -0.3662
 4368TIP3    H234520   3.725   3.868  12.718 -0.3552 -0.9407  1.1697
 4369TIP3   OH234521   2.604   0.000   1.837 -0.2964  0.3223 -0.2531
 4369TIP3    H134522   2.637   0.043   1.916  4.5217 -1.1290 -1.1661
 4369TIP3    H234523   2.574  -0.086   1.866  1.2283 -0.1139  0.0994
 4370TIP3   OH234524   4.522   4.592  16.063 -0.0468  0.0123 -0.4950
 4370TIP3    H134525   4.488   4.523  16.007 -0.5011 -0.9001  0.8538
 4370TIP3    H234526   4.549   4.661  16.003 -0.7728 -0.8102 -1.8031
 4371TIP3   OH234527   2.664   5.748  17.166 -0.2495  0.3289  0.4775
 4371TIP3    H134528   2.698   5.772  17.252  1.5152 -2.1694  0.5882
 4371TIP3    H234529   2.581   5.704  17.185 -0.2236  0.4389  0.8492
 4372TIP3   OH234530   6.577   3.691   2.815  0.1019  0.3492 -0.7301
 4372TIP3    H134531   6.572   3.688   2.719 -1.9667 -2.5610 -0.6175
 4372TIP3    H234532   6.636   3.620   2.838  1.4402  1.6969  0.1995
 4373TIP3   OH234533   1.796   0.053   4.585 -0.0410 -0.0867  0.1649
 4373TIP3    H134534   1.744   0.056   4.505 -1.9665 -1.2028  1.2943
 4373TIP3    H234535   1.842   0.138   4.587 -1.0609  0.5441 -1.3713
 4374TIP3   OH234536   2.421   4.370   3.334  0.2005  0.1294 -0.5133
 4374TIP3    H134537   2.501   4.353   3.385  0.1048  0.6222 -0.1858
 4374TIP3    H234538   2.434   4.323   3.252  0.8903  0.3154 -0.5159
 4375TIP3   OH234539   0.432   3.972  13.318  0.0471 -0.4144 -0.4395
 4375TIP3    H134540   0.474   4.048  13.359 -1.8386  0.7236 -0.4968
 4375TIP3    H234541   0.505   3.916  13.291  1.5287  1.5053 -0.6409
 4376TIP3   OH234542   4.000   3.432   5.534 -0.3611  0.0370 -0.1130
 4376TIP3    H134543   4.004   3.342   5.568 -1.2018 -0.3080 -0.9011
 4376TIP3    H234544   4.053   3.483   5.596 -1.5422 -0.6274  1.5359
 4377TIP3   OH234545   1.641   3.056   6.061  0.0528 -0.5494  0.0631
 4377TIP3    H134546   1.560   3.027   6.018  0.6404 -0.6761 -0.9992
 4377TIP3    H234547   1.637   3.151   6.059 -0.6281 -0.5421  1.1232
 4378TIP3   OH234548   0.014   5.425   2.045 -0.0092  0.3965 -0.5715
 4378TIP3    H134549   0.030   5.362   1.975  1.0604  0.6388 -0.5645
 4378TIP3    H234550   0.024   5.375   2.126  4.2174  1.1359 -0.4225
 4379TIP3   OH234551   2.366   3.294   5.926  0.2753  0.2346  0.4660
 4379TIP3    H134552   2.285   3.244   5.924  0.1986  0.3382  0.8064
 4379TIP3    H234553   2.403   3.276   6.012  0.8079 -0.1091  0.1689
 4380TIP3   OH234554   2.731   6.591  12.435 -0.4233 -0.2903  0.1492
 4380TIP3    H134555   2.759   6.597  12.526  0.0970  0.0992 -0.0339
 4380TIP3    H234556   2.704   6.680  12.412  0.4225 -0.1573 -0.3829
 4381TIP3   OH234557   0.839   3.749  14.556 -0.3587  0.5437 -0.9750
 4381TIP3    H134558   0.851   3.835  14.596  1.7366 -0.0193 -0.2859
 4381TIP3    H234559   0.927   3.711  14.553 -1.2457 -1.6513 -1.0902
 4382TIP3   OH234560   4.193   1.545  12.193 -0.0689 -0.5095  0.5219
 4382TIP3    H134561   4.222   1.454  12.194  1.9060  0.0392 -0.7394
 4382TIP3    H234562   4.246   1.589  12.259  1.5289  0.3347 -1.2090
 4383TIP3   OH234563   1.945   5.513  10.554  0.4079  0.3919 -0.3963
 4383TIP3    H134564   1.925   5.607  10.557 -1.0916  0.0909  2.3875
 4383TIP3    H234565   1.988   5.495  10.637 -0.8720 -1.6516 -0.1057
 4384TIP3   OH234566   3.056   1.739  16.435 -0.2757  0.1615  0.6672
 4384TIP3    H134567   3.121   1.797  16.394 -0.2046 -1.0637 -1.0442
 4384TIP3    H234568   2.972   1.768  16.400 -0.2116 -0.9180 -0.4421
 4385TIP3   OH234569   4.416   1.902   4.207  0.3503 -0.1359  0.0709
 4385TIP3    H134570   4.504   1.928   4.179  0.0515 -1.0623 -1.9412
 4385TIP3    H234571   4.360   1.974   4.180  0.2816 -0.2799 -0.1730
 4386TIP3   OH234572   3.980   0.858  11.494 -0.0098  0.0350 -0.7757
 4386TIP3    H134573   3.962   0.905  11.575  0.7810 -1.2519  0.1924
 4386TIP3    H234574   3.896   0.822  11.467 -0.5378  1.5757 -1.2977
 4387TIP3   OH234575   2.073   3.633   5.763 -0.0990  0.1968 -0.0098
 4387TIP3    H134576   2.048   3.717   5.801 -0.9846  0.5585 -1.3367
 4387TIP3    H234577   1.996   3.577   5.776  0.7327 -0.6658  1.4988
 4388TIP3   OH234578   0.452   3.927  17.023 -0.2734 -0.1498 -0.2461
 4388TIP3    H134579   0.416   3.998  17.076 -1.6316  1.2631 -2.8319
 4388TIP3    H234580   0.396   3.924  16.945  2.3106 -1.1631 -2.2391
 4389TIP3   OH234581   6.327   2.420   3.724  0.1328 -0.4745  0.2737
 4389TIP3    H134582   6.304   2.431   3.632  0.2292 -1.8516  0.0714
 4389TIP3    H234583   6.361   2.505   3.750  1.0008 -0.3287 -1.2267
 4390TIP3   OH234584   5.531   6.144   1.308 -0.1889  0.1463  0.1278
 4390TIP3    H134585   5.476   6.122   1.233 -0.9967  2.5529 -0.0551
 4390TIP3    H234586   5.532   6.064   1.361 -0.3439 -1.3034 -1.9574
 4391TIP3   OH234587   0.283   0.113   0.261  0.1384 -0.5845 -0.6224
 4391TIP3    H134588   0.317   0.197   0.290 -0.0856  0.2669 -2.6674
 4391TIP3    H234589   0.188   0.125   0.257  0.1287 -0.7896 -1.2648
 4392TIP3   OH234590   4.187   2.495   2.414  0.1160  0.2789  0.6990
 4392TIP3    H134591   4.235   2.413   2.403  1.6801  0.9982  1.7700
 4392TIP3    H234592   4.167   2.499   2.507 -2.4521 -0.1745  0.2377
 4393TIP3   OH234593   1.989   1.831   6.792 -0.3862 -0.0465 -0.1105
 4393TIP3    H134594   1.899   1.845   6.823 -0.5351 -0.4525 -0.3563
 4393TIP3    H234595   1.991   1.739   6.765 -0.7570  0.6865 -2.9578
 4394TIP3   OH234596   3.377   6.186   4.631 -0.6348  0.2727  0.3984
 4394TIP3    H134597   3.460   6.207   4.589 -0.7201  0.9356  0.5507
 4394TIP3    H234598   3.397   6.180   4.724 -0.5140 -0.8496  0.3120
 4395TIP3   OH234599   4.499   3.179   1.942  0.1686 -0.9866  0.1361
 4395TIP3    H134600   4.405   3.198   1.942  0.2123 -0.7301 -0.6980
 4395TIP3    H234601   4.540   3.261   1.967  0.1104 -1.5671  2.2911
 4396TIP3   OH234602   4.800   4.521  14.128  0.3545  0.1498 -0.0536
 4396TIP3    H134603   4.797   4.456  14.058 -2.0790 -0.4604  0.5158
 4396TIP3    H234604   4.752   4.596  14.094 -2.1214 -0.6917  1.3641
 4397TIP3   OH234605   1.185   4.200   6.000  0.2059 -0.0093 -0.2252
 4397TIP3    H134606   1.264   4.238   6.036  0.8619 -0.8353 -0.7583
 4397TIP3    H234607   1.120   4.270   6.006  1.0734  0.8100 -0.1468
 4398TIP3   OH234608   2.198   1.668   4.425 -0.3096  0.0452 -0.0252
 4398TIP3    H134609   2.279   1.687   4.473  0.7776 -0.4976 -1.5411
 4398TIP3    H234610   2.174   1.580   4.453  0.0900 -0.1047 -0.1355
 4399TIP3   OH234611   4.707   1.662  11.709 -0.5210  0.2491  0.0472
 4399TIP3    H134612   4.769   1.658  11.781  0.7963 -0.4447 -1.0737
 4399TIP3    H234613   4.747   1.721  11.645 -0.6941 -0.6796 -0.9596
 4400TIP3   OH234614   6.357   1.675   4.709 -0.5154 -0.4048 -0.2809
 4400TIP3    H134615   6.358   1.742   4.641  0.1238  0.3203  0.4267
 4400TIP3    H234616   6.449   1.654   4.723 -0.7460 -2.2983 -1.3117
 4401TIP3   OH234617   1.652   5.896   3.370 -0.3387  0.1543 -0.6886
 4401TIP3    H134618   1.716   5.881   3.301 -0.9976  0.1692 -1.3200
 4401TIP3    H234619   1.612   5.981   3.347 -0.2242  0.3963 -0.0184
 4402TIP3   OH234620   2.959   0.978  17.178  0.0706  0.3958 -0.2010
 4402TIP3    H134621   2.869   0.963  17.207  0.3782 -1.7307 -0.2352
 4402TIP3    H234622   3.013   0.925  17.237  1.1935  0.5003 -1.1060
 4403TIP3   OH234623   6.185   0.557  13.481 -0.9510  0.1204 -0.5633
 4403TIP3    H134624   6.276   0.539  13.457 -0.0492  3.1291  0.1933
 4403TIP3    H234625   6.178   0.652  13.480 -3.7608  0.0279  0.6709
 4404TIP3   OH234626   4.714   0.791  16.488 -0.5346  0.2399  0.1691
 4404TIP3    H134627   4.713   0.833  16.402 -0.1776 -0.0103  0.0423
 4404TIP3    H234628   4.636   0.737  16.490  0.2879 -1.0239 -0.6307
 4405TIP3   OH234629   5.618   2.461   0.348  0.2886  0.2096 -0.2731
 4405TIP3    H134630   5.524   2.443   0.359  0.1863  0.3805 -0.8766
 4405TIP3    H234631   5.652   2.460   0.437  0.1637 -2.3503 -0.1594
 4406TIP3   OH234632   4.355   5.742  13.275  0.2982 -0.1611 -0.0032
 4406TIP3    H134633   4.371   5.835  13.260  0.6259 -0.4826 -1.8281
 4406TIP3    H234634   4.441   5.707  13.297  0.2647 -0.1387  0.1685
 4407TIP3   OH234635   1.919   6.645  13.694  0.2974 -0.0192 -0.3121
 4407TIP3    H134636   1.902   6.739  13.700 -1.2719 -0.3288  0.4765
 4407TIP3    H234637   1.878   6.608  13.771 -1.4019 -1.6542 -1.8953
 4408TIP3   OH234638   4.620   1.565   5.918  0.7483 -0.1370 -0.2363
 4408TIP3    H134639   4.621   1.505   5.844 -0.5289 -0.3583 -0.1050
 4408TIP3    H234640   4.542   1.540   5.968  0.7562  0.9724  0.3710
 4409TIP3   OH234641   5.799   1.421  12.791 -0.3844  0.3696 -0.1419
 4409TIP3    H134642   5.876   1.475  12.802 -0.5386  0.4627  0.5271
 4409TIP3    H234643   5.726   1.475  12.823 -0.8754  0.6486 -1.6415
 4410TIP3   OH234644   5.089   0.158   3.168 -0.4396  0.2900  0.0212
 4410TIP3    H134645   5.113   0.213   3.094  0.2438  0.8009  0.6087
 4410TIP3    H234646   5.161   0.168   3.230 -0.4281 -1.0637  0.2527
 4411TIP3   OH234647   6.590   2.518   0.617  0.2964  0.0366  0.0753
 4411TIP3    H134648   6.635   2.528   0.533 -0.9497  0.8302 -0.5272
 4411TIP3    H234649   6.655   2.541   0.683  0.4304  2.4583 -0.8234
 4412TIP3   OH234650   2.493   5.449   6.195  0.3851  0.4865 -0.4625
 4412TIP3    H134651   2.531   5.531   6.225 -1.9366  1.3191  0.4275
 4412TIP3    H234652   2.435   5.422   6.267  0.0800 -1.2409 -1.3031
 4413TIP3   OH234653   5.141   4.424   4.038  0.1770 -0.0939 -0.8377
 4413TIP3    H134654   5.232   4.440   4.015  0.3696 -1.1094 -0.8207
 4413TIP3    H234655   5.111   4.507   4.076  1.6492 -0.3386  0.9462
 4414TIP3   OH234656   2.877   5.758   4.919  0.0170 -0.0242  0.2688
 4414TIP3    H134657   2.828   5.687   4.878 -0.1965  0.8553 -1.0739
 4414TIP3    H234658   2.969   5.734   4.909 -0.0675 -0.3149  0.1902
 4415TIP3   OH234659   4.050   1.810  15.283  0.8345  0.0297  0.1688
 4415TIP3    H134660   4.046   1.865  15.361 -1.4146  0.6313 -0.2957
 4415TIP3    H234661   4.042   1.871  15.210 -0.4331 -0.7851 -0.3994
 4416TIP3   OH234662   5.136   2.381  13.693  0.3000  0.2229 -0.6994
 4416TIP3    H134663   5.091   2.419  13.618 -0.1978 -0.9155 -1.0009
 4416TIP3    H234664   5.067   2.353  13.752  0.6865  2.0491  0.7343
 4417TIP3   OH234665   2.645   1.051  17.237 -0.4096  0.3080  0.2925
 4417TIP3    H134666   2.591   1.061  17.159 -0.2395  1.0564  0.2587
 4417TIP3    H234667   2.583   1.026  17.306 -0.7395  0.7697  0.1682
 4418TIP3   OH234668   1.532   0.989   3.969  0.7623  0.0512  0.4869
 4418TIP3    H134669   1.441   1.014   3.951  0.7585 -0.3634 -0.0954
 4418TIP3    H234670   1.572   1.067   4.008 -0.2733 -0.2377  2.2712
 4419TIP3   OH234671   5.526   3.506  11.371  0.7245  0.0604  0.0477
 4419TIP3    H134672   5.562   3.483  11.286  1.4470  1.9410 -0.2117
 4419TIP3    H234673   5.449   3.560  11.352 -1.6030 -2.8066  0.6193
 4420TIP3   OH234674   5.320   2.641   2.452 -0.1920 -0.1178  0.3545
 4420TIP3    H134675   5.332   2.671   2.541 -0.0010  0.3414  0.1757
 4420TIP3    H234676   5.282   2.716   2.406 -0.3148 -0.3585  0.0589
 4421TIP3   OH234677   6.329   4.264   5.393  0.1756 -0.0958  0.3640
 4421TIP3    H134678   6.279   4.240   5.315  0.3020 -1.9550  0.8094
 4421TIP3    H234679   6.299   4.203   5.460 -0.2635  1.7340  1.9354
 4422TIP3   OH234680   2.090   6.455   1.003  0.3215 -0.4791 -0.3535
 4422TIP3    H134681   2.154   6.384   1.010  1.2234  0.2695 -0.8392
 4422TIP3    H234682   2.055   6.447   0.914 -0.4489 -1.0175 -0.0212
 4423TIP3   OH234683   3.898   3.720   6.316 -0.4766  0.0002  0.0121
 4423TIP3    H134684   3.980   3.695   6.273 -0.5425 -0.9167  0.4032
 4423TIP3    H234685   3.915   3.708   6.409 -0.5156  1.4568  0.2381
 4424TIP3   OH234686   2.995   4.180  12.724 -0.2417 -0.1498  0.4279
 4424TIP3    H134687   3.036   4.093  12.718  1.5049  0.7335 -2.6075
 4424TIP3    H234688   2.901   4.162  12.731  0.1429 -2.2408  1.0667
 4425TIP3   OH234689   0.140   3.563  11.356 -0.6147 -0.5435  0.3435
 4425TIP3    H134690   0.046   3.584  11.358 -0.9641 -2.0694  0.6159
 4425TIP3    H234691   0.181   3.643  11.322 -1.8945  0.5421  1.2566
 4426TIP3   OH234692   3.321   0.681   6.756  0.0865  0.0011  0.5759
 4426TIP3    H134693   3.277   0.701   6.673  0.5678  0.5612  0.4503
 4426TIP3    H234694   3.342   0.766   6.793  0.9450 -0.2511  0.6909
 4427TIP3   OH234695   2.158   2.856  15.098 -0.8628  0.1160 -0.5338
 4427TIP3    H134696   2.164   2.788  15.031 -1.7584 -0.8182  0.2923
 4427TIP3    H234697   2.145   2.808  15.180 -1.6653  1.2756  0.0522
 4428TIP3   OH234698   5.536   2.236  15.556 -0.0127 -0.5445  0.2672
 4428TIP3    H134699   5.568   2.176  15.624  0.6978 -0.0153  0.4097
 4428TIP3    H234700   5.502   2.311  15.604 -0.4505 -0.6058  0.0652
 4429TIP3   OH234701   3.750   4.681   3.519 -0.0987 -0.3794  0.0213
 4429TIP3    H134702   3.677   4.620   3.509 -0.3856 -0.2818  1.3157
 4429TIP3    H234703   3.722   4.760   3.473  0.2103 -1.1402 -1.5333
 4430TIP3   OH234704   4.469   0.739   5.110 -0.4451 -0.0672 -0.5649
 4430TIP3    H134705   4.447   0.666   5.168  0.7859 -0.6117 -0.7579
 4430TIP3    H234706   4.422   0.721   5.029 -1.1558  0.0339 -0.1847
 4431TIP3   OH234707   3.416   0.967   4.565  0.2365 -0.0838 -0.1606
 4431TIP3    H134708   3.395   1.056   4.537  1.4456  0.2096 -0.1896
 4431TIP3    H234709   3.375   0.911   4.499 -0.2845  0.4473 -0.3033
 4432TIP3   OH234710   1.083   3.078   2.825  0.2000 -0.0678 -0.2674
 4432TIP3    H134711   1.098   2.984   2.829 -0.6551 -0.2007  0.0436
 4432TIP3    H234712   1.042   3.093   2.740 -1.0389 -0.2049  0.2759
 4433TIP3   OH234713   3.070   1.975  14.587  0.4375  0.7772  0.1889
 4433TIP3    H134714   2.975   1.965  14.591  0.4819  0.1625 -0.2361
 4433TIP3    H234715   3.101   1.939  14.671  0.4764 -1.4075 -0.7014
 4434TIP3   OH234716   1.715   1.061  11.885  0.0846 -0.8015 -0.1312
 4434TIP3    H134717   1.794   1.013  11.859  1.0672 -0.1242  1.4029
 4434TIP3    H234718   1.739   1.153  11.876 -0.8715 -0.5884 -0.5581
 4435TIP3   OH234719   6.654   2.433  11.050  0.7303  0.1070 -0.1441
 4435TIP3    H134720   6.574   2.444  11.101 -1.4996 -2.7750 -2.7105
 4435TIP3    H234721   6.698   2.358  11.090  0.7579 -0.0112 -0.3963
 4436TIP3   OH234722   1.150   4.910   2.020 -0.9375 -0.7365  0.2436
 4436TIP3    H134723   1.178   4.989   2.064  0.6208 -1.6597  0.9692
 4436TIP3    H234724   1.097   4.941   1.946 -1.5183  0.9009  1.3058
 4437TIP3   OH234725   2.791   1.872  12.450 -0.1692 -0.3037 -0.2848
 4437TIP3    H134726   2.700   1.848  12.466 -0.7664  1.1914 -1.2193
 4437TIP3    H234727   2.842   1.804  12.493 -1.7176 -0.8205  0.7971
 4438TIP3   OH234728   1.970   0.020   0.512 -0.0189  0.0064  0.4186
 4438TIP3    H134729   2.057   0.059   0.513  0.4483 -1.0105  0.3504
 4438TIP3    H234730   1.920   0.072   0.449  0.1682  1.3596  1.3544
 4439TIP3   OH234731   6.389   2.698  12.636  0.7009  0.0124 -0.0863
 4439TIP3    H134732   6.324   2.679  12.568  0.8421 -1.0341  0.0440
 4439TIP3    H234733   6.389   2.793  12.644 -0.2525  0.0714 -0.6369
 4440TIP3   OH234734   2.499   5.763  14.587  0.5540  0.0511  0.1824
 4440TIP3    H134735   2.594   5.748  14.590  0.4211 -1.2611 -0.9827
 4440TIP3    H234736   2.463   5.693  14.641  0.2709  1.0216  1.2732
 4441TIP3   OH234737   5.624   6.011  14.241  0.4209 -0.5197 -0.0629
 4441TIP3    H134738   5.635   6.015  14.146 -1.0935  0.5632 -0.2337
 4441TIP3    H234739   5.571   5.933  14.256  0.8057 -0.7873 -0.0877
 4442TIP3   OH234740   3.523   6.226  12.250 -0.3965  0.6779 -0.0687
 4442TIP3    H134741   3.474   6.179  12.317  0.4358  2.2208  1.6991
 4442TIP3    H234742   3.456   6.267  12.196 -1.0767 -0.0476  0.2058
 4443TIP3   OH234743   0.197   4.946   3.096 -0.5059 -0.1569  0.2306
 4443TIP3    H134744   0.249   4.884   3.147  2.0882  1.8459  0.2625
 4443TIP3    H234745   0.241   4.949   3.011 -1.3675  0.6718 -0.2016
 4444TIP3   OH234746   3.103   5.965   1.909  0.4002 -0.5375  0.0230
 4444TIP3    H134747   3.096   5.927   1.822 -0.2906  1.6633 -0.9444
 4444TIP3    H234748   3.053   5.906   1.965  0.9234 -2.0305 -1.0121
 4445TIP3   OH234749   1.397   1.961   0.165 -0.0394 -0.2054  0.4512
 4445TIP3    H134750   1.399   2.020   0.089 -1.6493  0.2455  0.7193
 4445TIP3    H234751   1.304   1.949   0.183  0.3083 -0.9087  1.9079
 4446TIP3   OH234752   0.700   1.420  16.597  0.3752  0.0927 -0.4453
 4446TIP3    H134753   0.635   1.377  16.654  1.4951  0.1784  0.9609
 4446TIP3    H234754   0.684   1.514  16.609 -1.3255  0.1526 -2.6368
 4447TIP3   OH234755   4.863   4.925   0.085  0.2730  0.3553  0.0949
 4447TIP3    H134756   4.845   4.984   0.158 -1.3732  1.7562 -1.3375
 4447TIP3    H234757   4.788   4.866   0.082 -0.8502  1.7736 -1.7590
 4448TIP3   OH234758   0.655   6.298   2.978 -0.2076  0.5382  0.0283
 4448TIP3    H134759   0.684   6.268   3.064 -1.7966 -2.7804 -0.4199
 4448TIP3    H234760   0.735   6.316   2.930  0.7926 -0.1648  1.3671
 4449TIP3   OH234761   5.690   0.765   4.980 -0.2421 -1.1008 -1.2830
 4449TIP3    H134762   5.597   0.784   4.970  0.0746  0.3080 -1.6904
 4449TIP3    H234763   5.727   0.844   5.019  0.9300 -1.3138 -1.9105
 4450TIP3   OH234764   0.830   3.349  11.555  0.1752  0.0867  0.1575
 4450TIP3    H134765   0.789   3.429  11.588  0.9125  0.8825 -0.8026
 4450TIP3    H234766   0.892   3.323  11.624 -1.2685 -0.6515  1.2387
 4451TIP3   OH234767   5.046   5.459   1.229  0.4573 -0.1809  0.6692
 4451TIP3    H134768   5.081   5.534   1.277  0.4286  1.1337 -1.2498
 4451TIP3    H234769   5.120   5.429   1.175 -0.0119 -0.4764  0.1848
 4452TIP3   OH234770   3.037   5.228  11.198 -0.0609  0.0208 -0.0636
 4452TIP3    H134771   3.051   5.303  11.139  1.6598  0.1616  0.4613
 4452TIP3    H234772   3.088   5.157  11.159 -0.7475 -0.5570  0.0637
 4453TIP3   OH234773   5.129   5.966   5.367 -0.1239  0.6176  0.4703
 4453TIP3    H134774   5.061   6.019   5.410 -0.4587 -0.0644  0.7927
 4453TIP3    H234775   5.086   5.933   5.287 -0.2768 -0.0532  0.8222
 4454TIP3   OH234776   1.885   6.529  16.664 -0.3145 -0.0308 -0.2497
 4454TIP3    H134777   1.848   6.524  16.576  1.1263 -0.7050 -0.8538
 4454TIP3    H234778   1.815   6.501  16.722 -0.5480 -1.9482 -1.3930
 4455TIP3   OH234779   4.201   5.275  12.256 -0.3166  0.3142  0.3233
 4455TIP3    H134780   4.193   5.346  12.192  0.0150 -0.3115 -0.4254
 4455TIP3    H234781   4.245   5.205  12.209  2.1509  0.6872  1.9030
 4456TIP3   OH234782   2.494   4.858   5.372  0.4284 -0.0004  0.1036
 4456TIP3    H134783   2.587   4.864   5.352  0.0099  2.0192 -1.6721
 4456TIP3    H234784   2.454   4.825   5.291 -0.5475  1.0403  0.1274
 4457TIP3   OH234785   1.564   2.726   6.128  0.7217  0.3761 -0.5096
 4457TIP3    H134786   1.544   2.760   6.041 -0.1461 -1.0077 -0.8899
 4457TIP3    H234787   1.496   2.762   6.185  0.5207  0.2515 -0.6702
 4458TIP3   OH234788   4.329   4.480   2.510 -0.0109 -0.2570 -0.1106
 4458TIP3    H134789   4.385   4.556   2.526  0.9109 -0.9421  0.0428
 4458TIP3    H234790   4.260   4.487   2.576  0.5276  0.0263  0.4388
 4459TIP3   OH234791   4.893   6.363  16.476 -0.3776  0.4596  0.2553
 4459TIP3    H134792   4.921   6.338  16.388  0.0920  1.1165  0.2136
 4459TIP3    H234793   4.800   6.383  16.467 -0.3280  0.5374 -0.0927
 4460TIP3   OH234794   6.017   2.683   3.290  0.1404  0.3838  0.5290
 4460TIP3    H134795   5.964   2.629   3.349  0.1961 -1.0799 -0.7198
 4460TIP3    H234796   6.100   2.696   3.338 -0.2066  0.1175  1.2170
 4461TIP3   OH234797   0.901   1.500   5.520  0.5530 -0.0797 -0.6665
 4461TIP3    H134798   0.903   1.502   5.616  0.3954 -1.3292 -0.6196
 4461TIP3    H234799   0.911   1.592   5.494  1.1574  0.2192  0.5290
 4462TIP3   OH234800   2.880   4.228   2.376 -0.3783  0.2926  0.9624
 4462TIP3    H134801   2.825   4.306   2.365 -2.9268 -1.3638  1.2713
 4462TIP3    H234802   2.908   4.206   2.287 -0.4024  1.0090  0.7705
 4463TIP3   OH234803   0.367   5.072  14.806  0.3668  0.2373 -0.2273
 4463TIP3    H134804   0.328   4.987  14.783 -1.4199  0.8842  0.2632
 4463TIP3    H234805   0.430   5.089  14.737  0.5295 -1.3435 -0.5043
 4464TIP3   OH234806   1.208   1.828  13.119 -0.3957  0.1374  0.3040
 4464TIP3    H134807   1.281   1.890  13.120 -1.1929  1.1177  0.4845
 4464TIP3    H234808   1.231   1.764  13.053  0.1042  1.1001 -0.4798
 4465TIP3   OH234809   5.739   5.520   2.004  0.5821  0.3536  0.0067
 4465TIP3    H134810   5.654   5.482   2.028  0.3109 -0.0534 -1.5068
 4465TIP3    H234811   5.776   5.550   2.087 -0.1505 -1.2824  0.9676
 4466TIP3   OH234812   2.525   2.039  15.635  0.0710  0.5880 -0.2467
 4466TIP3    H134813   2.597   2.051  15.698  0.4147  1.0731 -0.7236
 4466TIP3    H234814   2.524   1.945  15.617 -0.0863  0.4309  0.5491
 4467TIP3   OH234815   2.249   1.928   4.732 -0.2021 -0.0340  0.0891
 4467TIP3    H134816   2.265   2.017   4.698  0.0774 -0.0749  0.1092
 4467TIP3    H234817   2.245   1.873   4.654 -1.5670  0.1707 -0.0020
 4468TIP3   OH234818   4.576   6.038  16.172 -0.2288  0.1779  0.1098
 4468TIP3    H134819   4.642   6.037  16.103 -1.3743  3.2691 -1.2245
 4468TIP3    H234820   4.516   5.966  16.150 -0.4598  0.9743 -2.0766
 4469TIP3   OH234821   5.147   4.210  16.829  0.2909  0.2413 -0.3557
 4469TIP3    H134822   5.167   4.178  16.741  0.8642 -0.1125 -0.1015
 4469TIP3    H234823   5.197   4.291  16.837 -0.1178  0.5100 -0.5182
 4470TIP3   OH234824   6.111   2.536   0.766 -0.3853  0.6725 -0.1985
 4470TIP3    H134825   6.185   2.506   0.713 -0.6923  0.8724 -0.7495
 4470TIP3    H234826   6.075   2.456   0.803  1.1296  0.7033  1.4682
 4471TIP3   OH234827   4.159   4.725  14.875  0.0779 -0.2365  0.2635
 4471TIP3    H134828   4.225   4.790  14.900  0.1421 -0.4448  0.6328
 4471TIP3    H234829   4.155   4.665  14.949 -0.3877 -0.3365  0.1607
 4472TIP3   OH234830   2.640   2.220   0.156  0.2997  0.0763 -0.1314
 4472TIP3    H134831   2.575   2.262   0.100  0.9008  0.9037 -0.2160
 4472TIP3    H234832   2.659   2.284   0.224  1.9729  0.3727 -0.8400
 4473TIP3   OH234833   0.650   3.024   1.538 -0.0352 -0.3816 -0.4045
 4473TIP3    H134834   0.619   3.115   1.534  0.5704 -0.1929 -0.9537
 4473TIP3    H234835   0.657   3.006   1.632  0.9260  0.5336 -0.2727
 4474TIP3   OH234836   3.383   3.817  12.289  0.1603 -0.0136  0.4594
 4474TIP3    H134837   3.350   3.835  12.201  0.8613 -2.3293 -0.3603
 4474TIP3    H234838   3.305   3.794  12.340 -0.3027  1.7571  0.6247
 4475TIP3   OH234839   1.729   4.501   5.119 -0.6255 -0.2710  0.4807
 4475TIP3    H134840   1.804   4.475   5.173 -0.4981 -0.4775  0.2116
 4475TIP3    H234841   1.697   4.582   5.158 -0.5926 -0.4668  0.9204
 4476TIP3   OH234842   0.438   0.499   6.621 -0.3718 -0.0882 -0.3302
 4476TIP3    H134843   0.462   0.577   6.671 -0.9984 -1.2377  1.8940
 4476TIP3    H234844   0.515   0.442   6.628 -1.2122 -1.1155  1.2454
 4477TIP3   OH234845   1.582   2.111  12.336  0.4398  0.0991  0.1166
 4477TIP3    H134846   1.540   2.189  12.297 -0.9167  0.3552  1.9295
 4477TIP3    H234847   1.584   2.047  12.265  2.0605  1.8985 -1.5884
 4478TIP3   OH234848   0.277   3.977   4.662  0.9129 -0.2069 -0.0361
 4478TIP3    H134849   0.239   4.032   4.593 -0.8736 -1.5896 -0.2199
 4478TIP3    H234850   0.210   3.973   4.730  1.9569 -0.2905  1.0176
 4479TIP3   OH234851   4.797   2.795   3.331  0.0164  0.2792  0.4677
 4479TIP3    H134852   4.739   2.871   3.325  1.0031  0.9649 -0.9973
 4479TIP3    H234853   4.788   2.765   3.421 -1.7996  0.9898  0.5600
 4480TIP3   OH234854   2.857   0.377   4.551 -0.6266 -0.4149  0.2334
 4480TIP3    H134855   2.913   0.388   4.628  1.3048 -0.5395 -1.0838
 4480TIP3    H234856   2.896   0.304   4.503 -0.1712  1.2489 -2.1408
 4481TIP3   OH234857   4.453   3.130  15.862 -0.0774 -0.3203  0.6536
 4481TIP3    H134858   4.359   3.116  15.869  0.0137 -1.6395 -0.3822
 4481TIP3    H234859   4.487   3.106  15.948 -0.6012 -0.5674  0.7951
 4482TIP3   OH234860   0.315   0.271   6.243  0.6248  0.5736 -0.5054
 4482TIP3    H134861   0.307   0.196   6.184  0.0837  0.3745 -0.1811
 4482TIP3    H234862   0.340   0.343   6.186 -0.3207  0.4821 -1.0540
 4483TIP3   OH234863   4.426   2.240   4.352  0.1249  0.8106  0.2370
 4483TIP3    H134864   4.406   2.333   4.365 -0.6072  0.6418  0.3401
 4483TIP3    H234865   4.369   2.212   4.281 -0.7550  0.0760  1.2024
 4484TIP3   OH234866   5.581   3.621   2.901 -0.2905  0.0454  0.5983
 4484TIP3    H134867   5.643   3.557   2.937  1.4880  1.1215 -0.4173
 4484TIP3    H234868   5.547   3.580   2.822 -0.4276 -0.2969  0.8298
 4485TIP3   OH234869   6.582   0.514   1.450  0.2980 -0.0939  0.2522
 4485TIP3    H134870   6.590   0.455   1.525 -0.1984 -0.5052 -0.0141
 4485TIP3    H234871   6.626   0.594   1.478  1.5328 -0.7962  0.3943
 4486TIP3   OH234872   3.457   6.326   2.676 -0.2437  0.1364 -0.2209
 4486TIP3    H134873   3.539   6.365   2.706  0.0240 -1.2971  1.0050
 4486TIP3    H234874   3.420   6.391   2.615  3.4239 -0.5923 -3.6089
 4487TIP3   OH234875   2.381   0.528   1.741 -0.6941  0.1660 -0.1195
 4487TIP3    H134876   2.353   0.545   1.830 -1.9225 -1.6993 -0.0938
 4487TIP3    H234877   2.306   0.485   1.699 -0.1603  0.9850 -2.0547
 4488TIP3   OH234878   4.502   2.445  13.006 -0.3484  0.1770  0.0816
 4488TIP3    H134879   4.431   2.456  12.942 -0.5733  2.6443  0.6663
 4488TIP3    H234880   4.456   2.421  13.087 -0.3846  0.5093  0.1577
 4489TIP3   OH234881   5.269   1.643   1.559 -0.3694 -0.1984  0.3217
 4489TIP3    H134882   5.256   1.707   1.630  0.4185 -0.2904  0.5484
 4489TIP3    H234883   5.359   1.656   1.531  0.0221 -1.6558  0.8143
 4490TIP3   OH234884   3.613   4.826  14.841 -0.6366 -0.1252  0.2247
 4490TIP3    H134885   3.669   4.858  14.770  0.6315 -1.8530  0.3674
 4490TIP3    H234886   3.570   4.749  14.803 -0.3937 -0.7179  1.1129
 4491TIP3   OH234887   3.736   6.618   2.925 -0.1579 -0.2098  0.0762
 4491TIP3    H134888   3.791   6.572   2.988 -0.4908  1.6113  1.7930
 4491TIP3    H234889   3.650   6.623   2.967 -0.7938 -0.2293 -1.1722
 4492TIP3   OH234890   1.183   5.485  11.881  0.0794 -0.4326  0.3659
 4492TIP3    H134891   1.182   5.396  11.846 -3.2386  0.1784 -1.4687
 4492TIP3    H234892   1.111   5.487  11.943 -1.1100  1.4151 -1.0005
 4493TIP3   OH234893   5.332   6.609  12.223 -0.0313 -0.1751  0.4771
 4493TIP3    H134894   5.370   6.528  12.188  0.1843  0.4352 -0.7661
 4493TIP3    H234895   5.238   6.597  12.214  0.0166 -0.0942 -0.1934
 4494TIP3   OH234896   1.505   5.193  13.147  0.1299 -0.0394  0.0073
 4494TIP3    H134897   1.558   5.189  13.067  3.2101  0.0026  1.8434
 4494TIP3    H234898   1.445   5.119  13.141  1.2980 -0.9151 -1.7221
 4495TIP3   OH234899   4.661   6.179   2.527  0.1714  0.0440  0.3289
 4495TIP3    H134900   4.734   6.130   2.563 -0.4571 -0.2554  1.2320
 4495TIP3    H234901   4.613   6.116   2.473 -0.0538 -0.0684  0.6563
 4496TIP3   OH234902   4.049   2.461  12.931  0.0777 -0.6138 -0.1575
 4496TIP3    H134903   4.139   2.489  12.914 -0.3509 -0.0238 -1.5630
 4496TIP3    H234904   4.031   2.491  13.020  0.8054  0.4877 -0.3709
 4497TIP3   OH234905   0.247   1.823  15.552 -0.6150  0.2769 -0.5078
 4497TIP3    H134906   0.316   1.878  15.589 -1.1250 -0.1790  1.2516
 4497TIP3    H234907   0.256   1.739  15.597 -2.4102  0.2748 -0.0543
 4498TIP3   OH234908   4.449   4.758   2.782  0.2649 -0.1645  0.2577
 4498TIP3    H134909   4.390   4.834   2.785  1.1655  0.5516  0.2045
 4498TIP3    H234910   4.474   4.751   2.690 -0.5211 -1.0950  0.1032
 4499TIP3   OH234911   1.909   2.187   2.388 -0.8278 -0.1910  0.0773
 4499TIP3    H134912   1.884   2.277   2.367  0.4779  0.2427  0.2991
 4499TIP3    H234913   1.967   2.161   2.317 -1.1391 -0.8416  0.0536
 4500TIP3   OH234914   3.094   3.054   4.114 -0.4441  0.3944  0.6091
 4500TIP3    H134915   3.188   3.062   4.130  0.2395 -1.4906 -1.9070
 4500TIP3    H234916   3.076   3.119   4.045 -0.3845 -0.9491 -0.7320
 4501TIP3   OH234917   1.260   3.944   2.712 -0.0404 -0.2494  0.9558
 4501TIP3    H134918   1.277   3.926   2.620  0.4609  0.7965  0.8300
 4501TIP3    H234919   1.178   3.899   2.731  0.0941 -0.8646  0.1327
 4502TIP3   OH234920   6.617   0.582   4.695 -0.2035  0.3663  0.3511
 4502TIP3    H134921   6.649   0.495   4.718  0.1571  0.1872 -0.7634
 4502TIP3    H234922   6.587   0.619   4.778 -0.6320 -0.9240  0.8034
 4503TIP3   OH234923   0.185   4.662  11.875  0.1500  0.0247  0.3066
 4503TIP3    H134924   0.175   4.686  11.967 -0.0469  1.2090  0.0019
 4503TIP3    H234925   0.217   4.743  11.833 -2.3406  0.3598 -1.1160
 4504TIP3   OH234926   5.752   3.953  14.423  0.2430 -0.2493  0.1645
 4504TIP3    H134927   5.813   3.963  14.497 -0.1304  1.3041  0.2984
 4504TIP3    H234928   5.707   4.038  14.418 -1.3342 -1.0849 -0.4395
 4505TIP3   OH234929   2.765   1.452   5.685  0.2411 -0.2270 -0.2549
 4505TIP3    H134930   2.725   1.425   5.767 -0.3430 -0.0963 -0.4941
 4505TIP3    H234931   2.720   1.401   5.618 -1.5680  1.9519 -0.8240
 4506TIP3   OH234932   2.907   6.238   5.365 -0.1142 -0.0942  0.3438
 4506TIP3    H134933   2.874   6.190   5.289  1.6277  1.1931 -1.3214
 4506TIP3    H234934   2.982   6.187   5.395 -0.0438  0.0378  0.3953
 4507TIP3   OH234935   3.385   2.595   5.154  0.3906 -0.0068  0.5768
 4507TIP3    H134936   3.395   2.510   5.197  0.6372  0.6751  1.9576
 4507TIP3    H234937   3.309   2.634   5.197 -0.4153  0.0366 -0.8357
 4508TIP3   OH234938   3.434   3.858   5.564  0.7700 -0.0013  0.6743
 4508TIP3    H134939   3.367   3.814   5.511  0.4753  1.3690 -0.1365
 4508TIP3    H234940   3.384   3.908   5.628  1.0373  0.3566  0.6067
 4509TIP3   OH234941   5.978   2.765  14.847  0.1142  0.0547  0.2176
 4509TIP3    H134942   5.910   2.701  14.868  1.5231 -1.6503 -0.1969
 4509TIP3    H234943   6.000   2.805  14.932 -3.5614  3.1004  0.0280
 4510TIP3   OH234944   4.890   1.682  13.132  0.0537 -0.2241  0.0917
 4510TIP3    H134945   4.980   1.715  13.131  0.4684 -1.2947  0.3241
 4510TIP3    H234946   4.874   1.659  13.224 -1.4041  2.3560  0.5789
 4511TIP3   OH234947   2.597   2.265  17.102  0.9159  0.8071  0.1006
 4511TIP3    H134948   2.607   2.249  17.008  1.2111  2.6430 -0.2167
 4511TIP3    H234949   2.685   2.284  17.133  0.8013  0.3284  0.7454
 4512TIP3   OH234950   0.275   5.098   0.803  0.6397 -0.6749 -0.7667
 4512TIP3    H134951   0.244   5.138   0.721  2.3787  1.4061 -0.4864
 4512TIP3    H234952   0.197   5.094   0.858 -0.2729 -0.8293 -2.0121
 4513TIP3   OH234953   3.944   3.837   0.306 -1.2646 -0.5257 -1.0693
 4513TIP3    H134954   3.964   3.769   0.242  0.1446 -0.1499 -1.0566
 4513TIP3    H234955   3.988   3.915   0.272 -0.9142 -0.1960  0.1073
 4514TIP3   OH234956   3.666   2.893   0.520  0.2602  0.0752  0.1028
 4514TIP3    H134957   3.638   2.901   0.611 -0.6024  0.8855 -0.2088
 4514TIP3    H234958   3.632   2.808   0.492 -0.2884  0.2285  0.2803
 4515TIP3   OH234959   0.807   5.439   0.431  0.4686  0.2208 -0.2016
 4515TIP3    H134960   0.871   5.510   0.439  0.9150  0.0136 -1.7171
 4515TIP3    H234961   0.761   5.439   0.515  0.6104  2.1523 -0.0796
 4516TIP3   OH234962   4.785   4.095  15.814  0.5421  0.3449 -0.5032
 4516TIP3    H134963   4.827   4.161  15.759  1.1347  0.1859 -0.2518
 4516TIP3    H234964   4.784   4.016  15.760  1.5750  0.0528 -0.1335
 4517TIP3   OH234965   5.363   0.788   0.292 -0.2848 -0.0905 -0.7442
 4517TIP3    H134966   5.442   0.772   0.241 -0.0823  1.4160 -0.9581
 4517TIP3    H234967   5.301   0.721   0.262  0.5308 -0.5675 -1.4021
 4518TIP3   OH234968   1.967   4.089   0.046  0.0753 -0.1953  0.0304
 4518TIP3    H134969   1.965   3.994   0.033  0.2331 -0.0283 -1.3348
 4518TIP3    H234970   1.876   4.111   0.069  0.2184 -0.7714  1.2398
 4519TIP3   OH234971   5.316   1.126  17.090  0.2776 -1.3087 -0.2715
 4519TIP3    H134972   5.239   1.175  17.061  1.4312  0.0032 -1.3101
 4519TIP3    H234973   5.321   1.142  17.184  0.0495 -0.2453 -0.4242
 4520TIP3   OH234974   4.715   1.162   5.824  0.5039 -0.1715  0.3943
 4520TIP3    H134975   4.642   1.208   5.784  1.0252  0.8383  0.5775
 4520TIP3    H234976   4.715   1.076   5.782 -0.6152 -0.0907  0.2043
 4521TIP3   OH234977   1.202   5.205   1.250 -0.0103 -0.9485 -0.1350
 4521TIP3    H134978   1.285   5.242   1.223  0.7400 -0.9211  2.0319
 4521TIP3    H234979   1.144   5.280   1.263  0.6516 -0.6886  1.5075
 4522TIP3   OH234980   1.615   1.314  12.313 -0.4472 -0.5386 -0.1604
 4522TIP3    H134981   1.595   1.379  12.380  0.6890 -0.5721  0.2312
 4522TIP3    H234982   1.591   1.230  12.353 -1.3855 -0.4274 -0.4573
 4523TIP3   OH234983   1.543   6.455   3.602 -0.0822  0.6872  0.1643
 4523TIP3    H134984   1.463   6.508   3.613 -0.4516  0.1711 -0.0299
 4523TIP3    H234985   1.614   6.519   3.609 -0.4488  0.9510  1.7338
 4524TIP3   OH234986   0.288   0.883  14.466  0.5413  0.3534 -0.3584
 4524TIP3    H134987   0.256   0.966  14.501  1.1518  1.5641 -2.4551
 4524TIP3    H234988   0.209   0.832  14.447  0.1831  0.0832  1.6697
 4525TIP3   OH234989   5.938   2.243  16.429 -0.4158 -0.4879 -0.2638
 4525TIP3    H134990   5.918   2.307  16.497 -1.7670 -1.6248  0.4456
 4525TIP3    H234991   6.012   2.281  16.382  0.4305  0.4315  1.6981
 4526TIP3   OH234992   3.215   3.187  10.490  0.0188 -0.0788  0.0094
 4526TIP3    H134993   3.282   3.161  10.553 -2.2291 -4.0224  1.0963
 4526TIP3    H234994   3.136   3.200  10.542 -1.3067 -0.8903 -1.6992
 4527TIP3   OH234995   2.213   4.632  12.998  0.2936  0.0013 -0.0260
 4527TIP3    H134996   2.241   4.714  13.038 -0.7015  0.2747  0.1364
 4527TIP3    H234997   2.258   4.564  13.049  2.1536  0.4368 -0.9726
 4528TIP3   OH234998   0.266   0.947   0.483 -0.0005  0.2391 -0.0825
 4528TIP3    H134999   0.315   1.029   0.495  1.0529 -0.1294 -1.4970
 4528TIP3    H235000   0.241   0.948   0.391 -3.0330  0.5469  0.6434
 4529TIP3   OH235001   4.122   4.943  12.982 -0.1419 -0.3397 -0.2810
 4529TIP3    H135002   4.030   4.943  12.956  0.0399  0.8294 -0.9987
 4529TIP3    H235003   4.171   4.942  12.900  0.4514  1.6782  0.0032
 4530TIP3   OH235004   2.255   6.779  14.990  0.1758  0.8601  0.3100
 4530TIP3    H135005   2.174   6.733  14.968  0.6509  0.5099 -0.7455
 4530TIP3    H235006   2.319   6.709  15.002 -0.1089  0.9608  3.3336
 4531TIP3   OH235007   1.452   5.646   4.406  0.1154  0.1997  0.2655
 4531TIP3    H135008   1.497   5.719   4.362  0.8082 -0.1580  0.3711
 4531TIP3    H235009   1.436   5.678   4.495  1.9676 -0.3652  0.8572
 4532TIP3   OH235010   5.349   4.277   4.578  0.2136  0.8525 -0.4352
 4532TIP3    H135011   5.305   4.196   4.553  1.1909  0.2600 -0.2625
 4532TIP3    H235012   5.435   4.249   4.611  0.5909  1.9603 -0.4457
 4533TIP3   OH235013   1.440   0.856  12.730 -0.3943  0.6819 -0.0994
 4533TIP3    H135014   1.399   0.773  12.750  1.5242 -0.5280 -0.8623
 4533TIP3    H235015   1.376   0.922  12.755 -1.8950 -1.0090  0.6910
 4534TIP3   OH235016   0.544   5.901  12.425 -0.7471 -0.2609  0.0983
 4534TIP3    H135017   0.623   5.848  12.424  0.4556  1.3559 -2.8467
 4534TIP3    H235018   0.570   5.982  12.467 -0.3695  0.7682 -1.9897
 4535TIP3   OH235019   2.283   1.990  12.142 -0.2189  0.4427  0.3732
 4535TIP3    H135020   2.318   1.957  12.224  0.7858 -0.8055 -0.5156
 4535TIP3    H235021   2.275   2.084  12.155  2.7360  0.7023  0.9280
 4536TIP3   OH235022   5.363   5.545  12.112  0.2953  0.3841  0.1740
 4536TIP3    H135023   5.333   5.464  12.153 -0.1702 -0.3826 -1.5849
 4536TIP3    H235024   5.432   5.517  12.052  1.1745  1.5131  0.6136
 4537TIP3   OH235025   1.667   4.428  16.010  0.5247 -0.0365 -0.4133
 4537TIP3    H135026   1.624   4.368  16.071  0.5427  1.5210  1.2003
 4537TIP3    H235027   1.608   4.430  15.934 -1.7680  1.1245  1.2507
 4538TIP3   OH235028   0.034   2.790   0.035  0.1206  0.4749 -0.5803
 4538TIP3    H135029   0.122   2.799   0.072  0.8704 -1.4079 -1.7199
 4538TIP3    H235030   0.039   2.710  -0.018 -2.0819  0.7350 -1.2787
 4539TIP3   OH235031   2.214   2.832   5.510 -0.9102  0.2704  0.0983
 4539TIP3    H135032   2.185   2.778   5.437 -0.8562  2.4512 -1.6249
 4539TIP3    H235033   2.153   2.904   5.514 -0.0046  1.0261  1.2259
 4540TIP3   OH235034   2.221   4.400   6.273 -0.2676 -0.1695  0.3000
 4540TIP3    H135035   2.149   4.386   6.335  2.1639 -2.3903  2.8622
 4540TIP3    H235036   2.265   4.479   6.306 -0.7978  0.4917 -0.5470
 4541TIP3   OH235037   5.087   2.295   4.763 -0.2920 -0.2550  0.2596
 4541TIP3    H135038   5.149   2.311   4.692  1.6534  0.5518  2.0302
 4541TIP3    H235039   5.014   2.248   4.722  1.3362 -0.9688 -1.9866
 4542TIP3   OH235040   6.352   4.554   4.512  0.1230  0.3249  0.9023
 4542TIP3    H135041   6.412   4.597   4.573 -0.0857  0.0128  1.3376
 4542TIP3    H235042   6.404   4.539   4.433  1.2139 -1.6931  1.9396
 4543TIP3   OH235043   3.585   4.878  12.781 -0.3838  0.4521 -0.4207
 4543TIP3    H135044   3.620   4.865  12.693 -2.6891 -2.7045 -1.0382
 4543TIP3    H235045   3.496   4.911  12.767 -1.0927 -0.9219  0.6217
 4544TIP3   OH235046   1.740   1.504  14.053 -0.5811 -0.2151 -0.6183
 4544TIP3    H135047   1.715   1.592  14.079 -1.1687  0.4006 -2.9747
 4544TIP3    H235048   1.699   1.446  14.118 -0.0899  1.2183  1.0256
 4545TIP3   OH235049   3.333   6.752  13.505 -0.1274  0.1212  0.1823
 4545TIP3    H135050   3.253   6.721  13.463 -0.0366  0.1142  0.0131
 4545TIP3    H235051   3.401   6.692  13.476  0.0598  0.5119 -0.1959
 4546TIP3   OH235052   0.752   2.397  16.285  0.4941  0.1391  0.1260
 4546TIP3    H135053   0.842   2.407  16.252  0.3856 -0.3111 -0.3166
 4546TIP3    H235054   0.734   2.479  16.331  1.5523 -0.2323  1.2413
 4547TIP3   OH235055   5.471   3.890  14.511  0.8507 -0.1699 -0.2039
 4547TIP3    H135056   5.399   3.827  14.508  0.1656  0.6142 -0.6272
 4547TIP3    H235057   5.545   3.843  14.473  0.4086 -0.7867 -0.3268
 4548TIP3   OH235058   4.987   1.895  16.190  0.0381 -0.0533  0.3127
 4548TIP3    H135059   5.053   1.889  16.121 -1.8971  0.9271 -1.7373
 4548TIP3    H235060   4.954   1.805  16.199 -0.4215 -0.0094 -0.8234
 4549TIP3   OH235061   6.620   5.377   5.234 -0.4827  0.0692  0.0414
 4549TIP3    H135062   6.702   5.403   5.276 -0.1601  0.0663 -0.5690
 4549TIP3    H235063   6.583   5.458   5.200 -0.5134  0.0112 -0.0656
 4550TIP3   OH235064   4.923   0.617  16.241  0.6258 -0.2697  0.3370
 4550TIP3    H135065   4.892   0.544  16.187 -0.9931  0.3809  0.3484
 4550TIP3    H235066   4.859   0.687  16.226  1.1550  0.5419  1.7168
 4551TIP3   OH235067   3.563   1.734  12.497 -0.1218  0.4380  0.0032
 4551TIP3    H135068   3.528   1.822  12.486  0.4499  0.6496 -0.1454
 4551TIP3    H235069   3.589   1.707  12.409 -0.7747 -0.0875 -0.0345
 4552TIP3   OH235070   1.772   3.280  14.197  0.4698  0.2099  0.0661
 4552TIP3    H135071   1.741   3.227  14.123  0.3752 -0.3316  0.4868
 4552TIP3    H235072   1.697   3.335  14.220  0.3495  0.0518  0.0542
 4553TIP3   OH235073   5.018   0.334   4.732 -0.4083 -0.8354  0.0023
 4553TIP3    H135074   5.086   0.361   4.793 -0.1853 -1.0778 -0.1383
 4553TIP3    H235075   4.939   0.381   4.761  0.3484  1.3895 -1.3155
 4554TIP3   OH235076   4.300   3.419  11.388 -0.3735  0.3419  0.2848
 4554TIP3    H135077   4.274   3.410  11.480  0.6254 -0.9237  0.4689
 4554TIP3    H235078   4.285   3.332  11.351  2.7484 -0.3029  0.2287
 4555TIP3   OH235079   2.225   3.443  16.145 -0.1752  0.3742  0.1189
 4555TIP3    H135080   2.194   3.441  16.236 -2.3760  2.1879 -0.5014
 4555TIP3    H235081   2.163   3.387  16.098 -0.9153  1.8206 -0.6983
 4556TIP3   OH235082   3.793   0.986  14.618 -0.3668 -0.0568 -0.0569
 4556TIP3    H135083   3.747   1.039  14.552  1.0500  1.6456  0.2201
 4556TIP3    H235084   3.734   0.914  14.637 -1.1453 -0.2195 -2.6608
 4557TIP3   OH235085   6.749   4.473   4.484 -0.2689 -0.5745 -0.0601
 4557TIP3    H135086   6.822   4.535   4.479 -0.7458  0.0287  0.2667
 4557TIP3    H235087   6.790   4.389   4.500  0.3845 -0.3192 -0.3320
 4558TIP3   OH235088   5.081   5.687   3.718 -0.5637 -0.1254 -0.5357
 4558TIP3    H135089   5.141   5.621   3.685 -0.4223  0.1153 -0.7696
 4558TIP3    H235090   5.065   5.663   3.809  0.2659  0.0721 -0.3302
 4559TIP3   OH235091   2.790   2.877  15.738 -0.1876  0.0136  0.3403
 4559TIP3    H135092   2.770   2.970  15.729 -3.1854 -0.3921  1.7048
 4559TIP3    H235093   2.847   2.857  15.664 -0.8504  2.5621 -0.9367
 4560TIP3   OH235094   0.450   4.840  15.262 -0.4775 -0.2055  0.0388
 4560TIP3    H135095   0.435   4.753  15.226 -1.7887  0.2085 -0.4675
 4560TIP3    H235096   0.522   4.828  15.323 -2.5947 -2.3039  2.3422
 4561TIP3   OH235097   3.045   6.288   0.711 -0.1936  0.2974 -0.1389
 4561TIP3    H135098   3.075   6.266   0.799  1.3333  1.7814 -0.2273
 4561TIP3    H235099   2.990   6.215   0.685  0.8958 -1.1008  1.3007
 4562TIP3   OH235100   5.796   4.560  16.619 -0.3576 -0.2301  0.2752
 4562TIP3    H135101   5.883   4.529  16.646 -0.3095  1.1755  1.8890
 4562TIP3    H235102   5.802   4.568  16.524  1.0934 -0.7221  0.2983
 4563TIP3   OH235103   4.309   6.665   1.180 -0.2903  0.2373 -0.2258
 4563TIP3    H135104   4.260   6.595   1.137  0.2109  0.3333 -0.9682
 4563TIP3    H235105   4.242   6.722   1.218 -0.7004 -1.1324  1.2029
 4564TIP3   OH235106   6.657   6.666   1.321 -0.1415 -0.3342 -0.1643
 4564TIP3    H135107   6.572   6.652   1.278  0.6185 -0.5927 -1.6442
 4564TIP3    H235108   6.693   6.578   1.332  0.6179 -0.1590 -1.0463
 4565TIP3   OH235109   0.356   2.555   0.023  0.0625  0.2171  0.1506
 4565TIP3    H135110   0.381   2.619  -0.043  2.1788 -0.4013  0.2846
 4565TIP3    H235111   0.366   2.470  -0.020 -0.1193 -0.1338  0.7756
 4566TIP3   OH235112   0.388   3.458  10.613  0.7648 -0.1898 -0.6281
 4566TIP3    H135113   0.398   3.553  10.603 -0.2057  0.1035  0.8999
 4566TIP3    H235114   0.477   3.425  10.616  1.1587  0.8904  0.4540
 4567TIP3   OH235115   3.083   1.519   0.422 -0.0930 -0.4192 -0.6085
 4567TIP3    H135116   3.017   1.520   0.352 -1.6982  0.4499  0.8398
 4567TIP3    H235117   3.054   1.448   0.480  0.6651 -0.4847 -0.3042
 4568TIP3   OH235118   2.803   2.518  15.753  0.0200  0.2549  0.2802
 4568TIP3    H135119   2.735   2.575  15.718  0.0828 -0.3998 -0.9635
 4568TIP3    H235120   2.774   2.497  15.842 -1.6300 -0.3591 -0.3649
 4569TIP3   OH235121   3.990   0.391   0.630  0.1318 -0.2597 -0.1106
 4569TIP3    H135122   3.946   0.457   0.577 -2.3708  0.5026  2.6634
 4569TIP3    H235123   4.077   0.429   0.647 -0.5640  1.4819 -0.1648
 4570TIP3   OH235124   1.772   4.187  14.487 -0.1754  0.7639 -0.4498
 4570TIP3    H135125   1.820   4.193  14.405  0.4152 -2.6639 -0.4725
 4570TIP3    H235126   1.680   4.198  14.463  0.0319  0.2255 -1.5220
 4571TIP3   OH235127   4.146   6.059   0.191  0.2084  0.4439 -0.1725
 4571TIP3    H135128   4.212   6.082   0.256  0.7290  2.2604 -1.2638
 4571TIP3    H235129   4.100   6.141   0.174 -1.3519 -0.4741 -0.5275
 4572TIP3   OH235130   2.812   6.642  12.703  0.3742  0.4217  0.0597
 4572TIP3    H135131   2.816   6.565  12.760  0.5218 -0.5211 -1.1632
 4572TIP3    H235132   2.897   6.685  12.714  0.4561  0.1648  0.4359
 4573TIP3   OH235133   3.798   2.346   0.294  0.1755 -0.0033 -0.0789
 4573TIP3    H135134   3.721   2.299   0.325 -0.3793  0.4138 -0.7876
 4573TIP3    H235135   3.851   2.279   0.251 -0.1868 -0.1466 -0.3109
 4574TIP3   OH235136   6.304   6.528   4.446  1.1917  0.6903  0.5011
 4574TIP3    H135137   6.368   6.514   4.376  0.2113 -0.8526 -0.1466
 4574TIP3    H235138   6.352   6.505   4.526  2.1016  1.7626  0.2958
 4575TIP3   OH235139   3.615   1.604  12.225 -0.1234 -0.3427 -0.3088
 4575TIP3    H135140   3.577   1.536  12.168  0.2931 -1.6514  0.9170
 4575TIP3    H235141   3.577   1.686  12.193 -2.2219 -1.3526 -0.5803
 4576TIP3   OH235142   3.189   6.118  14.881 -0.6927  0.7332 -0.1820
 4576TIP3    H135143   3.257   6.128  14.948 -1.7139 -0.9986  1.2196
 4576TIP3    H235144   3.162   6.026  14.888 -2.1431  0.9860 -1.7244
 4577TIP3   OH235145   3.996   4.179  11.408  0.0399 -0.1160  0.0408
 4577TIP3    H135146   3.907   4.191  11.442  0.3969  0.1443  0.9105
 4577TIP3    H235147   4.007   4.084  11.403 -0.6200 -0.1524 -0.9998
 4578TIP3   OH235148   6.453   0.666   4.920  0.3568 -0.3577 -0.5069
 4578TIP3    H135149   6.385   0.732   4.906  0.2691 -0.3861 -0.2228
 4578TIP3    H235150   6.407   0.592   4.959  0.5104 -0.4663 -0.5313
 4579TIP3   OH235151   4.154   4.447  14.033  0.2284  0.3206 -0.2734
 4579TIP3    H135152   4.110   4.515  13.982  1.2801  1.2917  0.0791
 4579TIP3    H235153   4.103   4.442  14.114  0.6816  1.3736  0.0944
 4580TIP3   OH235154   4.718   3.535  16.309  0.1512 -0.1808 -0.1102
 4580TIP3    H135155   4.746   3.530  16.400  2.0141  0.0099 -0.6414
 4580TIP3    H235156   4.625   3.558  16.314  0.1061 -0.6104  1.7311
 4581TIP3   OH235157   4.223   1.487  11.037  0.0852 -0.2828 -0.8725
 4581TIP3    H135158   4.257   1.441  10.961  0.2329  0.4676 -1.2772
 4581TIP3    H235159   4.135   1.514  11.011  0.2593  0.2642 -0.9089
 4582TIP3   OH235160   5.581   2.752   4.519  0.1744  0.2126  0.1317
 4582TIP3    H135161   5.490   2.728   4.538 -0.4937  1.0414 -1.8056
 4582TIP3    H235162   5.604   2.701   4.442  1.7278 -0.7001  1.1292
 4583TIP3   OH235163   6.501   1.560  12.567 -0.7908  0.0986  0.4471
 4583TIP3    H135164   6.564   1.529  12.633 -0.1700 -0.1291 -0.2369
 4583TIP3    H235165   6.444   1.485  12.551 -0.9053  0.1352  0.6820
 4584TIP3   OH235166   5.456   4.124   5.589  0.1551 -1.1378  0.1212
 4584TIP3    H135167   5.394   4.170   5.646 -0.0944 -0.7396 -0.4601
 4584TIP3    H235168   5.495   4.057   5.645 -1.0699 -1.6384  0.3981
 4585TIP3   OH235169   5.515   2.980   3.940  0.2002  0.1637  0.4900
 4585TIP3    H135170   5.531   2.890   3.970  0.1626 -0.2699 -0.7212
 4585TIP3    H235171   5.598   3.025   3.956 -0.3703  0.5036  2.9533
 4586TIP3   OH235172   2.952   2.070  10.736 -0.4242  0.4277  0.2918
 4586TIP3    H135173   2.876   2.012  10.736  0.1634 -0.3620 -0.6123
 4586TIP3    H235174   2.984   2.067  10.826 -1.3666  0.6513  0.6473
 4587TIP3   OH235175   0.100   2.276  15.896 -0.0237  0.8138  0.5728
 4587TIP3    H135176   0.172   2.266  15.958  0.8029  0.8930 -0.3499
 4587TIP3    H235177   0.093   2.191  15.853  1.1630  1.4988 -1.0584
 4588TIP3   OH235178   5.031   6.236  16.249 -0.3435  0.1267 -0.0722
 4588TIP3    H135179   5.082   6.179  16.307  2.5266  1.9745 -0.5687
 4588TIP3    H235180   5.011   6.180  16.173  1.3233 -0.6258 -0.0089
 4589TIP3   OH235181   6.396   3.001  11.740  0.3415  0.2159 -0.0730
 4589TIP3    H135182   6.464   2.958  11.792  2.1477  1.1649 -1.5337
 4589TIP3    H235183   6.315   2.988  11.791  1.2815 -2.3343  0.9394
 4590TIP3   OH235184   0.670   0.090  11.897  0.1595  0.1470  0.0352
 4590TIP3    H135185   0.682   0.107  11.991  0.9640 -0.1878 -0.0000
 4590TIP3    H235186   0.694   0.171  11.854 -0.1451  0.2791  0.1051
 4591TIP3   OH235187   0.105   1.940  11.012  0.4404 -0.5825  0.6863
 4591TIP3    H135188   0.092   1.980  10.926  0.1284 -0.0710  0.9715
 4591TIP3    H235189   0.194   1.904  11.007  1.3353  1.4820  0.9461
 4592TIP3   OH235190   4.647   4.277  13.596  0.2934  0.3992 -0.0152
 4592TIP3    H135191   4.718   4.213  13.594  0.1666  0.2457  0.2463
 4592TIP3    H235192   4.624   4.284  13.689  0.5456  1.0942  0.0013
 4593TIP3   OH235193   4.387   3.736  11.235  0.3320  0.2061 -0.2421
 4593TIP3    H135194   4.398   3.827  11.210 -2.6880  0.7612  0.0806
 4593TIP3    H235195   4.468   3.713  11.282  1.2413  2.6137 -0.5271
 4594TIP3   OH235196   0.635   3.433  15.408  1.0592 -0.1889  0.1455
 4594TIP3    H135197   0.710   3.458  15.462  0.3191  0.8725  0.7273
 4594TIP3    H235198   0.671   3.423  15.320  2.0019 -0.3966  0.5426
 4595TIP3   OH235199   0.296   0.971   4.227  0.3435 -0.0103 -0.4656
 4595TIP3    H135200   0.255   0.932   4.305  1.4626 -0.8838 -0.2883
 4595TIP3    H235201   0.224   1.013   4.180 -0.3178  0.8285  1.2090
 4596TIP3   OH235202   1.985   1.328  13.408 -0.6217  0.2508 -0.0805
 4596TIP3    H135203   1.948   1.406  13.450 -0.4029  0.2737  0.0723
 4596TIP3    H235204   1.913   1.265  13.408 -1.1470  0.8298 -1.2280
 4597TIP3   OH235205   3.239   2.732  16.172  0.4606  0.2772 -0.5109
 4597TIP3    H135206   3.188   2.812  16.177  0.0449 -0.0036 -0.1579
 4597TIP3    H235207   3.220   2.686  16.255 -0.0151 -0.5986 -1.0833
 4598TIP3   OH235208   2.547   0.571   1.535 -0.1870  0.0861 -0.9909
 4598TIP3    H135209   2.495   0.558   1.614  1.2777  1.4240  0.2659
 4598TIP3    H235210   2.629   0.526   1.552  0.9653  2.1316 -0.8012
 4599TIP3   OH235211   0.630   5.404   0.222  0.5797  0.2039 -0.6456
 4599TIP3    H135212   0.679   5.422   0.142  0.1504 -2.2046 -1.5415
 4599TIP3    H235213   0.696   5.386   0.288  0.9187  0.4025 -0.9295
 4600TIP3   OH235214   2.424   1.643  16.929 -0.0264  0.1432 -0.0828
 4600TIP3    H135215   2.403   1.619  16.839  0.5841  0.8576 -0.4342
 4600TIP3    H235216   2.370   1.720  16.947  0.7733  0.7699 -0.2933
 4601TIP3   OH235217   6.449   5.986  14.213 -0.0750 -0.0572 -0.0201
 4601TIP3    H135218   6.375   6.004  14.155 -0.2112 -0.3812  0.0493
 4601TIP3    H235219   6.430   6.037  14.292 -1.3728 -1.8099  0.8952
 4602TIP3   OH235220   6.313   0.499   5.359 -0.5520 -0.1271 -0.0875
 4602TIP3    H135221   6.276   0.578   5.397 -0.9159 -0.5994  0.5673
 4602TIP3    H235222   6.238   0.440   5.350  0.2120 -1.7021  2.7445
 4603TIP3   OH235223   3.365   2.209  14.194  0.0339  0.4222  0.1490
 4603TIP3    H135224   3.272   2.189  14.184  0.4975 -2.3812  0.5608
 4603TIP3    H235225   3.385   2.186  14.285  0.8875  2.2191  0.4491
 4604TIP3   OH235226   3.428   6.045  12.480 -0.1623  0.0127 -0.5698
 4604TIP3    H135227   3.358   5.980  12.476 -0.6869  0.6309 -1.9823
 4604TIP3    H235228   3.383   6.129  12.475  0.6671  0.4171 -1.7197
 4605TIP3   OH235229   1.640   0.333   2.519  0.1377 -0.1493  0.0964
 4605TIP3    H135230   1.597   0.411   2.484 -0.3077 -0.7157 -0.6408
 4605TIP3    H235231   1.641   0.346   2.613 -0.4679  0.4735  0.0215
 4606TIP3   OH235232   2.363   6.120   5.558  0.1928  0.2018  0.3174
 4606TIP3    H135233   2.401   6.070   5.486  0.3874  0.8035  0.0030
 4606TIP3    H235234   2.431   6.122   5.625  0.4033  0.5452  0.0954
 4607TIP3   OH235235   1.874   5.037  15.884  0.0162  0.1649  0.2966
 4607TIP3    H135236   1.965   5.061  15.866  0.4741  0.2949  2.4709
 4607TIP3    H235237   1.822   5.093  15.826  1.2115  3.0363  1.8086
 4608TIP3   OH235238   5.126   0.760   0.711 -0.2445 -0.8164  0.1899
 4608TIP3    H135239   5.167   0.700   0.773 -0.3662 -2.1039 -0.9229
 4608TIP3    H235240   5.101   0.704   0.637 -2.7328  0.1472  0.2107
 4609TIP3   OH235241   2.730   1.704  12.127 -0.1012 -0.0566  0.2050
 4609TIP3    H135242   2.704   1.649  12.200  0.1293  1.0979  1.1864
 4609TIP3    H235243   2.719   1.648  12.050  0.8989 -1.7515  1.2124
 4610TIP3   OH235244   5.282   5.005  13.855 -0.2816 -0.1722  0.2341
 4610TIP3    H135245   5.219   5.053  13.909 -1.1578 -0.7519 -0.2470
 4610TIP3    H235246   5.365   5.013  13.903 -0.1914  2.4330 -0.1841
 4611TIP3   OH235247   4.818   5.796   4.259 -0.1554  0.6881  0.3290
 4611TIP3    H135248   4.809   5.803   4.164  1.0550 -0.5153  0.0881
 4611TIP3    H235249   4.894   5.739   4.271 -1.5392 -0.9531  1.9879
 4612TIP3   OH235250   1.262   4.545   2.522  0.2100 -0.4062 -0.4537
 4612TIP3    H135251   1.314   4.576   2.597 -0.8827  0.5759 -0.0656
 4612TIP3    H235252   1.231   4.626   2.480  2.9056 -0.7803 -3.5895
 4613TIP3   OH235253   4.722   5.895  14.792 -0.3564 -0.3751  0.2160
 4613TIP3    H135254   4.710   5.970  14.734  2.7370 -0.1879 -0.3235
 4613TIP3    H235255   4.690   5.820  14.741 -0.1507  0.1199 -0.6504
 4614TIP3   OH235256   4.592   6.231   5.930  0.2190  0.0428 -0.3158
 4614TIP3    H135257   4.558   6.271   6.010  2.5967  1.3891  0.1235
 4614TIP3    H235258   4.640   6.302   5.887 -0.6830 -0.7455 -2.7718
 4615TIP3   OH235259   3.316   0.820   4.366  0.1844 -0.4976 -0.4240
 4615TIP3    H135260   3.330   0.880   4.293  0.0818 -1.0233 -0.8793
 4615TIP3    H235261   3.374   0.746   4.348  0.1533 -0.6359  0.0213
 4616TIP3   OH235262   4.976   0.913   5.587 -0.1492  0.1326  0.0235
 4616TIP3    H135263   4.920   0.933   5.662  1.4672  1.0552  1.0297
 4616TIP3    H235264   5.053   0.870   5.624  0.6572  0.5349 -1.1166
 4617TIP3   OH235265   6.756   2.118   3.923 -0.3556  0.4820  0.5277
 4617TIP3    H135266   6.676   2.155   3.960  0.3822  0.3534  2.3923
 4617TIP3    H235267   6.768   2.164   3.840 -4.2242 -1.9394 -1.6947
 4618TIP3   OH235268   4.063   3.421   5.266  0.4210  0.1169  0.8158
 4618TIP3    H135269   4.016   3.424   5.348 -0.7260 -1.3129  0.2492
 4618TIP3    H235270   4.050   3.332   5.233 -1.3444  1.2923 -2.1367
 4619TIP3   OH235271   3.281   6.395   0.884 -0.1271  0.3390  0.2474
 4619TIP3    H135272   3.302   6.405   0.977  3.4624  2.5964 -0.5978
 4619TIP3    H235273   3.242   6.479   0.859 -1.0121 -0.2280 -0.3173
 4620TIP3   OH235274   1.145   5.073  14.350 -0.5493 -0.9272 -0.1159
 4620TIP3    H135275   1.189   5.014  14.290  0.6001  2.6364 -3.1166
 4620TIP3    H235276   1.216   5.112  14.402 -1.1762 -1.3143  1.0797
 4621TIP3   OH235277   5.833   1.756  13.743  0.3902  0.1311  0.3245
 4621TIP3    H135278   5.881   1.836  13.723 -0.3535  0.6747  0.6673
 4621TIP3    H235279   5.886   1.711  13.808  1.1425  0.0095 -0.3501
 4622TIP3   OH235280   1.819   3.909   5.461 -0.2839 -0.6813  0.2320
 4622TIP3    H135281   1.791   3.955   5.540  1.7720  0.8662  0.1302
 4622TIP3    H235282   1.791   3.818   5.475 -0.7290 -0.2651  2.3468
 4623TIP3   OH235283   6.254   0.206  12.994 -0.3626 -0.3136  0.3011
 4623TIP3    H135284   6.265   0.178  13.085  1.9897  0.0238  0.1857
 4623TIP3    H235285   6.283   0.298  12.994  1.0705 -0.7176 -0.9921
 4624TIP3   OH235286   2.785   4.240   3.003  0.3584  0.0272 -0.2925
 4624TIP3    H135287   2.841   4.247   2.926  1.4600 -1.9802  0.2275
 4624TIP3    H235288   2.847   4.222   3.075 -0.8437 -1.0595  0.5148
 4625TIP3   OH235289   3.319   3.968  16.656 -0.4317  0.9623  0.7142
 4625TIP3    H135290   3.362   3.993  16.738 -0.0600  1.7769  0.2867
 4625TIP3    H235291   3.268   3.891  16.678  0.8157  0.3023  1.3762
 4626TIP3   OH235292   2.207   5.041  15.943 -0.0236 -0.3094  0.2272
 4626TIP3    H135293   2.173   5.105  15.880  1.8039  0.8832  0.3717
 4626TIP3    H235294   2.275   4.993  15.895 -1.3415 -2.1861  0.1319
 4627TIP3   OH235295   3.686   2.752   5.692  0.6152  1.0387 -0.1501
 4627TIP3    H135296   3.643   2.678   5.649  3.3098 -0.5202 -0.3911
 4627TIP3    H235297   3.717   2.716   5.775 -0.1769  2.6529  0.8980
 4628TIP3   OH235298   5.459   2.856   3.502  0.2910 -0.6165  0.0054
 4628TIP3    H135299   5.452   2.763   3.523 -0.9443  0.0250  2.8922
 4628TIP3    H235300   5.415   2.901   3.574  0.5997  2.2289 -1.4160
 4629TIP3   OH235301   4.090   2.899   3.728 -0.0460  0.4517 -0.2619
 4629TIP3    H135302   4.098   2.904   3.632 -0.3689  0.9230 -0.2676
 4629TIP3    H235303   4.180   2.907   3.760 -0.1296  2.7074 -0.4419
 4630TIP3   OH235304   2.376   2.326  12.962  0.3998  0.2488  0.2294
 4630TIP3    H135305   2.406   2.350  13.050  0.8728  4.1454 -0.8332
 4630TIP3    H235306   2.451   2.342  12.905 -0.7857  0.7241 -1.2617
 4631TIP3   OH235307   1.349   2.407  13.887  0.1591  0.5100  0.3088
 4631TIP3    H135308   1.394   2.473  13.835  0.2450 -1.0159 -1.6605
 4631TIP3    H235309   1.419   2.356  13.927  0.0919  1.4033  1.6382
 4632TIP3   OH235310   4.299   3.127   4.194  0.2485  0.0116  0.2587
 4632TIP3    H135311   4.257   3.174   4.266  2.4043 -1.7025  2.8421
 4632TIP3    H235312   4.353   3.192   4.150 -0.1881  0.8636  0.9608
 4633TIP3   OH235313   3.565   3.976   3.133  0.2061 -0.3998 -0.0403
 4633TIP3    H135314   3.594   3.993   3.223  2.0021 -1.5252 -0.3610
 4633TIP3    H235315   3.642   3.941   3.089 -1.1021 -1.5033 -1.5651
 4634TIP3   OH235316   1.263   5.602   0.928 -0.0193 -0.2314  0.0403
 4634TIP3    H135317   1.302   5.603   0.840 -1.6233  1.4334 -0.6888
 4634TIP3    H235318   1.325   5.650   0.982 -0.2199  0.9455 -0.7472
 4635TIP3   OH235319   2.100   3.723  15.236  0.1060 -0.2575 -0.0102
 4635TIP3    H135320   2.054   3.708  15.153 -0.1725 -0.3315  0.1548
 4635TIP3    H235321   2.167   3.655  15.238  0.6949  0.2957 -0.5882
 4636TIP3   OH235322   1.720   4.525  14.685 -0.5176 -0.0029  0.9479
 4636TIP3    H135323   1.704   4.605  14.635 -0.6157 -0.7107 -0.1678
 4636TIP3    H235324   1.713   4.454  14.621  2.2521 -0.7437  1.3522
 4637TIP3   OH235325   2.870   0.527  17.117 -0.0615  0.5730  0.0796
 4637TIP3    H135326   2.800   0.492  17.062  0.0715  1.2359 -0.5299
 4637TIP3    H235327   2.914   0.591  17.061 -0.8472  2.3682  1.4171
 4638TIP3   OH235328   2.815   4.602   2.583 -0.3429 -0.3184 -0.0947
 4638TIP3    H135329   2.800   4.510   2.604  1.4583 -0.4863  0.6468
 4638TIP3    H235330   2.895   4.602   2.531 -0.2073  0.8461  0.0849
 4639TIP3   OH235331   2.584   2.474  12.311  0.4367  0.4915  0.0881
 4639TIP3    H135332   2.562   2.427  12.231 -0.2301 -0.3025  0.7123
 4639TIP3    H235333   2.500   2.485  12.357  0.6115  2.1089  0.0733
 4640TIP3   OH235334   2.773   1.426  15.307  0.1319  0.2201 -0.3833
 4640TIP3    H135335   2.828   1.501  15.285 -0.3752  0.9828  0.8071
 4640TIP3    H235336   2.751   1.387  15.223 -1.7819  2.9982 -1.3293
 4641TIP3   OH235337   2.875   4.892  12.129 -0.0441 -0.1790 -0.2243
 4641TIP3    H135338   2.875   4.922  12.220 -0.3935 -2.3194  0.5332
 4641TIP3    H235339   2.791   4.848  12.118  0.7033 -1.4831 -1.0193
 4642TIP3   OH235340   1.755   3.345   1.514 -0.2923  0.6225  0.0640
 4642TIP3    H135341   1.663   3.322   1.531 -0.2448  0.9192  0.7678
 4642TIP3    H235342   1.804   3.265   1.533 -0.2943  0.7989  0.8518
 4643TIP3   OH235343   4.680   0.154  12.616  0.1419 -0.6194 -0.2630
 4643TIP3    H135344   4.735   0.224  12.581  1.9131 -2.6050 -1.6795
 4643TIP3    H235345   4.723   0.128  12.698 -0.1972 -0.4575 -0.0285
 4644TIP3   OH235346   6.273   0.288   1.406 -0.1455  0.2748 -0.1693
 4644TIP3    H135347   6.286   0.339   1.487 -0.7445  1.0365 -0.5407
 4644TIP3    H235348   6.229   0.349   1.347  0.4876 -0.2005 -1.1547
 4645TIP3   OH235349   5.707   5.227   4.295  0.1643  0.3038  0.2015
 4645TIP3    H135350   5.785   5.274   4.264  0.5305 -0.4036  0.0255
 4645TIP3    H235351   5.720   5.137   4.264 -0.6232  0.1350  0.3598
 4646TIP3   OH235352   0.830   5.109   3.842  0.3878  0.1002 -0.0343
 4646TIP3    H135353   0.907   5.136   3.893  0.4692 -1.1942  0.5700
 4646TIP3    H235354   0.836   5.161   3.761  1.2599  0.8569  0.4909
 4647TIP3   OH235355   2.854   6.429   2.028 -0.8008 -0.4587  0.1180
 4647TIP3    H135356   2.797   6.412   1.954 -0.2916 -1.3251 -0.0910
 4647TIP3    H235357   2.868   6.524   2.027  0.3467 -0.6086 -1.7619
 4648TIP3   OH235358   3.485   2.054  13.798 -0.1634 -0.2791  0.1019
 4648TIP3    H135359   3.540   2.104  13.858  0.1491 -1.6249  0.9948
 4648TIP3    H235360   3.540   2.041  13.721  0.2068 -0.2753  0.3591
 4649TIP3   OH235361   3.128   6.666  15.109 -0.0177 -0.6517  0.3268
 4649TIP3    H135362   3.064   6.599  15.085 -1.2980  1.2073 -1.8498
 4649TIP3    H235363   3.076   6.739  15.140  1.3082 -0.3296  1.9176
 4650TIP3   OH235364   0.871   4.616  13.375  0.0618  0.7353  0.1213
 4650TIP3    H135365   0.896   4.670  13.450 -0.4665  3.0147 -1.2203
 4650TIP3    H235366   0.915   4.532  13.389  0.2331  1.1999  2.7594
 4651TIP3   OH235367   6.169   1.783  11.459 -0.2485 -0.2584 -0.3541
 4651TIP3    H135368   6.152   1.846  11.389 -1.2320  0.6121  0.6425
 4651TIP3    H235369   6.083   1.744  11.478 -0.0304 -0.3262  0.5217
 4652TIP3   OH235370   3.891   1.961  12.800 -0.4487  0.2526  0.2928
 4652TIP3    H135371   3.859   1.924  12.717  1.9038 -1.4461  0.0451
 4652TIP3    H235372   3.811   1.981  12.849 -1.8933 -0.7403 -1.5133
 4653TIP3   OH235373   1.521   3.652  12.765 -0.1297  0.5118  0.0154
 4653TIP3    H135374   1.579   3.713  12.719 -0.0926  1.1783  0.9101
 4653TIP3    H235375   1.442   3.649  12.712  0.2261  0.6123 -0.5279
 4654TIP3   OH235376   0.294   2.932  11.977 -1.3540  0.3774  0.0830
 4654TIP3    H135377   0.287   3.027  11.967  1.5505  0.5849 -1.0853
 4654TIP3    H235378   0.269   2.915  12.067  0.2078  2.5864  1.0082
 4655TIP3   OH235379   3.267   3.545  16.355 -0.1612  0.0108  0.4075
 4655TIP3    H135380   3.318   3.518  16.278  0.0113  1.3153  0.0418
 4655TIP3    H235381   3.333   3.567  16.421 -0.2933  0.0073  0.5406
 4656TIP3   OH235382   5.688   1.658  14.151 -0.4058 -0.5339 -0.2304
 4656TIP3    H135383   5.670   1.586  14.090 -0.9224  1.8172 -3.0315
 4656TIP3    H235384   5.647   1.734  14.111  0.3221  1.4420  2.5006
 4657TIP3   OH235385   1.202   2.399   5.491 -0.7275 -0.0496 -0.4674
 4657TIP3    H135386   1.209   2.371   5.583 -0.5608 -1.0342 -0.7604
 4657TIP3    H235387   1.245   2.484   5.488 -1.8202  0.5677  0.6063
 4658TIP3   OH235388   5.634   2.577  13.141 -0.1221 -0.1323  0.0266
 4658TIP3    H135389   5.672   2.598  13.226  0.7399  0.8277 -0.5753
 4658TIP3    H235390   5.589   2.493  13.156 -1.0494  0.6110  1.7119
 4659TIP3   OH235391   3.383   2.327   1.227 -0.5511  0.1562  0.0095
 4659TIP3    H135392   3.338   2.245   1.246  0.2543 -0.0870  0.9311
 4659TIP3    H235393   3.397   2.325   1.133  0.6979 -1.4314  0.1896
 4660TIP3   OH235394   2.600   2.616  11.999  0.3082  0.1488 -0.5552
 4660TIP3    H135395   2.680   2.625  11.947  1.2654 -1.4550  0.5177
 4660TIP3    H235396   2.530   2.611  11.935  1.3446 -0.8851 -1.6740
 4661TIP3   OH235397   5.726   5.435  11.208 -0.4239 -0.1394  0.3928
 4661TIP3    H135398   5.708   5.529  11.216 -0.7877 -0.2789  1.4171
 4661TIP3    H235399   5.822   5.430  11.200 -0.5180  0.4045 -1.5491
 4662TIP3   OH235400   6.763   3.681  12.398  0.2716 -0.7174 -0.4988
 4662TIP3    H135401   6.776   3.726  12.314 -0.1301 -0.0559 -0.2149
 4662TIP3    H235402   6.692   3.730  12.441  0.7894 -0.7577  0.4267
 4663TIP3   OH235403   2.512   1.406  14.866 -0.4290 -0.1621 -0.1594
 4663TIP3    H135404   2.538   1.375  14.779  0.5551 -1.7465  0.6733
 4663TIP3    H235405   2.490   1.327  14.915 -0.4293  0.6596  1.2333
 4664TIP3   OH235406   2.393   1.144   3.062  0.1670  0.6061 -0.0484
 4664TIP3    H135407   2.479   1.148   3.103  1.0807  2.2146 -1.9508
 4664TIP3    H235408   2.410   1.118   2.972 -1.0187  3.1677 -1.1143
 4665TIP3   OH235409   0.035   3.895  16.317 -0.6321  0.2210  0.2784
 4665TIP3    H135410  -0.006   3.964  16.264 -0.3543 -0.4492 -0.8476
 4665TIP3    H235411   0.129   3.908  16.305 -0.5417  0.4512  1.1428
 4666TIP3   OH235412   1.983   5.558   4.758  0.1122  0.3826 -0.2886
 4666TIP3    H135413   2.004   5.540   4.850 -1.3538  0.1943  0.0463
 4666TIP3    H235414   2.067   5.575   4.716  0.8308  0.1953  1.0324
 4667TIP3   OH235415   5.272   4.038   0.221 -0.1745  0.6247  0.2868
 4667TIP3    H135416   5.334   4.101   0.184 -0.5626 -0.0915 -1.6767
 4667TIP3    H235417   5.207   4.025   0.153 -0.5293 -1.3218  0.9286
 4668TIP3   OH235418   2.898   5.160   5.337  0.1110  0.3114 -0.8987
 4668TIP3    H135419   2.927   5.144   5.426 -0.5315 -3.7121 -1.2174
 4668TIP3    H235420   2.978   5.186   5.290  0.8065  0.7271  0.4737
 4669TIP3   OH235421   1.322   2.121   1.039 -0.2719 -0.5170 -0.0502
 4669TIP3    H135422   1.357   2.112   1.127 -0.2247  2.4923  0.3135
 4669TIP3    H235423   1.228   2.109   1.049 -0.2903  0.0250  0.4505
 4670TIP3   OH235424   0.889   2.228  10.713  0.2108 -0.2110  0.1748
 4670TIP3    H135425   0.794   2.241  10.719  0.1766 -0.6691  0.7135
 4670TIP3    H235426   0.900   2.152  10.656  0.2836  0.2809 -0.4671
 4671TIP3   OH235427   5.290   4.085  12.046  0.5754  0.0888  0.0911
 4671TIP3    H135428   5.316   4.132  11.967 -1.0836  2.4004  0.8116
 4671TIP3    H235429   5.246   4.151  12.100 -2.5349 -2.4219  0.9272
 4672TIP3   OH235430   4.639   1.393  13.570 -0.0314  0.5505  0.4032
 4672TIP3    H135431   4.622   1.333  13.642 -0.3662  1.5948  1.2180
 4672TIP3    H235432   4.700   1.457  13.607  2.2260 -0.5727 -1.1247
 4673TIP3   OH235433   2.363   6.011   4.089 -0.5015 -0.1031  0.0575
 4673TIP3    H135434   2.308   5.933   4.089 -0.9055  0.1761  0.0847
 4673TIP3    H235435   2.453   5.978   4.091 -0.6193 -0.5927 -1.6594
 4674TIP3   OH235436   1.340   5.927  12.529  0.6505 -0.0413  0.3235
 4674TIP3    H135437   1.298   5.846  12.559  0.3381 -0.4644 -1.1978
 4674TIP3    H235438   1.391   5.900  12.452 -0.6456  1.4515 -1.1241
 4675TIP3   OH235439   6.091   0.034  13.508  0.3300 -0.1992 -0.0506
 4675TIP3    H135440   6.030  -0.040  13.506  0.6012 -0.4629  1.0686
 4675TIP3    H235441   6.161   0.009  13.447 -0.8400  0.2787 -1.6607
 4676TIP3   OH235442   6.491   1.801   5.013 -0.5415  0.3025 -0.2124
 4676TIP3    H135443   6.516   1.780   5.103  0.3053 -1.7032 -0.8576
 4676TIP3    H235444   6.406   1.758   5.001 -2.1186  3.0137  0.4638
 4677TIP3   OH235445   2.573   5.495  13.174 -0.1113 -0.5521 -0.3213
 4677TIP3    H135446   2.502   5.551  13.144  1.1056  0.3429 -1.6962
 4677TIP3    H235447   2.633   5.555  13.218  0.7268 -0.9403 -0.9137
 4678TIP3   OH235448   3.571   6.129  14.576 -0.0133  0.1225 -0.3556
 4678TIP3    H135449   3.485   6.159  14.544  0.0444 -0.1885 -0.8034
 4678TIP3    H235450   3.620   6.107  14.497 -0.3918 -2.1062 -0.0347
 4679TIP3   OH235451   2.399   3.361   1.463  0.0359  0.0483 -0.0603
 4679TIP3    H135452   2.359   3.274   1.456 -0.1964 -0.8328  6.2651
 4679TIP3    H235453   2.486   3.344   1.499  0.9991  2.4592 -1.0650
 4680TIP3   OH235454   3.657   1.001  14.229  0.2234  0.5965  0.0649
 4680TIP3    H135455   3.618   1.082  14.262  0.7127  0.4473  1.0842
 4680TIP3    H235456   3.752   1.017  14.234  0.3444 -0.2497  0.9069
 4681TIP3   OH235457   4.749   6.269   1.473 -0.1758 -0.1832 -0.1200
 4681TIP3    H135458   4.773   6.347   1.423  0.1598 -0.2966 -0.1380
 4681TIP3    H235459   4.828   6.215   1.473 -1.0247 -1.5275 -1.9749
 4682TIP3   OH235460   2.889   2.012   4.110 -0.2858 -0.4907 -0.2740
 4682TIP3    H135461   2.919   2.083   4.054  1.5410  0.0554  1.3192
 4682TIP3    H235462   2.944   1.937   4.085 -1.4773 -1.1130 -1.1931
 4683TIP3   OH235463   4.054   2.949  13.415  0.1484  0.0469 -0.7648
 4683TIP3    H135464   4.050   2.915  13.505 -0.4520 -0.3621 -0.9405
 4683TIP3    H235465   4.122   3.016  13.418  0.3067 -0.1356 -0.0594
 4684TIP3   OH235466   6.281   2.944   4.204  0.3611 -0.0923 -0.0670
 4684TIP3    H135467   6.274   2.873   4.140  0.9544  0.0693 -0.3072
 4684TIP3    H235468   6.191   2.976   4.214  0.0593 -0.9836  0.1630
 4685TIP3   OH235469   4.381   4.400   0.557 -0.0450 -0.5227 -0.0380
 4685TIP3    H135470   4.308   4.452   0.524 -0.2709 -0.6406  0.2786
 4685TIP3    H235471   4.455   4.461   0.561  0.8889 -1.1487 -3.7637
 4686TIP3   OH235472   2.535   5.902   5.950  0.7791 -0.1475 -0.5536
 4686TIP3    H135473   2.628   5.921   5.948  0.9196 -0.6530  0.3602
 4686TIP3    H235474   2.508   5.921   6.040 -0.3943  1.6842 -1.2294
 4687TIP3   OH235475   4.080   3.249  15.549  0.0602 -0.0421  0.1131
 4687TIP3    H135476   4.082   3.241  15.453 -0.5604 -0.4132  0.1279
 4687TIP3    H235477   3.987   3.242  15.572  0.2726 -0.7908  0.8072
 4688TIP3   OH235478   0.039   3.951  14.317  0.7372 -0.6845 -0.1419
 4688TIP3    H135479   0.026   4.029  14.263 -1.7246 -0.8708  0.0430
 4688TIP3    H235480   0.104   3.976  14.381 -0.1335  1.3225  0.0325
 4689TIP3   OH235481   3.320   0.270   3.345  0.4160 -0.0469  0.1564
 4689TIP3    H135482   3.230   0.272   3.376  0.3094  0.7743 -0.1962
 4689TIP3    H235483   3.371   0.245   3.423  0.3240  3.3418  1.4464
 4690TIP3   OH235484   5.960   5.722   2.830 -0.1920 -0.2843  0.9429
 4690TIP3    H135485   5.994   5.810   2.843  0.6158 -0.2441 -1.1108
 4690TIP3    H235486   5.911   5.703   2.910  1.7975  0.9791  2.5533
 4691TIP3   OH235487   5.748   2.485  13.918  0.0387 -0.3981 -0.4368
 4691TIP3    H135488   5.731   2.422  13.848 -0.4393 -1.6336  0.7246
 4691TIP3    H235489   5.663   2.525  13.935 -0.2346 -1.3146  0.5095
 4692TIP3   OH235490   6.330   6.061  14.720  0.1513 -0.2106 -0.5490
 4692TIP3    H135491   6.367   6.150  14.723 -0.4796  0.1109 -1.7507
 4692TIP3    H235492   6.360   6.021  14.801  1.4516  0.7043 -0.5338
 4693TIP3   OH235493   2.176   3.908  11.837  0.7780 -0.2979 -0.4284
 4693TIP3    H135494   2.195   3.903  11.930 -0.2185  0.1255 -0.1893
 4693TIP3    H235495   2.257   3.942  11.798  1.1481 -0.3221  0.2976
 4694TIP3   OH235496   4.246   1.452  11.850 -0.9419 -0.0172  0.0474
 4694TIP3    H135497   4.246   1.530  11.905  0.5187 -0.1204  0.2296
 4694TIP3    H235498   4.294   1.387  11.901 -0.5827 -0.4735 -0.8617
 4695TIP3   OH235499   1.812   2.242  12.164  0.2661  0.0328  0.0145
 4695TIP3    H135500   1.797   2.295  12.085  1.9522  0.4704 -0.0469
 4695TIP3    H235501   1.870   2.171  12.134  0.2849 -0.2422  0.6902
 4696TIP3   OH235502   2.093   0.014   4.294 -0.2313 -0.3250  0.0893
 4696TIP3    H135503   2.141   0.008   4.211 -0.6086  1.7031 -0.3266
 4696TIP3    H235504   2.042   0.094   4.287 -2.5264 -1.5990  1.1537
 4697TIP3   OH235505   3.669   2.328  11.277  1.1514  0.4465  0.5711
 4697TIP3    H135506   3.610   2.344  11.203 -0.6127 -1.7784  1.3912
 4697TIP3    H235507   3.710   2.244  11.257  1.3628  0.2736  1.6818
 4698TIP3   OH235508   4.494   4.591  12.337  0.3686  0.1052 -0.0954
 4698TIP3    H135509   4.545   4.580  12.418 -0.6199 -0.4674  0.4822
 4698TIP3    H235510   4.520   4.676  12.303  0.2312  0.7357  1.2758
 4699TIP3   OH235511   4.594   3.704  12.460  0.2105 -0.6257  0.3823
 4699TIP3    H135512   4.657   3.635  12.481  0.2600 -0.7369 -0.1070
 4699TIP3    H235513   4.639   3.786  12.483  1.1484 -0.6004 -1.3539
 4700TIP3   OH235514   4.721   1.710   1.521 -0.5955 -0.1417 -0.7100
 4700TIP3    H135515   4.628   1.733   1.527 -1.0886 -1.9058 -0.9430
 4700TIP3    H235516   4.723   1.615   1.533  1.1441 -0.1892 -1.0877
 4701TIP3   OH235517   5.019   0.049   3.961 -1.0794 -0.0662  0.1729
 4701TIP3    H135518   5.025   0.065   4.055 -3.4195  0.2475  0.3197
 4701TIP3    H235519   4.925   0.054   3.941 -1.0110 -3.1565 -1.6467
 4702TIP3   OH235520   6.432   3.582   5.839  0.4226 -0.2191  0.2118
 4702TIP3    H135521   6.356   3.526   5.854 -0.2256  0.4575 -0.4320
 4702TIP3    H235522   6.403   3.669   5.867  1.4916 -0.2272  1.4224
 4703TIP3   OH235523   2.494   3.902   3.875  0.6338 -0.4449 -0.3126
 4703TIP3    H135524   2.467   3.865   3.791  0.7223 -0.0797 -0.5038
 4703TIP3    H235525   2.587   3.881   3.882  0.4399 -1.2052  0.0838
 4704TIP3   OH235526   4.469   5.862  14.203 -0.2277  0.0540 -0.4652
 4704TIP3    H135527   4.531   5.931  14.224 -0.1315 -0.5599  1.4939
 4704TIP3    H235528   4.402   5.869  14.271 -0.4236 -1.5044 -0.4610
 4705TIP3   OH235529   2.266   0.555   1.204 -0.3204 -0.5137 -0.1452
 4705TIP3    H135530   2.200   0.553   1.135 -0.5750 -0.1755  0.0870
 4705TIP3    H235531   2.225   0.510   1.278  0.5031 -2.2732 -0.6819
 4706TIP3   OH235532   2.336   2.650  15.758 -0.2773  0.1048 -0.3757
 4706TIP3    H135533   2.269   2.610  15.814 -0.8098  1.2961 -0.1398
 4706TIP3    H235534   2.299   2.646  15.669 -0.6552  0.7379 -0.2494
 4707TIP3   OH235535   4.695   0.066   2.670  0.0950 -0.5469 -0.2986
 4707TIP3    H135536   4.621   0.053   2.610  0.0895  0.1904 -0.4589
 4707TIP3    H235537   4.654   0.078   2.756 -0.0028  0.2864 -0.4541
 4708TIP3   OH235538   3.531   0.275  14.699 -0.1900 -0.0028  0.1776
 4708TIP3    H135539   3.467   0.297  14.766 -1.5577 -0.9081 -0.7739
 4708TIP3    H235540   3.520   0.180  14.686  1.8821 -0.3362  0.5174
 4709TIP3   OH235541   0.304   6.065   4.541 -0.0417 -0.0808 -0.2798
 4709TIP3    H135542   0.270   6.001   4.479  2.3852 -1.7385 -0.0407
 4709TIP3    H235543   0.239   6.066   4.612 -1.1836 -0.6486 -1.2827
 4710TIP3   OH235544   2.147   3.330   5.031  0.1973  0.5183  0.1003
 4710TIP3    H135545   2.233   3.289   5.025 -0.0019  0.3447 -2.3379
 4710TIP3    H235546   2.160   3.417   4.993 -0.1499  1.5293  2.1540
 4711TIP3   OH235547   4.076   0.501  15.424  0.4746  0.1895  0.2573
 4711TIP3    H135548   4.010   0.513  15.493  0.9464 -0.1758  0.7783
 4711TIP3    H235549   4.083   0.587  15.383 -0.5125  0.1737  0.0238
 4712TIP3   OH235550   0.646   5.992  16.835  0.3298 -0.1741  0.1175
 4712TIP3    H135551   0.719   5.989  16.774 -0.5105 -0.2890 -0.9041
 4712TIP3    H235552   0.592   6.065  16.805 -1.1716 -1.4961 -0.5543
 4713TIP3   OH235553   1.812   1.957  13.007  0.0591  0.1400  0.9871
 4713TIP3    H135554   1.895   1.980  13.049  0.3259 -0.1759  0.6376
 4713TIP3    H235555   1.832   1.954  12.913 -0.4946  0.6841  0.8452
 4714TIP3   OH235556   3.529   6.426   0.562  0.2001  0.2914 -0.0572
 4714TIP3    H135557   3.495   6.345   0.600 -0.6923  0.4529 -0.4831
 4714TIP3    H235558   3.551   6.480   0.638  0.6336 -0.2682  0.2289
 4715TIP3   OH235559   3.021   5.320  11.728  0.5426  0.0473  0.0500
 4715TIP3    H135560   3.015   5.289  11.638  1.9391 -1.1781  0.3269
 4715TIP3    H235561   2.998   5.413  11.724  0.9965  0.1181 -1.6423
 4716TIP3   OH235562   0.749   5.194  16.130 -0.4827  0.3430  0.0641
 4716TIP3    H135563   0.680   5.244  16.175  0.0375  2.4269 -1.2607
 4716TIP3    H235564   0.702   5.146  16.061 -1.1847 -2.3157  2.2267
 4717TIP3   OH235565   1.631   5.088   0.022 -0.1835  0.1884 -0.2126
 4717TIP3    H135566   1.686   5.051  -0.046 -0.2433  1.3520 -0.9270
 4717TIP3    H235567   1.541   5.079  -0.011 -0.3558 -0.7085  0.4556
 4718TIP3   OH235568   4.806   3.476  11.962 -0.1822 -0.0298 -0.5677
 4718TIP3    H135569   4.862   3.553  11.952  0.5326 -0.3362  0.8070
 4718TIP3    H235570   4.844   3.411  11.902  2.1117 -0.8320  1.5839
 4719TIP3   OH235571   4.392   4.071   6.206  0.2169  0.2144 -0.3722
 4719TIP3    H135572   4.405   4.156   6.247  0.8394  0.8980 -1.8813
 4719TIP3    H235573   4.464   4.017   6.239 -0.8031 -0.0917  1.4276
 4720TIP3   OH235574   3.300   2.660  13.471  0.1260  0.3424  0.0065
 4720TIP3    H135575   3.220   2.608  13.474  0.6744 -0.4549  1.0581
 4720TIP3    H235576   3.270   2.749  13.451 -0.8946 -0.1888 -0.8897
 4721TIP3   OH235577   0.579   0.840   2.253 -0.2593  0.0992 -0.2484
 4721TIP3    H135578   0.632   0.775   2.207 -0.1575 -0.7546  1.0287
 4721TIP3    H235579   0.560   0.800   2.338 -0.3364  1.6764  0.5107
 4722TIP3   OH235580   6.422   3.757   0.436 -0.2802  0.1209  0.1026
 4722TIP3    H135581   6.394   3.808   0.513 -2.8088  1.0667 -1.3242
 4722TIP3    H235582   6.343   3.711   0.408  0.9821 -1.4635 -1.0568
 4723TIP3   OH235583   4.525   0.212   1.282  0.1052  0.5902 -0.4497
 4723TIP3    H135584   4.539   0.167   1.198 -0.0480 -0.3538  0.0184
 4723TIP3    H235585   4.433   0.237   1.280 -0.4556 -1.2484  0.2662
 4724TIP3   OH235586   1.209   2.603  14.742 -0.4372 -0.0343 -0.1935
 4724TIP3    H135587   1.235   2.665  14.810  0.6318 -0.8489  0.1567
 4724TIP3    H235588   1.213   2.654  14.661 -0.5016  0.6076  0.2020
 4725TIP3   OH235589   4.068   4.907   3.768  0.4745  0.3213  0.0310
 4725TIP3    H135590   4.081   4.958   3.688 -1.2224 -0.5384 -0.8604
 4725TIP3    H235591   4.154   4.871   3.788  1.2379  1.7303 -0.5532
 4726TIP3   OH235592   2.296   6.308   2.696  0.4545  0.5330 -0.4800
 4726TIP3    H135593   2.366   6.351   2.648  1.0936  0.0717  0.0132
 4726TIP3    H235594   2.315   6.327   2.788  1.9308 -2.3702 -0.0483
 4727TIP3   OH235595   3.173   5.484  17.132  0.0251 -0.8555  0.5887
 4727TIP3    H135596   3.107   5.552  17.117 -0.5236 -1.2074  1.3664
 4727TIP3    H235597   3.254   5.522  17.099 -0.5428 -0.3816 -0.3022
 4728TIP3   OH235598   6.139   5.986   2.868  0.6760  0.5702 -0.1286
 4728TIP3    H135599   6.062   5.997   2.814  0.6170  1.5038  0.1262
 4728TIP3    H235600   6.189   6.067   2.857  2.1947 -0.4493 -1.1638
 4729TIP3   OH235601   3.955   0.232   1.392  0.7837 -0.0257 -0.1477
 4729TIP3    H135602   3.912   0.274   1.466  0.2978 -0.5849 -0.1027
 4729TIP3    H235603   4.028   0.184   1.431  1.1771  0.5521 -0.1670
 4730TIP3   OH235604   0.949   4.630   2.461 -0.3578  0.0827  0.0849
 4730TIP3    H135605   0.918   4.714   2.428  1.8983  0.6166 -0.8831
 4730TIP3    H235606   1.042   4.644   2.481 -0.2466 -1.8183  1.1973
 4731TIP3   OH235607   4.207   4.608  15.849 -0.1715 -0.2892 -0.1088
 4731TIP3    H135608   4.226   4.516  15.867  1.7979  0.1096  0.0564
 4731TIP3    H235609   4.200   4.648  15.936  0.4611 -0.0181 -0.1790
 4732TIP3   OH235610   0.197   1.173   3.886 -0.3278  0.2832  0.4659
 4732TIP3    H135611   0.220   1.243   3.825 -3.3320 -1.3929 -2.9562
 4732TIP3    H235612   0.121   1.207   3.934 -0.3999  0.1431  0.4497
 4733TIP3   OH235613   0.187   4.000   5.854 -0.2153 -0.3557 -0.0447
 4733TIP3    H135614   0.139   4.078   5.881  1.0833  0.5854 -0.3274
 4733TIP3    H235615   0.245   3.981   5.928  1.8512  0.9829 -1.1871
 4734TIP3   OH235616   4.415   4.959  13.446 -0.4130  0.5406 -0.1863
 4734TIP3    H135617   4.495   4.932  13.402  0.1920  1.3021  0.4250
 4734TIP3    H235618   4.362   4.879  13.452  1.2071 -0.4757  1.3366
 4735TIP3   OH235619   0.671   2.971  14.106  0.1161 -0.9629  0.2902
 4735TIP3    H135620   0.679   2.959  14.201  0.0547  1.2942  0.6164
 4735TIP3    H235621   0.651   3.063  14.095 -0.3547 -1.2879 -1.9238
 4736TIP3   OH235622   3.417   2.667  12.736  0.7383  0.4897 -0.6733
 4736TIP3    H135623   3.437   2.720  12.658 -0.9314  0.2680 -1.2915
 4736TIP3    H235624   3.483   2.598  12.736 -0.1677 -0.4844 -2.8732
 4737TIP3   OH235625   0.465   4.126   6.845 -0.0630 -0.3091 -0.3588
 4737TIP3    H135626   0.393   4.071   6.815 -0.5298  0.8407 -1.4525
 4737TIP3    H235627   0.445   4.213   6.809  1.5593  0.1641 -0.1887
 4738TIP3   OH235628   6.731   2.896   4.178  0.3377 -0.2510  0.3507
 4738TIP3    H135629   6.793   2.830   4.208  1.1412  0.4568  0.2854
 4738TIP3    H235630   6.764   2.978   4.215  0.4664  0.4002 -1.1436
 4739TIP3   OH235631   2.031   3.981  15.694 -0.1736  0.2764 -0.8752
 4739TIP3    H135632   1.953   3.982  15.750 -0.3129 -1.7631 -0.9510
 4739TIP3    H235633   2.010   3.918  15.625  1.6219 -0.4909 -0.7715
 4740TIP3   OH235634   1.421   4.617  16.762  0.8086 -0.0677  0.1533
 4740TIP3    H135635   1.391   4.707  16.749  0.0953 -0.3894 -0.5153
 4740TIP3    H235636   1.506   4.615  16.718  1.0236  0.3907  0.5394
 4741TIP3   OH235637   1.688   1.721   1.906  0.0103 -0.0039  0.3703
 4741TIP3    H135638   1.660   1.808   1.934 -1.2503 -0.1486 -0.3428
 4741TIP3    H235639   1.626   1.661   1.947 -0.3689 -0.3933 -0.7271
 4742TIP3   OH235640   1.530   0.493  12.401  0.1649  0.1995 -0.0773
 4742TIP3    H135641   1.555   0.541  12.480  0.1183  1.8628 -1.0280
 4742TIP3    H235642   1.579   0.536  12.331 -0.9087 -0.2911 -1.1557
 4743TIP3   OH235643   3.298   4.751   3.356 -0.0626 -0.0975 -0.0371
 4743TIP3    H135644   3.214   4.707   3.369 -0.5121  1.1330  1.6001
 4743TIP3    H235645   3.288   4.835   3.401  2.3693 -0.3317  1.1054
 4744TIP3   OH235646   4.099   6.609   0.862 -0.1904 -0.1666  0.6261
 4744TIP3    H135647   4.093   6.649   0.949  0.9223 -0.3989  0.8208
 4744TIP3    H235648   4.012   6.572   0.847 -1.0916  1.8227  0.6707
 4745TIP3   OH235649   2.428   2.679   0.549  0.2487 -0.6458  0.1909
 4745TIP3    H135650   2.474   2.634   0.620  1.0240  0.3299  0.3330
 4745TIP3    H235651   2.364   2.615   0.517  0.1795 -1.2452  1.4757
 4746TIP3   OH235652   1.708   0.390   3.057 -0.3610 -0.5773  0.2557
 4746TIP3    H135653   1.748   0.437   3.131  0.0212  0.8904 -0.8357
 4746TIP3    H235654   1.758   0.309   3.052  0.6458 -0.0069  0.6593
 4747TIP3   OH235655   3.118   3.994  11.382  0.0481 -0.3062  0.3025
 4747TIP3    H135656   3.212   3.975  11.386  0.5736  1.1026 -2.7659
 4747TIP3    H235657   3.101   4.048  11.459  2.3746  1.6348 -0.4392
 4748TIP3   OH235658   3.096   0.726  10.629 -0.3759  1.0520  0.2556
 4748TIP3    H135659   3.044   0.685  10.560  0.7274  0.2356 -0.1244
 4748TIP3    H235660   3.186   0.721  10.596 -0.0148  2.0814  1.0635
 4749TIP3   OH235661   5.339   2.892   1.406  0.4341  0.2667  0.0752
 4749TIP3    H135662   5.420   2.841   1.403 -0.6549 -1.6088  0.6969
 4749TIP3    H235663   5.314   2.903   1.314  1.1995  0.5502 -0.1035
 4750TIP3   OH235664   0.109   3.922   2.110  0.0634 -0.0093  0.0728
 4750TIP3    H135665   0.167   3.927   2.034  1.4619  1.6777  1.1876
 4750TIP3    H235666   0.055   3.844   2.093  0.9682 -0.2353 -2.1651
 4751TIP3   OH235667   0.483   2.774  14.058 -0.5343  0.8476 -0.5796
 4751TIP3    H135668   0.511   2.739  13.973  1.4416  0.5228  0.1362
 4751TIP3    H235669   0.551   2.838  14.081 -0.0323 -0.3507  1.5314
 4752TIP3   OH235670   3.084   3.704   5.608 -0.1837 -0.3034  0.1343
 4752TIP3    H135671   3.024   3.666   5.544  1.7011 -0.2523 -1.7836
 4752TIP3    H235672   3.164   3.652   5.599  0.6871  0.7702  1.2883
 4753TIP3   OH235673   2.002   0.985   2.726  0.8068 -0.4700  0.0454
 4753TIP3    H135674   2.058   1.026   2.661  1.2283 -0.7949  0.1966
 4753TIP3    H235675   1.913   0.993   2.690  0.9012  0.3599 -0.0314
 4754TIP3   OH235676   1.623   4.338   1.455  0.6808 -0.0585 -0.1468
 4754TIP3    H135677   1.569   4.404   1.411 -1.4215  0.3268  2.7139
 4754TIP3    H235678   1.708   4.381   1.467  0.1729  1.1322 -0.6494
 4755TIP3   OH235679   0.124   3.602   1.174  0.0446 -0.1227 -0.0492
 4755TIP3    H135680   0.160   3.691   1.176  2.5790 -1.0934  1.0526
 4755TIP3    H235681   0.080   3.592   1.259  0.4153 -0.1547  0.1420
 4756TIP3   OH235682   2.345   5.083  14.024  0.2194 -0.1591  0.0164
 4756TIP3    H135683   2.269   5.044  13.982 -1.4193  1.7441  1.0471
 4756TIP3    H235684   2.375   5.150  13.962 -0.2243  0.4645  0.4611
 4757TIP3   OH235685   2.801   5.212  14.768  0.2216  0.7702 -0.2229
 4757TIP3    H135686   2.712   5.221  14.802  0.4403  0.8337  0.3433
 4757TIP3    H235687   2.789   5.190  14.676 -0.4360 -1.2526  0.2816
 4758TIP3   OH235688   6.267   4.057  14.899 -0.5595  0.2304  0.0557
 4758TIP3    H135689   6.265   4.051  14.995  1.3206 -1.8555  0.0610
 4758TIP3    H235690   6.184   4.017  14.871 -0.7829  0.1632  0.7886
 4759TIP3   OH235691   0.045   5.468   4.201  0.1417 -0.3277 -0.0595
 4759TIP3    H135692  -0.049   5.463   4.185 -0.1003  1.9820  0.4333
 4759TIP3    H235693   0.075   5.541   4.147  1.1881  0.6328  1.7513
 4760TIP3   OH235694   6.220   5.478  15.964  0.2936  0.4695 -0.3729
 4760TIP3    H135695   6.200   5.564  15.929 -1.7938  1.2356  2.3933
 4760TIP3    H235696   6.137   5.431  15.963  0.7562 -0.4464  0.8431
 4761TIP3   OH235697   5.215   0.573   3.269 -0.4582 -0.5295 -0.0036
 4761TIP3    H135698   5.290   0.554   3.326 -0.4302  0.7342  0.4260
 4761TIP3    H235699   5.250   0.564   3.180  0.2020 -0.0435  0.1940
 4762TIP3   OH235700   0.376   5.212  11.639 -0.7479 -0.3261 -0.2914
 4762TIP3    H135701   0.382   5.304  11.614 -1.7962 -0.3452 -0.6936
 4762TIP3    H235702   0.382   5.165  11.555  1.1226 -0.7174  0.0253
 4763TIP3   OH235703   2.364   1.022   2.816 -0.0255 -0.3994 -0.2585
 4763TIP3    H135704   2.301   1.065   2.757  0.1464 -1.3081 -1.1130
 4763TIP3    H235705   2.319   0.943   2.844  0.6067 -0.8809 -0.6016
 4764TIP3   OH235706   5.536   4.917  12.583  0.1525 -0.0422 -0.7118
 4764TIP3    H135707   5.488   4.913  12.666 -2.6628 -0.4977 -2.2445
 4764TIP3    H235708   5.523   5.006  12.552 -1.3980 -0.6829 -2.0259
 4765TIP3   OH235709   0.776   1.756  15.501 -0.7105  0.6625  0.2696
 4765TIP3    H135710   0.757   1.663  15.490  0.0464  0.6573 -1.2111
 4765TIP3    H235711   0.735   1.779  15.584 -1.2774 -0.8879  0.4507
 4766TIP3   OH235712   6.723   5.901   2.077 -0.2785  0.3556 -0.2281
 4766TIP3    H135713   6.765   5.828   2.031  1.7535  0.5280  1.2299
 4766TIP3    H235714   6.794   5.964   2.091 -1.5367  1.6705  0.4201
 4767TIP3   OH235715   3.067   5.580   1.560  0.4659 -0.4352  0.1837
 4767TIP3    H135716   3.091   5.600   1.469  0.7629  0.7967  0.5194
 4767TIP3    H235717   2.972   5.574   1.558  0.1661  2.7329  0.3295
 4768TIP3   OH235718   6.053   3.418   4.349 -0.2934  0.1690 -0.4112
 4768TIP3    H135719   6.096   3.479   4.290 -0.1339  2.8591  2.2532
 4768TIP3    H235720   5.964   3.452   4.357 -1.1308 -1.7248 -1.0672
 4769TIP3   OH235721   5.472   1.449   6.687  0.1531 -0.6162 -0.6131
 4769TIP3    H135722   5.410   1.493   6.628  0.6700  0.6205 -0.2741
 4769TIP3    H235723   5.558   1.470   6.651  0.4336 -0.8941 -0.1209
 4770TIP3   OH235724   2.527   6.351  13.024  0.4782 -0.1029  0.1587
 4770TIP3    H135725   2.542   6.316  12.936 -0.2947  0.5738 -0.2495
 4770TIP3    H235726   2.605   6.403  13.043  0.4274  0.1529 -0.3280
 4771TIP3   OH235727   2.125   5.983  16.926 -0.2500  0.6856 -0.0414
 4771TIP3    H135728   2.062   5.948  16.863 -0.2006  0.0107  0.2774
 4771TIP3    H235729   2.209   5.950  16.896 -0.4178 -1.1665  1.3806
 4772TIP3   OH235730   4.375   6.125  11.444  0.2415  0.1533 -0.0577
 4772TIP3    H135731   4.315   6.149  11.515  1.9284  1.1028  1.0987
 4772TIP3    H235732   4.445   6.190  11.449  1.4727 -1.0304 -1.2461
 4773TIP3   OH235733   6.697   6.066  11.631  0.0190 -0.2964 -0.2528
 4773TIP3    H135734   6.608   6.076  11.595  0.2812 -1.8551 -1.4666
 4773TIP3    H235735   6.746   6.021  11.561  2.4623  2.6269 -0.6067
 4774TIP3   OH235736   6.089   0.349   3.272  0.2656 -0.0530 -0.7641
 4774TIP3    H135737   6.018   0.328   3.333  1.2206  1.3355  0.9326
 4774TIP3    H235738   6.051   0.414   3.213 -0.2527 -0.3082 -0.7188
 4775TIP3   OH235739   3.295   5.022  13.735  0.1434  0.3414 -0.5143
 4775TIP3    H135740   3.348   5.035  13.657  1.0305  0.9426  0.1712
 4775TIP3    H235741   3.307   5.102  13.786 -0.0728 -0.2131  0.4329
 4776TIP3   OH235742   2.201   2.138  13.310  0.7511  0.2437  0.0751
 4776TIP3    H135743   2.292   2.108  13.311  0.8572  0.5567  0.0042
 4776TIP3    H235744   2.204   2.223  13.354  0.3848 -0.0366  0.6462
 4777TIP3   OH235745   3.029   5.731  10.980  0.1147 -0.0635  0.3666
 4777TIP3    H135746   3.024   5.800  10.913 -1.9022 -0.6809 -0.1623
 4777TIP3    H235747   3.113   5.688  10.962 -0.5168 -0.4618 -2.0480
 4778TIP3   OH235748   3.661   6.760   4.834  0.1799  0.0406  0.5621
 4778TIP3    H135749   3.572   6.724   4.830 -0.8160  2.4088 -0.8140
 4778TIP3    H235750   3.653   6.837   4.891  0.5866  1.9781 -1.8184
 4779TIP3   OH235751   5.960   0.924  11.779 -0.0787  0.6984 -0.7988
 4779TIP3    H135752   5.942   0.992  11.844 -1.5834  0.6092 -1.0860
 4779TIP3    H235753   6.054   0.908  11.786  0.3103  2.7943 -0.7229
 4780TIP3   OH235754   2.485   5.783   4.544 -0.1460  0.1371 -0.5380
 4780TIP3    H135755   2.441   5.826   4.617  1.3314 -1.3732  1.3500
 4780TIP3    H235756   2.426   5.796   4.470 -1.8121  1.5730  0.9384
 4781TIP3   OH235757   1.168   6.093   2.065  0.2578  0.2577 -0.1451
 4781TIP3    H135758   1.197   6.060   2.150  1.4861  1.2296 -0.1502
 4781TIP3    H235759   1.205   6.182   2.060  1.0501 -0.1272 -2.0906
 4782TIP3   OH235760   3.283   2.770  12.949 -0.2343  0.4448 -0.5849
 4782TIP3    H135761   3.210   2.716  12.977  0.2048 -0.2577 -0.7628
 4782TIP3    H235762   3.319   2.725  12.873 -0.1593  1.2537 -1.0437
 4783TIP3   OH235763   2.016   2.405   5.618 -0.2579 -0.5210  0.1957
 4783TIP3    H135764   2.101   2.436   5.648 -0.5692  1.5485 -0.9034
 4783TIP3    H235765   2.024   2.309   5.618  1.9894 -0.3744  0.2637
 4784TIP3   OH235766   5.952   1.943   1.849 -0.4345 -0.4152 -0.1055
 4784TIP3    H135767   6.022   1.917   1.789 -0.9377  0.0415 -0.9184
 4784TIP3    H235768   5.954   1.879   1.919 -0.0088 -1.1360 -0.7662
 4785TIP3   OH235769   5.384   0.532   1.864 -0.2732 -0.4373 -0.1780
 4785TIP3    H135770   5.291   0.534   1.842  0.0664 -0.2496 -1.7156
 4785TIP3    H235771   5.391   0.587   1.942 -1.3404  0.1889 -0.5000
 4786TIP3   OH235772   5.743   0.258   5.421 -0.3467 -0.6277 -0.2317
 4786TIP3    H135773   5.653   0.250   5.452  0.2714  0.8784  2.2024
 4786TIP3    H235774   5.774   0.341   5.455  2.4135 -1.7139  0.2255
 4787TIP3   OH235775   0.456   0.790   0.341 -0.0744 -0.0236 -0.1607
 4787TIP3    H135776   0.472   0.718   0.403 -1.3156  1.1172  1.5487
 4787TIP3    H235777   0.362   0.787   0.323 -0.1854  1.2786  0.0988
 4788TIP3   OH235778   5.469   3.958  13.314 -0.4238  0.1970 -0.4027
 4788TIP3    H135779   5.475   4.053  13.307 -0.3339  0.3321  1.1258
 4788TIP3    H235780   5.375   3.942  13.326 -0.2446  0.2949  1.3780
 4789TIP3   OH235781   0.496   3.321  14.789 -0.4702  0.4495  0.4809
 4789TIP3    H135782   0.476   3.270  14.867 -0.0567 -1.4450 -0.5706
 4789TIP3    H235783   0.513   3.409  14.821 -0.3298 -0.2638  2.5210
 4790TIP3   OH235784   3.387   0.035  12.612  0.0542  0.5236  0.3294
 4790TIP3    H135785   3.309   0.077  12.578  0.4522  0.8419 -0.2028
 4790TIP3    H235786   3.354  -0.040  12.662 -0.5529  0.0045 -0.8047
 4791TIP3   OH235787   5.563   0.763  11.971  0.0065  0.2884 -0.5146
 4791TIP3    H135788   5.562   0.677  12.014  1.6926  0.4624 -0.0635
 4791TIP3    H235789   5.537   0.744  11.880 -0.9319 -0.4781 -0.1122
 4792TIP3   OH235790   4.960   4.656  16.359  0.1133  0.2041  0.0473
 4792TIP3    H135791   4.963   4.739  16.406 -1.4986  2.2373 -3.1125
 4792TIP3    H235792   4.871   4.624  16.373 -0.1133  0.4062 -0.8679
 4793TIP3   OH235793   5.418   5.421   4.091 -0.0006 -0.1214  0.3951
 4793TIP3    H135794   5.464   5.346   4.052  1.4249  1.1539 -0.4537
 4793TIP3    H235795   5.354   5.446   4.025 -1.2851 -1.2398  1.1475
 4794TIP3   OH235796   3.254   6.602   2.150  0.2274  0.3381  0.0813
 4794TIP3    H135797   3.171   6.602   2.198 -0.5011  0.2807 -1.1399
 4794TIP3    H235798   3.239   6.662   2.077  0.5598 -1.1835 -1.2991
 4795TIP3   OH235799   4.476   2.924  15.350  0.2088 -0.3060 -0.2761
 4795TIP3    H135800   4.445   2.907  15.261 -2.8383  1.1779  0.3524
 4795TIP3    H235801   4.396   2.938  15.401  1.9040  1.1673  2.2061
 4796TIP3   OH235802   0.529   3.259   1.857  0.8045 -0.1996  0.2101
 4796TIP3    H135803   0.485   3.328   1.906  0.3308  1.4950 -2.3756
 4796TIP3    H235804   0.599   3.229   1.915  0.6335  2.0413  1.6974
 4797TIP3   OH235805   2.084   1.677   3.414  0.2754  0.5029  0.1302
 4797TIP3    H135806   2.174   1.645   3.422  0.9600  2.2077 -0.3041
 4797TIP3    H235807   2.041   1.648   3.495  1.2654 -0.1774  0.4235
 4798TIP3   OH235808   0.011   0.747   1.196 -0.7805 -0.7032  0.5389
 4798TIP3    H135809   0.105   0.735   1.203 -0.5052  0.4055 -0.6744
 4798TIP3    H235810  -0.026   0.659   1.199  0.5353 -1.4085 -1.7821
 4799TIP3   OH235811   6.123   0.407  14.589 -0.7282  0.1020  0.1534
 4799TIP3    H135812   6.169   0.490  14.604  0.0385  0.2566 -2.5071
 4799TIP3    H235813   6.071   0.394  14.668  1.1077  1.7821  1.7605
 4800TIP3   OH235814   3.359   0.026   0.355  0.6621 -0.9057 -0.4013
 4800TIP3    H135815   3.452   0.004   0.357  0.6927 -0.7835 -0.4405
 4800TIP3    H235816   3.321  -0.024   0.427  0.7524 -0.9833 -0.4075
 4801TIP3   OH235817   6.554   2.287   3.444  0.2897  0.1997  0.2464
 4801TIP3    H135818   6.473   2.237   3.453  1.4070 -1.4958  1.8187
 4801TIP3    H235819   6.575   2.282   3.351  0.3446 -2.4049  0.3163
 4802TIP3   OH235820   4.301   6.671  16.108 -0.5532 -0.0938  0.4360
 4802TIP3    H135821   4.236   6.741  16.115 -0.3416  0.1253  0.2351
 4802TIP3    H235822   4.374   6.711  16.061 -1.3165 -1.0638 -1.7501
 4803TIP3   OH235823   6.017   0.993  13.203  0.1460  0.1049  0.4535
 4803TIP3    H135824   5.989   1.018  13.115  0.2278  0.2073  0.4562
 4803TIP3    H235825   6.113   0.988  13.197  0.0646 -1.7715  0.0272
 4804TIP3   OH235826   4.887   0.737   2.921  0.4379 -0.2159  1.1641
 4804TIP3    H135827   4.850   0.825   2.915 -1.5492 -1.0964 -2.1109
 4804TIP3    H235828   4.855   0.704   3.005 -0.0291  1.6361  1.7741
 4805TIP3   OH235829   0.884   3.283   0.339 -0.6438  0.1724  0.2423
 4805TIP3    H135830   0.887   3.269   0.433 -3.0633 -0.9257  0.2363
 4805TIP3    H235831   0.917   3.372   0.326 -0.6493  0.4787  2.1519
 4806TIP3   OH235832   0.901   0.931  16.378  0.3527 -0.0611  0.0715
 4806TIP3    H135833   0.966   0.919  16.447  0.9200 -0.6366 -0.5558
 4806TIP3    H235834   0.817   0.916  16.421  0.7183 -0.6850  0.5736
 4807TIP3   OH235835   6.011   4.924  11.748 -0.1399  0.1241  0.0799
 4807TIP3    H135836   6.070   4.982  11.797 -1.3330  2.2687 -0.8667
 4807TIP3    H235837   5.990   4.853  11.809  2.1003  0.1459  0.9826
 4808TIP3   OH235838   6.419   2.839  16.547 -0.0859  0.0247  0.3359
 4808TIP3    H135839   6.476   2.773  16.506  0.9378  0.9145  0.2675
 4808TIP3    H235840   6.367   2.874  16.474  0.0385 -0.0535  0.2078
 4809TIP3   OH235841   4.734   3.174   3.917  0.4702 -0.5026 -0.3710
 4809TIP3    H135842   4.812   3.192   3.969 -0.2559 -0.9815  0.9276
 4809TIP3    H235843   4.710   3.085   3.940 -1.8420  0.4218  1.1641
 4810TIP3   OH235844   3.810   5.321  11.690 -0.2753  0.0978  0.4481
 4810TIP3    H135845   3.865   5.259  11.643  1.9058  1.4685  1.0687
 4810TIP3    H235846   3.776   5.271  11.764 -0.4835 -0.9684 -0.3387
 4811TIP3   OH235847   4.267   2.426   0.569  0.2409 -0.1631 -0.0383
 4811TIP3    H135848   4.288   2.333   0.574 -2.5755 -1.1171 -2.7227
 4811TIP3    H235849   4.203   2.441   0.639  0.9990 -0.1164  0.6531
 4812TIP3   OH235850   6.340   6.265   2.082  0.2047 -0.8110  0.3552
 4812TIP3    H135851   6.360   6.349   2.041 -2.2348  0.3959  1.3663
 4812TIP3    H235852   6.403   6.258   2.154  0.1864  0.4072  0.5198
 4813TIP3   OH235853   0.833   3.908  14.001  0.0160 -0.4047  0.1126
 4813TIP3    H135854   0.927   3.910  13.983  0.4656 -0.3120  2.1403
 4813TIP3    H235855   0.806   3.819  13.981  0.3809 -0.2438 -1.1432
 4814TIP3   OH235856   4.989   6.580   5.130 -0.1768 -0.0733 -0.0563
 4814TIP3    H135857   5.052   6.509   5.143 -0.3822  0.0070  1.5864
 4814TIP3    H235858   4.960   6.570   5.040  0.4126 -1.5759 -0.1056
 4815TIP3   OH235859   0.376   6.104  11.215 -0.2156 -0.2588 -0.1316
 4815TIP3    H135860   0.393   6.086  11.122 -1.3094 -0.6523 -0.2773
 4815TIP3    H235861   0.440   6.171  11.239  1.9939 -2.1567 -0.3964
 4816TIP3   OH235862   2.787   6.215   1.352  0.3218  0.3412 -0.5068
 4816TIP3    H135863   2.859   6.244   1.296  2.8189  0.2040  2.3570
 4816TIP3    H235864   2.805   6.257   1.436 -3.2465  0.6011  0.2766
 4817TIP3   OH235865   2.663   3.595  14.229  0.5071  1.4738 -0.1415
 4817TIP3    H135866   2.615   3.517  14.201  1.7572  0.2423  0.9296
 4817TIP3    H235867   2.610   3.632  14.299  1.4128 -0.3893  1.6612
 4818TIP3   OH235868   3.568   1.259   1.186  0.3354 -0.7156  0.0974
 4818TIP3    H135869   3.508   1.185   1.196 -0.3959 -0.5740 -2.5919
 4818TIP3    H235870   3.567   1.302   1.272 -1.7350 -1.9400  0.7510
 4819TIP3   OH235871   5.133   3.221   1.238 -0.2251  0.1133 -0.3478
 4819TIP3    H135872   5.134   3.175   1.322  0.6785  0.7284 -0.0013
 4819TIP3    H235873   5.129   3.152   1.172  0.2001 -0.4237  0.1776
 4820TIP3   OH235874   3.649   2.822  12.605 -0.5028 -1.0955 -0.7167
 4820TIP3    H135875   3.702   2.833  12.526  0.3780 -1.7229 -0.2243
 4820TIP3    H235876   3.709   2.840  12.678 -1.1503 -1.1202 -0.1641
 4821TIP3   OH235877   4.459   6.265  15.155  0.3791 -0.4083 -0.4897
 4821TIP3    H135878   4.424   6.287  15.241  1.0362  1.5233 -0.6741
 4821TIP3    H235879   4.445   6.171  15.147 -1.1096 -0.3662  1.0709
 4822TIP3   OH235880   2.355   3.906   5.518  0.1754 -0.4644 -1.1021
 4822TIP3    H135881   2.310   3.825   5.497  0.0307 -0.6242 -0.2195
 4822TIP3    H235882   2.373   3.900   5.612  0.9443  0.1364 -1.1952
 4823TIP3   OH235883   0.814   3.764  12.105  0.2563 -0.4021  0.7567
 4823TIP3    H135884   0.884   3.752  12.169  1.5707  0.7989 -0.4079
 4823TIP3    H235885   0.840   3.841  12.054 -1.8516  0.0114  0.1920
 4824TIP3   OH235886   3.298   2.558  16.850 -0.0371  0.6734  0.0560
 4824TIP3    H135887   3.218   2.533  16.896  0.5554 -0.4416  0.5178
 4824TIP3    H235888   3.339   2.475  16.827  1.6300  1.2019  0.9776
 4825TIP3   OH235889   1.802   0.673  12.506  0.2633 -0.0846  0.1306
 4825TIP3    H135890   1.785   0.735  12.435  3.2736  0.5091 -0.2193
 4825TIP3    H235891   1.833   0.594  12.461 -1.9300 -1.3097  0.6571
 4826TIP3   OH235892   0.643   4.028  11.995 -0.0943  0.1844  0.6897
 4826TIP3    H135893   0.568   4.086  11.980  1.7732  2.3299 -0.9488
 4826TIP3    H235894   0.614   3.943  11.963 -2.4487  0.4687  1.8702
 4827TIP3   OH235895   5.161   4.742  12.039 -0.6263 -0.3816 -0.0899
 4827TIP3    H135896   5.189   4.698  11.959 -0.7108  1.6862 -1.3225
 4827TIP3    H235897   5.223   4.710  12.106  1.2582 -0.0530 -1.5791
 4828TIP3   OH235898   3.199   2.112   5.614 -0.1286 -0.3929 -0.1632
 4828TIP3    H135899   3.156   2.063   5.544  0.6734 -0.1748 -0.8317
 4828TIP3    H235900   3.203   2.202   5.580  1.8930 -0.6201 -0.6574
 4829TIP3   OH235901   5.858   6.277  14.620 -0.3728  0.3778  0.4409
 4829TIP3    H135902   5.929   6.219  14.594  1.6256  1.9335  2.0630
 4829TIP3    H235903   5.870   6.356  14.567 -0.2690  1.0203  1.3837
 4830TIP3   OH235904   5.888   5.175  17.257  0.1522 -0.4746  0.5600
 4830TIP3    H135905   5.941   5.209  17.185 -1.0196 -3.5073 -2.0160
 4830TIP3    H235906   5.939   5.101  17.291 -0.6836 -0.9872  0.7213
 4831TIP3   OH235907   1.509   4.278  12.044  0.0059  0.1149 -0.6304
 4831TIP3    H135908   1.549   4.284  11.957  0.4676 -0.9043 -0.5098
 4831TIP3    H235909   1.416   4.264  12.026 -0.2992  2.1874 -0.9139
 4832TIP3   OH235910   5.317   5.472  16.476  0.2162  0.0377  0.3860
 4832TIP3    H135911   5.266   5.449  16.398  1.8276 -0.4230 -0.5694
 4832TIP3    H235912   5.325   5.567  16.473  0.3191  0.0170 -0.0427
 4833TIP3   OH235913   1.778   3.589  12.138 -0.3410  0.5754 -0.2255
 4833TIP3    H135914   1.831   3.647  12.193  0.1391  0.2517 -0.3406
 4833TIP3    H235915   1.842   3.531  12.096 -0.7220  0.7259 -1.0172
 4834TIP3   OH235916   6.182   4.895   4.294  0.0127 -0.6149  0.2059
 4834TIP3    H135917   6.148   4.809   4.319  0.2298 -0.7019  0.1999
 4834TIP3    H235918   6.145   4.955   4.359  0.4171 -0.8116  0.6238
 4835TIP3   OH235919   3.695   3.513  11.128  0.4295 -0.0554  0.1300
 4835TIP3    H135920   3.752   3.567  11.184  2.2547 -0.3301 -1.3404
 4835TIP3    H235921   3.755   3.474  11.064 -1.1736 -1.9839 -0.2989
 4836TIP3   OH235922   5.960   3.237  13.683  0.1712  0.0626 -0.0505
 4836TIP3    H135923   6.008   3.270  13.759  2.5199  1.4547 -1.9600
 4836TIP3    H235924   6.005   3.156  13.659  1.8010  1.3961 -1.8760
 4837TIP3   OH235925   4.121   3.817   5.859 -0.1623  0.5211 -0.1999
 4837TIP3    H135926   4.038   3.829   5.905  0.3415 -0.8917  1.1538
 4837TIP3    H235927   4.177   3.887   5.894  0.3873 -0.8518  1.8603
 4838TIP3   OH235928   4.222   5.090   3.568 -0.6133 -0.7757 -0.2422
 4838TIP3    H135929   4.265   5.095   3.654 -2.1978  3.1215  0.5163
 4838TIP3    H235930   4.289   5.122   3.507 -0.9110  0.9542  0.2865
 4839TIP3   OH235931   6.627   4.433  15.110  0.1642 -0.3793  0.4432
 4839TIP3    H135932   6.651   4.436  15.017  0.2573  0.6856  0.4904
 4839TIP3    H235933   6.568   4.358  15.117  0.3961 -0.6492 -0.4218
 4840TIP3   OH235934   1.084   6.172   3.048 -0.4141  0.4828  0.1974
 4840TIP3    H135935   1.119   6.191   3.135  0.2757  0.4362 -0.0615
 4840TIP3    H235936   1.062   6.079   3.051 -0.3832  0.4785  0.3172
 4841TIP3   OH235937   6.606   3.899   1.347  0.1661  0.0858  0.2723
 4841TIP3    H135938   6.544   3.890   1.274 -0.9776  0.4718  1.1695
 4841TIP3    H235939   6.668   3.965   1.317  0.0105 -0.1258 -0.5501
 4842TIP3   OH235940   0.966   5.905   2.621 -0.1777  0.2168  0.1297
 4842TIP3    H135941   0.950   5.999   2.616 -0.3604  0.1428 -1.3518
 4842TIP3    H235942   0.888   5.869   2.664 -0.9990  0.5579 -1.0204
 4843TIP3   OH235943   3.314   0.959  16.292 -0.6741 -0.3615  0.3174
 4843TIP3    H135944   3.257   1.021  16.246 -0.0672 -0.2109 -0.2432
 4843TIP3    H235945   3.397   1.006  16.304  0.1842 -1.4332 -1.1175
 4844TIP3   OH235946   0.812   0.358  15.766  0.2570 -0.1966 -0.3400
 4844TIP3    H135947   0.792   0.266  15.747 -0.5571 -0.3993  1.3593
 4844TIP3    H235948   0.742   0.407  15.724  0.3667 -0.3741 -0.7420
 4845TIP3   OH235949   5.929   0.081   0.470  0.6294 -0.8168  0.0306
 4845TIP3    H135950   6.021   0.109   0.479  0.7309 -1.3937  0.9575
 4845TIP3    H235951   5.923   0.001   0.524 -0.5420 -0.4952  0.4070
 4846TIP3   OH235952   0.468   0.954  13.583 -0.5421 -1.0984 -0.3368
 4846TIP3    H135953   0.515   0.953  13.500  1.1676  0.3008  0.5434
 4846TIP3    H235954   0.500   0.877  13.630 -0.4060 -1.0837 -0.4064
 4847TIP3   OH235955   2.616   1.470  15.522 -0.0939 -0.5974 -0.1394
 4847TIP3    H135956   2.639   1.562  15.538  1.3176 -1.2005  1.5716
 4847TIP3    H235957   2.664   1.446  15.444  0.2237 -0.1168 -0.0943
 4848TIP3   OH235958   0.608   5.251   4.290  0.4629  0.0899  0.0481
 4848TIP3    H135959   0.524   5.251   4.245  0.5888  3.2831 -0.4255
 4848TIP3    H235960   0.655   5.176   4.254 -0.6984  0.5672 -2.6721
 4849TIP3   OH235961   1.011   3.810   1.145 -0.3139 -0.2574 -0.2022
 4849TIP3    H135962   1.007   3.809   1.049 -2.1135  1.2021 -0.1851
 4849TIP3    H235963   0.956   3.737   1.172  1.1836 -1.4580 -0.2364
 4850TIP3   OH235964   1.393   3.543   6.329 -0.3224 -0.0528 -0.4296
 4850TIP3    H135965   1.441   3.463   6.344 -1.5066 -0.4963  1.2380
 4850TIP3    H235966   1.409   3.597   6.407 -0.8309  0.6566 -0.7993
 4851TIP3   OH235967   2.439   3.456   0.479  0.1874 -0.2848  0.0814
 4851TIP3    H135968   2.405   3.545   0.468 -1.6418 -1.0725 -1.1260
 4851TIP3    H235969   2.533   3.468   0.490 -0.0982  1.8407  0.6705
 4852TIP3   OH235970   2.766   6.437  15.855  0.0568  0.3975  0.2046
 4852TIP3    H135971   2.695   6.466  15.912  0.3866 -0.8266  1.2808
 4852TIP3    H235972   2.843   6.433  15.912  0.4741 -0.5294 -0.3955
 4853TIP3   OH235973   0.013   0.351   4.761 -0.2288 -0.4244  0.6556
 4853TIP3    H135974   0.066   0.313   4.831  0.7056  0.3500  0.3923
 4853TIP3    H235975   0.076   0.397   4.706 -1.0896 -0.1312 -0.1033
 4854TIP3   OH235976   3.893   0.073  12.856  0.2998  0.3824 -0.0972
 4854TIP3    H135977   3.855   0.131  12.922 -0.2812 -0.4717  0.3367
 4854TIP3    H235978   3.818   0.035  12.811  0.6776  0.0254 -0.4391
 4855TIP3   OH235979   5.145   6.771   4.841 -0.4218  0.0653  0.1481
 4855TIP3    H135980   5.180   6.788   4.928  3.2955  1.3093 -1.3994
 4855TIP3    H235981   5.186   6.837   4.785 -2.5511 -0.7621 -2.6067
 4856TIP3   OH235982   1.468   5.928   4.374 -0.6684  0.4790  1.0915
 4856TIP3    H135983   1.402   5.992   4.344  1.1443  1.6277 -0.7013
 4856TIP3    H235984   1.508   5.969   4.450  0.8422  1.8293 -0.3556
 4857TIP3   OH235985   6.195   4.745  11.376 -0.1294 -0.1979  0.1897
 4857TIP3    H135986   6.133   4.817  11.375 -0.3516 -0.3889 -0.3403
 4857TIP3    H235987   6.182   4.701  11.292  0.4258 -0.4916  0.2513
 4858TIP3   OH235988   2.348   0.648   5.335  0.1842 -0.0831 -0.2380
 4858TIP3    H135989   2.258   0.616   5.327 -0.2924  0.2232  2.8922
 4858TIP3    H235990   2.395   0.579   5.380  0.6695  1.0730  1.0918
 4859TIP3   OH235991   2.417   2.727   0.027  0.5270 -0.1301 -0.3575
 4859TIP3    H135992   2.437   2.663  -0.041 -0.7436  0.1920 -1.0781
 4859TIP3    H235993   2.357   2.682   0.086  0.2872  0.1198 -0.4051
 4860TIP3   OH235994   2.795   5.296  13.001 -0.2084 -0.0532  0.1625
 4860TIP3    H135995   2.740   5.221  12.980 -0.6586  0.5157 -0.7421
 4860TIP3    H235996   2.875   5.282  12.951 -0.0987 -0.1750  0.3733
 4861TIP3   OH235997   4.176   5.415   6.160  0.0213  0.0106  0.3568
 4861TIP3    H135998   4.271   5.420   6.156  0.0773 -0.5709  0.7195
 4861TIP3    H235999   4.157   5.321   6.164 -0.7015 -0.0810 -2.5399
 4862TIP3   OH236000   1.884   0.640   0.476 -0.1618  0.6265  0.3613
 4862TIP3    H136001   1.935   0.719   0.492  2.6223 -0.4140 -2.3920
 4862TIP3    H236002   1.842   0.655   0.391 -0.1717 -0.5415  0.1416
 4863TIP3   OH236003   3.672   4.428   1.485  0.2307 -0.0066  0.1959
 4863TIP3    H136004   3.639   4.513   1.456  0.5896 -0.4476 -1.6431
 4863TIP3    H236005   3.607   4.365   1.454  1.0630 -0.5774 -0.4285
 4864TIP3   OH236006   1.434   0.378   3.153 -0.6888 -0.5791 -1.0118
 4864TIP3    H136007   1.509   0.405   3.101  0.3554 -2.4827 -0.5672
 4864TIP3    H236008   1.405   0.458   3.197  1.5161  0.0671 -0.6329
 4865TIP3   OH236009   0.953   2.488  11.091  0.0004  0.0272 -0.0355
 4865TIP3    H136010   1.009   2.431  11.038  1.7805  0.1297  1.6221
 4865TIP3    H236011   0.987   2.479  11.180 -2.8032 -0.0588  1.1205
 4866TIP3   OH236012   3.123   0.822  12.383  0.2145  0.1957  0.4358
 4866TIP3    H136013   3.056   0.780  12.436 -0.6510  1.2349  0.2010
 4866TIP3    H236014   3.178   0.750  12.353 -0.6657 -0.6611  0.8113
 4867TIP3   OH236015   1.532   5.790  17.051  0.4006  0.1816  0.6095
 4867TIP3    H136016   1.551   5.878  17.083  0.5057  0.4824 -0.2351
 4867TIP3    H236017   1.471   5.753  17.115 -0.5755  1.3118  0.3741
 4868TIP3   OH236018   3.354   6.137  15.271 -0.3987  0.0886  0.2773
 4868TIP3    H136019   3.396   6.153  15.186 -0.1618  2.4660  0.7605
 4868TIP3    H236020   3.278   6.083  15.251 -0.5748  0.9268 -1.5162
 4869TIP3   OH236021   5.059   3.947  11.972  0.4105  0.1271  0.1956
 4869TIP3    H136022   5.029   4.025  12.019  1.5503  1.7704 -1.6074
 4869TIP3    H236023   5.155   3.950  11.981  0.6528  0.3953 -1.9606
 4870TIP3   OH236024   5.674   2.068  13.597 -0.3315  0.2253 -0.8306
 4870TIP3    H136025   5.595   2.081  13.544 -2.3268 -2.6640  1.1588
 4870TIP3    H236026   5.726   2.007  13.546 -1.3312 -1.0189 -0.4116
 4871TIP3   OH236027   2.747   1.338   5.265  0.6123 -0.6673  0.1907
 4871TIP3    H136028   2.687   1.306   5.198  1.1331  1.0958 -1.2070
 4871TIP3    H236029   2.819   1.275   5.266  0.8084 -0.4870 -1.2506
 4872TIP3   OH236030   5.425   5.920  11.906 -0.1989  0.1631  0.4061
 4872TIP3    H136031   5.340   5.932  11.948 -0.0824  0.7098  0.4852
 4872TIP3    H236032   5.427   5.827  11.885 -1.2915  0.3419 -0.6057
 4873TIP3   OH236033   0.788   1.151   1.799  0.5250 -0.2447  0.4986
 4873TIP3    H136034   0.799   1.245   1.779  0.8283 -0.5603 -0.9643
 4873TIP3    H236035   0.863   1.109   1.757 -1.0617 -1.4205 -1.3511
 4874TIP3   OH236036   4.400   1.437  14.802 -0.0683 -0.5557 -0.3511
 4874TIP3    H136037   4.447   1.362  14.765 -0.1630 -0.5202 -0.5446
 4874TIP3    H236038   4.363   1.404  14.884  1.1611 -0.3026  0.3323
 4875TIP3   OH236039   6.733   2.764   2.169  0.0637 -0.1558  0.1965
 4875TIP3    H136040   6.710   2.701   2.238 -1.9672 -0.1139 -0.3682
 4875TIP3    H236041   6.827   2.777   2.178 -0.0575 -0.5132  2.6659
 4876TIP3   OH236042   5.407   2.841   0.685 -0.7169 -0.2779 -0.4876
 4876TIP3    H136043   5.408   2.897   0.762 -0.6432 -0.1218 -0.6011
 4876TIP3    H236044   5.361   2.762   0.713 -1.5883  0.1850 -0.5674
 4877TIP3   OH236045   4.240   6.212  14.968 -0.0535  0.1393 -0.4749
 4877TIP3    H136046   4.197   6.297  14.956  0.6835  0.3643 -1.7250
 4877TIP3    H236047   4.321   6.234  15.014  0.9542  0.3953 -2.2608
 4878TIP3   OH236048   2.570   0.499  13.203  0.3182 -0.3599 -0.1226
 4878TIP3    H136049   2.652   0.544  13.224  0.7672 -1.2635  0.1400
 4878TIP3    H236050   2.579   0.475  13.111  0.5701 -0.8998  0.0407
 4879TIP3   OH236051   6.163   4.420  16.071  0.3748  0.0980  0.1180
 4879TIP3    H136052   6.137   4.497  16.121  0.7040  0.6882 -0.6123
 4879TIP3    H236053   6.237   4.449  16.018  0.7190 -0.8068  0.0751
 4880TIP3   OH236054   4.677   5.219  10.846  0.0275  0.2571  0.4076
 4880TIP3    H136055   4.675   5.258  10.759  0.0206  0.1974  0.3807
 4880TIP3    H236056   4.586   5.216  10.874  0.1652  2.0696  1.2220
 4881TIP3   OH236057   3.392   3.843  13.652  0.1031  0.0927  0.3258
 4881TIP3    H136058   3.438   3.860  13.570 -1.1380  1.3764 -0.1642
 4881TIP3    H236059   3.444   3.888  13.719  1.5931 -1.6899  0.4176
 4882TIP3   OH236060   2.949   3.752  15.272 -0.7923  0.2335  0.6157
 4882TIP3    H136061   3.033   3.726  15.310 -1.3738 -1.6190  0.7381
 4882TIP3    H236062   2.967   3.762  15.178 -0.1828  1.0269  0.8148
 4883TIP3   OH236063   4.176   4.431   2.748  0.0552 -0.3823 -0.5197
 4883TIP3    H136064   4.127   4.492   2.803  0.7173 -1.6935  1.6474
 4883TIP3    H236065   4.261   4.422   2.792  0.8590 -1.0533 -2.1113
 4884TIP3   OH236066   2.725   4.168  16.573  0.0345  0.0078  0.8038
 4884TIP3    H136067   2.767   4.233  16.517 -1.6989 -1.0556 -1.8758
 4884TIP3    H236068   2.683   4.219  16.642 -0.0145  1.6318 -0.3813
 4885TIP3   OH236069   3.031   1.546  16.982 -0.1079  0.3225 -0.6182
 4885TIP3    H136070   3.109   1.502  16.950 -0.1069 -0.1883  0.0514
 4885TIP3    H236071   3.002   1.601  16.909  0.2299 -0.3418 -1.2628
 4886TIP3   OH236072   1.065   2.707  16.766 -0.1561 -0.5724  0.1501
 4886TIP3    H136073   1.062   2.706  16.671 -2.8268 -0.2474  0.1765
 4886TIP3    H236074   1.028   2.791  16.792  2.4494  0.2859  1.5285
 4887TIP3   OH236075   2.739   6.536   2.989  0.4770 -0.0939  0.3927
 4887TIP3    H136076   2.775   6.489   3.064 -1.3070 -1.3725  0.5175
 4887TIP3    H236077   2.808   6.533   2.923  2.4660  1.8644  2.2089
 4888TIP3   OH236078   1.244   1.036   2.757 -0.0497 -0.9592  0.4458
 4888TIP3    H136079   1.200   0.955   2.781  2.0258 -2.3206 -0.0676
 4888TIP3    H236080   1.290   1.015   2.675  2.5360 -0.1026  1.5600
 4889TIP3   OH236081   4.468   0.104  15.305 -0.0242  0.1275  0.3396
 4889TIP3    H136082   4.513   0.088  15.222  2.3287  1.4942  1.2416
 4889TIP3    H236083   4.463   0.200  15.312  2.7623  0.2246  3.1125
 4890TIP3   OH236084   2.605   6.569   3.760 -0.2986 -0.3343  0.5738
 4890TIP3    H136085   2.565   6.594   3.843 -0.6444  0.7140  0.1146
 4890TIP3    H236086   2.656   6.647   3.735  0.5356 -0.9712  0.2423
 4891TIP3   OH236087   0.991   0.394  11.544  0.2101  0.8390  0.0243
 4891TIP3    H136088   0.999   0.363  11.453  0.6481  1.7666 -0.2640
 4891TIP3    H236089   0.969   0.315  11.594  2.0875 -0.1171 -0.5532
 4892TIP3   OH236090   6.775   6.689   0.359 -0.0570  0.2420 -0.3118
 4892TIP3    H136091   6.707   6.692   0.426 -1.3400 -2.1454 -1.3904
 4892TIP3    H236092   6.765   6.772   0.312 -1.4634  0.4467  0.2889
 4893TIP3   OH236093   1.875   0.126  14.574  0.0169  0.4005 -0.1885
 4893TIP3    H136094   1.793   0.077  14.563 -0.9329  1.4240  1.8650
 4893TIP3    H236095   1.913   0.093  14.655  0.3716  1.6361  0.1782
 4894TIP3   OH236096   0.028   4.275   3.255  0.1391 -0.2868 -0.6196
 4894TIP3    H136097   0.037   4.181   3.241 -0.9433 -0.2177 -2.0401
 4894TIP3    H236098  -0.066   4.290   3.264  0.3646  0.5447  0.7213
 4895TIP3   OH236099   0.204   0.476   6.483  0.4684  0.5636  0.4900
 4895TIP3    H136100   0.132   0.488   6.545 -0.0047  2.2175 -0.3209
 4895TIP3    H236101   0.281   0.465   6.539 -0.3515 -1.2920  1.3752
 4896TIP3   OH236102   0.434   1.490   0.449 -0.3297  0.6453 -0.1508
 4896TIP3    H136103   0.437   1.405   0.406 -3.5687  0.4382 -0.2446
 4896TIP3    H236104   0.457   1.472   0.540 -1.6712 -0.5162 -0.0063
 4897TIP3   OH236105   1.123   2.659   3.791 -0.2273  0.4422 -0.4073
 4897TIP3    H136106   1.115   2.574   3.748  0.8660  0.4635 -0.6638
 4897TIP3    H236107   1.077   2.720   3.733 -0.0615  0.2185 -0.7738
 4898TIP3   OH236108   0.964   1.275  14.099  1.1040 -0.9600 -0.2071
 4898TIP3    H136109   0.947   1.259  14.192  0.6250 -0.6717 -0.2439
 4898TIP3    H236110   1.058   1.261  14.089  1.4534  0.6528  0.6540
 4899TIP3   OH236111   6.529   5.469  17.172 -0.2268  0.0898  0.1016
 4899TIP3    H136112   6.577   5.389  17.151 -1.5869 -0.5214 -0.8639
 4899TIP3    H236113   6.553   5.531  17.102 -1.3701 -0.4697 -0.8227
 4900TIP3   OH236114   0.688   1.411  14.229 -0.7467 -0.5646 -0.0910
 4900TIP3    H136115   0.731   1.344  14.282 -0.7878  0.4945  1.3192
 4900TIP3    H236116   0.635   1.361  14.167 -0.4001 -1.8423  0.6000
 4901TIP3   OH236117   5.588   5.784  16.268 -0.2289  0.5939  1.2509
 4901TIP3    H136118   5.635   5.768  16.351  1.2018  2.4762  0.8709
 4901TIP3    H236119   5.579   5.697  16.229  4.7088  0.1575  0.4816
 4902TIP3   OH236120   2.279   1.645  11.338  0.4389  0.1378 -0.4637
 4902TIP3    H136121   2.300   1.721  11.283 -1.8796  1.0061 -0.2712
 4902TIP3    H236122   2.186   1.628  11.320 -0.0353 -0.4068  2.1146
 4903TIP3   OH236123   3.795   6.416  11.287 -0.0405 -0.5094 -0.3400
 4903TIP3    H136124   3.784   6.391  11.196 -0.3225  1.3776 -0.8739
 4903TIP3    H236125   3.883   6.453  11.291 -0.4962  0.6000 -0.1679
 4904TIP3   OH236126   6.073   0.328  13.982 -0.3995 -0.5981 -0.3515
 4904TIP3    H136127   6.126   0.341  13.904  0.6418 -1.0116  0.2637
 4904TIP3    H236128   5.987   0.301  13.949  0.5388 -2.5966 -1.3485
 4905TIP3   OH236129   5.233   3.754  11.515 -0.4705  0.0627  0.5134
 4905TIP3    H136130   5.280   3.687  11.564  0.6047  0.1425 -0.3675
 4905TIP3    H236131   5.236   3.723  11.424 -1.8907  0.2125  0.3794
 4906TIP3   OH236132   1.706   4.235  15.233  0.0515  0.0831  0.3785
 4906TIP3    H136133   1.687   4.302  15.169 -2.3554 -2.2760 -1.6023
 4906TIP3    H236134   1.795   4.206  15.211 -0.0665  0.5387 -0.7712
 4907TIP3   OH236135   3.908   1.161   5.936 -0.2066  0.0751 -0.2545
 4907TIP3    H136136   3.885   1.251   5.913 -0.4074  0.0241 -0.2553
 4907TIP3    H236137   3.993   1.168   5.978 -0.9300  0.4628  1.2117
 4908TIP3   OH236138   5.187   0.146  13.690 -0.4105 -0.7767 -0.2368
 4908TIP3    H136139   5.201   0.095  13.611  0.9080 -0.3368 -0.3232
 4908TIP3    H236140   5.092   0.154  13.698 -0.5629 -0.4534 -2.0211
 4909TIP3   OH236141   3.487   3.569  13.435 -0.3306  0.3470 -0.6782
 4909TIP3    H136142   3.395   3.592  13.454 -0.8450 -0.9083 -1.5213
 4909TIP3    H236143   3.533   3.653  13.435 -0.7614  0.8041  3.1539
 4910TIP3   OH236144   1.047   0.130   2.044 -0.1798 -0.3713 -0.0674
 4910TIP3    H136145   1.033   0.187   1.969 -0.1493  0.1125  0.2889
 4910TIP3    H236146   1.138   0.147   2.070 -0.3916 -0.0398  0.4805
 4911TIP3   OH236147   3.419   4.004  15.430 -0.0156  0.0537 -0.3904
 4911TIP3    H136148   3.489   3.986  15.368 -0.1265  1.4838 -0.9773
 4911TIP3    H236149   3.338   3.989  15.381 -0.1074  0.4180 -0.3530
 4912TIP3   OH236150   1.623   6.712   1.189  0.0595 -0.1251  0.0404
 4912TIP3    H136151   1.583   6.783   1.239 -0.2134  0.2658 -0.7101
 4912TIP3    H236152   1.708   6.697   1.232 -0.1295  0.2505  0.5599
 4913TIP3   OH236153   5.015   2.407   5.023 -0.2804  0.1869  0.4315
 4913TIP3    H136154   5.048   2.354   4.951 -1.1960 -0.8016  0.6991
 4913TIP3    H236155   5.035   2.497   4.999 -0.1531 -0.1589 -0.8322
 4914TIP3   OH236156   3.485   2.506   0.259  0.5993 -0.0084  0.2173
 4914TIP3    H136157   3.393   2.525   0.278  0.8098 -0.8576  2.3084
 4914TIP3    H236158   3.482   2.442   0.188 -0.3875  0.5912 -0.3030
 4915TIP3   OH236159   4.499   5.001   4.083  0.5981 -0.4129 -0.3253
 4915TIP3    H136160   4.520   4.918   4.040  0.5346  0.0506 -1.2767
 4915TIP3    H236161   4.581   5.049   4.082  0.5149 -0.2699 -0.2147
 4916TIP3   OH236162   2.729   0.669   6.023  0.1166  0.2792 -0.4683
 4916TIP3    H136163   2.762   0.613   6.093  1.7735 -0.8017 -2.0468
 4916TIP3    H236164   2.789   0.743   6.021 -0.7352  1.0135  0.1082
 4917TIP3   OH236165   2.498   3.733   1.234  0.3624 -0.1241 -0.6728
 4917TIP3    H136166   2.575   3.723   1.179  1.4394 -0.4207  0.8248
 4917TIP3    H236167   2.469   3.823   1.219  1.6085  0.3177 -0.4936
 4918TIP3   OH236168   6.690   1.377   1.473  0.1296  0.4881 -0.9095
 4918TIP3    H136169   6.645   1.457   1.447 -0.6402  0.4987  0.4140
 4918TIP3    H236170   6.651   1.309   1.417 -0.7759  0.6821 -0.5361
 4919TIP3   OH236171   2.518   3.824  11.553 -0.0125 -0.4477 -0.2287
 4919TIP3    H136172   2.515   3.730  11.572  0.7913 -0.1000  1.8779
 4919TIP3    H236173   2.431   3.856  11.576  0.0872 -0.4857  0.2023
 4920TIP3   OH236174   1.588   2.167   5.744 -0.1524 -0.0090  0.0605
 4920TIP3    H136175   1.526   2.239   5.751  0.7182  1.0122 -2.0675
 4920TIP3    H236176   1.607   2.144   5.835 -3.1130  0.0264  0.7976
 4921TIP3   OH236177   2.531   0.294   4.400 -0.3111  0.3026  0.0640
 4921TIP3    H136178   2.544   0.383   4.432 -2.1877  0.1290  1.5306
 4921TIP3    H236179   2.618   0.255   4.399  0.2755  1.5068  1.4973
 4922TIP3   OH236180   1.984   0.300   2.239 -0.1977 -0.3501  0.2158
 4922TIP3    H136181   2.072   0.276   2.211 -0.3248 -0.6418  0.0602
 4922TIP3    H236182   1.941   0.329   2.159 -0.7289 -1.6826 -0.0149
 4923TIP3   OH236183   1.753   1.841  16.559 -0.0931 -0.4828 -0.3847
 4923TIP3    H136184   1.837   1.801  16.581 -0.0964 -1.0607 -1.3384
 4923TIP3    H236185   1.712   1.860  16.643  1.8390  1.7018  0.1486
 4924TIP3   OH236186   4.312   0.033  14.922 -0.8535  0.3401 -0.0699
 4924TIP3    H136187   4.234   0.009  14.972 -1.0333 -0.4014 -0.6832
 4924TIP3    H236188   4.355  -0.050  14.902 -1.6021  0.4322 -2.4267
 4925TIP3   OH236189   0.270   2.129  14.705  0.6628 -0.0235  0.0256
 4925TIP3    H136190   0.360   2.160  14.710  1.0405 -1.0966 -0.0638
 4925TIP3    H236191   0.223   2.200  14.661  0.9547  1.6120  2.1680
 4926TIP3   OH236192   0.950   5.203   0.938 -0.3614 -0.2715  0.3695
 4926TIP3    H136193   1.020   5.149   0.900 -2.4263 -0.6196 -3.4030
 4926TIP3    H236194   0.881   5.140   0.961 -0.7742  0.3457  0.8374
 4927TIP3   OH236195   1.656   0.483   4.045  0.0373 -0.2219  0.3427
 4927TIP3    H136196   1.698   0.569   4.049  0.0440 -0.2560  1.0850
 4927TIP3    H236197   1.722   0.426   4.006  0.1959  0.0110  0.2679
 4928TIP3   OH236198   1.542   3.815   0.825  0.1520  0.1155 -0.1686
 4928TIP3    H136199   1.491   3.893   0.800  1.6290  0.7609 -1.3242
 4928TIP3    H236200   1.632   3.836   0.798  1.0428 -0.9991  1.7588
 4929TIP3   OH236201   6.079   1.032  11.039 -0.0814  0.0918  0.5751
 4929TIP3    H136202   6.150   1.061  10.981 -0.4618  0.6556  0.3814
 4929TIP3    H236203   6.016   1.104  11.038 -0.4723 -0.2339  1.0617
 4930TIP3   OH236204   4.474   6.633  17.133  0.0072  0.1157 -0.3528
 4930TIP3    H136205   4.430   6.714  17.108 -0.7341  0.2585  1.2634
 4930TIP3    H236206   4.494   6.644  17.226 -0.9612 -1.9042  0.1623
 4931TIP3   OH236207   5.346   4.364  17.055  0.5512  0.0602 -0.1209
 4931TIP3    H136208   5.294   4.441  17.032 -0.5392 -0.5392  0.2722
 4931TIP3    H236209   5.408   4.396  17.120 -0.1066  0.5440  0.2769
 4932TIP3   OH236210   0.368   4.923  16.363 -0.5676  0.6351 -0.1472
 4932TIP3    H136211   0.444   4.867  16.369 -0.5548  0.6574 -0.0980
 4932TIP3    H236212   0.337   4.932  16.454 -0.8206  0.3623 -0.2072
 4933TIP3   OH236213   4.485   0.121   2.885  0.6494 -0.2111 -0.3018
 4933TIP3    H136214   4.408   0.127   2.828  0.9711  0.0058 -0.7260
 4933TIP3    H236215   4.479   0.034   2.925 -0.2783  0.1396  0.3503
 4934TIP3   OH236216   1.196   3.967  11.965  0.0127 -0.1433  0.5704
 4934TIP3    H136217   1.213   4.060  11.973 -2.0814  0.3485 -0.0941
 4934TIP3    H236218   1.225   3.930  12.048 -0.2134  1.2741  1.3079
 4935TIP3   OH236219   4.609   4.655   4.220 -0.1376  0.4083 -0.8377
 4935TIP3    H136220   4.620   4.561   4.230 -1.4468  0.4749  2.6111
 4935TIP3    H236221   4.595   4.668   4.126  1.6619 -2.5702 -1.6491
 4936TIP3   OH236222   1.923   6.430   5.037  0.5097  0.3175  0.8087
 4936TIP3    H136223   1.868   6.445   5.114  0.6881 -1.1218  1.2384
 4936TIP3    H236224   1.885   6.487   4.969  0.9676  2.4140  2.1966
 4937TIP3   OH236225   2.299   0.201  10.670 -0.6319  0.4930 -0.1617
 4937TIP3    H136226   2.233   0.263  10.640 -1.6150 -0.6637 -0.4666
 4937TIP3    H236227   2.249   0.124  10.698  0.6107 -0.5807 -0.8014
 4938TIP3   OH236228   4.549   3.938  14.168  1.2127  0.6507  0.0357
 4938TIP3    H136229   4.619   3.994  14.136 -0.2268  2.9522  0.6211
 4938TIP3    H236230   4.588   3.851  14.175  3.7467  1.6689 -0.4000
 4939TIP3   OH236231   5.227   2.203   1.846  0.2182 -0.0263 -0.2397
 4939TIP3    H136232   5.318   2.174   1.845  0.0708 -0.6019 -2.2135
 4939TIP3    H236233   5.231   2.295   1.872  1.4277  0.0786 -0.7517
 4940TIP3   OH236234   3.752   0.532  14.961 -0.0750 -0.0439 -0.0087
 4940TIP3    H136235   3.791   0.522  15.048 -1.9507  0.4140  0.9422
 4940TIP3    H236236   3.827   0.532  14.901  1.1977 -1.7186  1.4587
 4941TIP3   OH236237   6.697   6.214  12.996 -0.1201 -0.4046  0.1767
 4941TIP3    H136238   6.666   6.218  13.086 -1.6138 -0.9769 -0.2903
 4941TIP3    H236239   6.688   6.303  12.963 -0.9134 -0.4817  0.1709
 4942TIP3   OH236240   1.828   5.002  17.115  0.0821  0.1339 -0.0550
 4942TIP3    H136241   1.849   4.937  17.047 -2.1112 -0.0021 -0.6659
 4942TIP3    H236242   1.878   5.079  17.090 -0.3653 -0.0419 -1.6267
 4943TIP3   OH236243   3.283   5.334   1.538  0.6265 -0.0073 -0.5046
 4943TIP3    H136244   3.242   5.359   1.455 -0.1164 -1.7772 -0.7084
 4943TIP3    H236245   3.211   5.302   1.592  1.0032  1.6299  1.0996
 4944TIP3   OH236246   2.781   0.111   5.021 -0.0476 -0.4982 -0.6798
 4944TIP3    H136247   2.686   0.126   5.022 -0.2894 -1.8484 -1.5651
 4944TIP3    H236248   2.795   0.045   4.954  1.6091  0.1044 -0.9883
 4945TIP3   OH236249   5.932   5.697   4.353  0.5588  0.1652  0.3150
 4945TIP3    H136250   5.945   5.622   4.296 -0.2134 -0.2398  0.6528
 4945TIP3    H236251   5.845   5.683   4.393  0.1106  1.5414 -0.0998
 4946TIP3   OH236252   2.797   1.875   5.296  0.3516  0.0005 -0.2954
 4946TIP3    H136253   2.847   1.794   5.299  0.5401  0.1212 -0.1157
 4946TIP3    H236254   2.837   1.926   5.225 -0.1406 -0.3020 -0.7973
 4947TIP3   OH236255   3.217   5.943  11.784  0.2029 -0.0543 -0.4777
 4947TIP3    H136256   3.266   5.880  11.836  0.2567 -0.4535 -1.0010
 4947TIP3    H236257   3.265   5.947  11.701  0.4881  1.0384 -0.2897
 4948TIP3   OH236258   0.403   3.794   4.500  0.1406 -0.0213  0.4962
 4948TIP3    H136259   0.352   3.773   4.422  2.5259  0.4631 -1.3446
 4948TIP3    H236260   0.353   3.861   4.545 -1.2341 -0.1925 -0.7123
 4949TIP3   OH236261   2.006   4.438   4.224  0.5247 -0.1893 -0.0110
 4949TIP3    H136262   2.078   4.440   4.161 -0.9090  1.2207 -1.7582
 4949TIP3    H236263   1.983   4.530   4.238 -0.9980 -0.5851  0.3668
 4950TIP3   OH236264   2.387   6.501  16.890  0.4430 -0.2462  0.7136
 4950TIP3    H136265   2.313   6.457  16.848  0.0534  0.0261  1.0992
 4950TIP3    H236266   2.460   6.441  16.879 -0.1138 -1.0604  1.3745
 4951TIP3   OH236267   2.852   2.590  12.187 -0.4588  0.3695  0.0498
 4951TIP3    H136268   2.772   2.640  12.206 -2.4644 -2.2037 -0.9961
 4951TIP3    H236269   2.840   2.507  12.233  3.4954  1.1805  3.0625
 4952TIP3   OH236270   6.593   0.472  12.021 -0.4186  0.2797 -0.2680
 4952TIP3    H136271   6.650   0.395  12.017  1.2915  1.3857  1.1282
 4952TIP3    H236272   6.533   0.453  12.093  0.7188  0.6411  0.8257
 4953TIP3   OH236273   0.621   3.721  17.029  0.2653  0.1497  0.1003
 4953TIP3    H136274   0.693   3.771  16.991  2.3083 -1.3831  1.7935
 4953TIP3    H236275   0.548   3.784  17.032  1.0875  1.4050 -2.7325
 4954TIP3   OH236276   0.984   1.715  13.232 -0.3119 -0.0131  0.2694
 4954TIP3    H136277   1.027   1.634  13.260 -0.0002 -0.3552 -1.0859
 4954TIP3    H236278   1.054   1.765  13.190 -0.6187  0.7450  0.6488
 4955TIP3   OH236279   4.217   1.825   5.388  0.0384  0.3731 -0.1660
 4955TIP3    H136280   4.171   1.792   5.311 -0.0523  1.3298 -0.5314
 4955TIP3    H236281   4.207   1.755   5.453 -2.0193  0.5723 -0.1893
 4956TIP3   OH236282   0.994   5.124   2.287 -0.4199  0.2841  0.6345
 4956TIP3    H136283   1.077   5.125   2.238 -0.6763  1.1205  0.1895
 4956TIP3    H236284   0.960   5.213   2.277 -0.3187  0.6034  2.6316
 4957TIP3   OH236285   1.476   1.650   2.071 -0.4668  0.1933  0.3874
 4957TIP3    H136286   1.417   1.698   2.012 -1.1330 -0.9644  0.0800
 4957TIP3    H236287   1.419   1.621   2.143 -1.0092 -3.3546 -1.2674
 4958TIP3   OH236288   1.762   0.161   2.012 -0.0677  0.2809 -0.2846
 4958TIP3    H136289   1.710   0.114   2.076  1.9243 -1.2645  0.3030
 4958TIP3    H236290   1.753   0.254   2.036 -2.4035  0.0738 -0.1833
 4959TIP3   OH236291   6.372   3.652   0.964  0.3635  0.1716 -0.1761
 4959TIP3    H136292   6.361   3.678   1.056  0.1687 -2.4073  0.6002
 4959TIP3    H236293   6.420   3.725   0.925 -0.6055  1.8980  1.6524
 4960TIP3   OH236294   1.653   6.632  14.788 -0.5851  0.5881  0.2802
 4960TIP3    H136295   1.715   6.649  14.858 -0.2992 -0.9884  0.4398
 4960TIP3    H236296   1.574   6.601  14.833 -0.4283 -0.3496 -0.0744
 4961TIP3   OH236297   0.387   4.606   0.600 -0.8958 -0.1860  0.3578
 4961TIP3    H136298   0.443   4.679   0.572 -1.0234 -0.2092  0.0374
 4961TIP3    H236299   0.390   4.609   0.695 -0.8506  0.2026  0.3467
 4962TIP3   OH236300   0.435   3.546  14.191 -0.6024  0.5294  0.0883
 4962TIP3    H136301   0.399   3.539  14.279 -1.0569  0.2786 -0.1067
 4962TIP3    H236302   0.522   3.583  14.202 -0.6878  0.5695  0.6339
 4963TIP3   OH236303   6.640   6.446   0.495  0.0658 -0.2281  0.0785
 4963TIP3    H136304   6.645   6.400   0.411  0.4889  1.1038 -0.6584
 4963TIP3    H236305   6.546   6.461   0.508 -0.0558 -1.0966  0.2211
 4964TIP3   OH236306   2.934   4.349  13.421  0.1799 -0.3526  0.5417
 4964TIP3    H136307   2.950   4.410  13.493  2.7554  1.0875 -1.1086
 4964TIP3    H236308   2.878   4.398  13.360  0.8311 -0.2791 -0.0016
 4965TIP3   OH236309   5.851   5.399  12.050  0.0230 -0.0182 -0.3055
 4965TIP3    H136310   5.867   5.314  12.010 -0.8162 -0.7043  0.7509
 4965TIP3    H236311   5.922   5.454  12.019  0.0810 -0.8555 -1.7120
 4966TIP3   OH236312   0.808   1.335  15.717  0.0538 -0.5000 -0.1307
 4966TIP3    H136313   0.753   1.373  15.648  0.0272 -2.0704 -1.0237
 4966TIP3    H236314   0.758   1.347  15.797 -0.0629  1.0783 -0.4106
 4967TIP3   OH236315   5.587   2.636  16.914 -0.0660  0.6437  0.4767
 4967TIP3    H136316   5.612   2.671  16.999  2.0377  0.3600  0.0546
 4967TIP3    H236317   5.657   2.574  16.893 -1.8404 -1.1913 -0.3580
 4968TIP3   OH236318   3.773   5.980  13.852  0.0846  0.2473 -0.2708
 4968TIP3    H136319   3.831   5.991  13.777  0.9859 -0.5828  0.2789
 4968TIP3    H236320   3.820   5.921  13.911 -2.3995 -2.6695 -0.9414
 4969TIP3   OH236321   6.532   3.658  15.521  0.0717  0.0297 -0.2755
 4969TIP3    H136322   6.609   3.661  15.465  0.5729 -0.0147  0.4039
 4969TIP3    H236323   6.552   3.716  15.594 -1.1167  1.1447 -0.7840
 4970TIP3   OH236324   6.437   5.967   4.192  0.4955  0.2776 -0.5966
 4970TIP3    H136325   6.526   5.942   4.166  0.4614 -2.5557  1.5874
 4970TIP3    H236326   6.448   6.008   4.278 -0.2505  0.7527 -0.7193
 4971TIP3   OH236327   2.237   0.111  12.388 -0.4643  1.2542 -0.1699
 4971TIP3    H136328   2.305   0.165  12.430 -0.7319  1.1493  0.4051
 4971TIP3    H236329   2.160   0.123  12.443 -0.9086  1.3437 -0.8023
 4972TIP3   OH236330   3.863   1.571   0.609 -0.4448 -0.7496 -0.1551
 4972TIP3    H136331   3.903   1.658   0.605 -2.8107  0.3983 -1.0984
 4972TIP3    H236332   3.898   1.525   0.533  1.6805 -1.0835  0.9629
 4973TIP3   OH236333   0.313   0.563  13.788 -0.5735 -0.7185  0.0410
 4973TIP3    H136334   0.218   0.550  13.796 -0.8476 -0.4628 -2.1307
 4973TIP3    H236335   0.349   0.529  13.870 -2.4937 -1.3396  0.6827
 4974TIP3   OH236336   3.455   4.249   4.727 -0.1009  0.3345 -0.5026
 4974TIP3    H136337   3.425   4.159   4.738  1.2787  0.1102  2.0635
 4974TIP3    H236338   3.521   4.244   4.658 -1.2239 -0.2792 -1.5672
 4975TIP3   OH236339   6.482   1.249  14.437  0.2116  0.4574 -0.1477
 4975TIP3    H136340   6.552   1.184  14.446 -0.0096  0.1378 -0.6734
 4975TIP3    H236341   6.446   1.233  14.350 -1.7296 -0.6357  0.7880
 4976TIP3   OH236342   4.423   5.417  14.040 -0.2938 -0.7330  0.0596
 4976TIP3    H136343   4.345   5.435  14.093  0.8570 -0.9261  1.9269
 4976TIP3    H236344   4.410   5.327  14.009 -1.4678 -0.2560 -0.8834
 4977TIP3   OH236345   5.473   4.891   5.908  0.3670 -0.3128  0.3123
 4977TIP3    H136346   5.539   4.959   5.904 -2.0518  2.2767  1.0659
 4977TIP3    H236347   5.454   4.870   5.817  0.8422  0.3236  0.0610
 4978TIP3   OH236348   0.069   3.174  12.707 -0.8599  0.8855 -0.2092
 4978TIP3    H136349   0.148   3.122  12.689 -0.6638  0.3117  2.0918
 4978TIP3    H236350   0.012   3.156  12.632  0.4116 -0.2209 -0.9689
 4979TIP3   OH236351   4.560   5.504   3.039 -0.0134 -0.5492 -0.3959
 4979TIP3    H136352   4.478   5.547   3.015  0.2717 -0.8001 -1.8849
 4979TIP3    H236353   4.538   5.456   3.120 -1.5947 -1.3258 -1.2331
 4980TIP3   OH236354   0.358   3.043   1.680 -0.1530  0.2481  0.2392
 4980TIP3    H136355   0.435   3.072   1.730  0.1557  2.1138 -1.2036
 4980TIP3    H236356   0.296   3.013   1.746  1.9454 -1.7454  1.4349
 4981TIP3   OH236357   6.056   3.975   1.716  0.2622 -0.3532  0.2549
 4981TIP3    H136358   6.002   3.940   1.645 -0.3046 -0.4063  0.7023
 4981TIP3    H236359   6.134   4.010   1.672 -0.3639  0.1793 -0.4523
 4982TIP3   OH236360   5.902   2.989   3.816 -0.5339  0.0980 -0.2569
 4982TIP3    H136361   5.874   2.968   3.727 -0.5772 -0.8234 -0.0355
 4982TIP3    H236362   5.989   3.028   3.805  0.8919 -2.8642 -0.5509
 4983TIP3   OH236363   0.021   2.193  12.079 -0.3222  0.1296 -0.0215
 4983TIP3    H136364   0.022   2.152  12.166  1.2319 -0.4973 -0.2869
 4983TIP3    H236365   0.114   2.199  12.055 -0.6935  0.9086 -1.3591
 4984TIP3   OH236366   4.430   0.437  16.841  0.1517  0.3872  0.3552
 4984TIP3    H136367   4.513   0.481  16.859 -0.0407  0.5795  0.7766
 4984TIP3    H236368   4.411   0.388  16.921  0.9931 -1.4963 -0.5154
 4985TIP3   OH236369   2.856   1.155  14.732  0.6449  0.3705  0.6145
 4985TIP3    H136370   2.900   1.071  14.718 -1.2910 -0.5197 -0.5558
 4985TIP3    H236371   2.771   1.132  14.769 -2.3264  1.1565 -4.7982
 4986TIP3   OH236372   5.514   3.587  14.220  1.0542  0.1557 -0.4259
 4986TIP3    H136373   5.547   3.566  14.307  1.8320  0.4334 -0.6464
 4986TIP3    H236374   5.547   3.675  14.203 -0.3833  0.7412 -0.3809
 4987TIP3   OH236375   0.879   5.214  15.071  0.2437 -0.1646 -0.0225
 4987TIP3    H136376   0.937   5.175  15.005 -0.6994 -1.6404 -0.0313
 4987TIP3    H236377   0.802   5.240  15.022  0.3975  0.6951  0.1817
 4988TIP3   OH236378   0.101   4.931  14.691 -0.2812  0.3544 -0.7776
 4988TIP3    H136379   0.012   4.965  14.701  0.2333  1.2250  1.3866
 4988TIP3    H236380   0.151   5.003  14.654  0.7157  2.1664  3.4271
 4989TIP3   OH236381   4.444   6.435  14.915 -0.4758  0.3242 -1.2099
 4989TIP3    H136382   4.493   6.443  14.997 -1.6143 -1.4238 -0.2998
 4989TIP3    H236383   4.477   6.506  14.860  1.8256  0.2625 -0.0239
 4990TIP3   OH236384   0.010   2.104   5.299  0.1545 -0.2427  0.1974
 4990TIP3    H136385   0.037   2.162   5.227 -0.5958 -1.9052 -1.5290
 4990TIP3    H236386  -0.059   2.152   5.344 -0.5092  0.1994 -1.2289
 4991TIP3   OH236387   0.810   0.347  12.568 -0.4096 -0.1761  0.1564
 4991TIP3    H136388   0.769   0.358  12.654 -0.1336 -2.4216  0.6292
 4991TIP3    H236389   0.890   0.399  12.573 -1.6334  1.8052  0.2921
 4992TIP3   OH236390   1.712   3.440   2.129 -0.6324  0.1671 -0.2416
 4992TIP3    H136391   1.796   3.478   2.152 -0.3110 -0.6494 -0.0464
 4992TIP3    H236392   1.733   3.362   2.077 -1.1319 -1.6006  2.0167
 4993TIP3   OH236393   2.528   1.962   1.967  0.0235  0.1631 -0.1613
 4993TIP3    H136394   2.570   1.983   2.051  0.0967 -0.6143  0.0025
 4993TIP3    H236395   2.438   1.994   1.977 -0.0891 -0.3042  0.3783
 4994TIP3   OH236396   5.041   3.512   3.436  0.1457 -0.4964 -0.0895
 4994TIP3    H136397   4.982   3.449   3.395 -0.6806 -0.2982  0.7633
 4994TIP3    H236398   4.992   3.594   3.436  0.0229 -0.5369  1.4865
 4995TIP3   OH236399   3.204   0.643   2.266  0.2532 -0.5309 -0.1417
 4995TIP3    H136400   3.298   0.631   2.280  0.6274  2.6305  0.8946
 4995TIP3    H236401   3.169   0.663   2.353 -1.1613 -0.3649 -0.7155
 4996TIP3   OH236402   0.747   5.688   0.838 -0.3701  0.2485 -0.5849
 4996TIP3    H136403   0.832   5.666   0.800  0.3982  1.1875  0.5076
 4996TIP3    H236404   0.768   5.737   0.917 -1.9355  2.7849 -1.6233
 4997TIP3   OH236405   5.844   6.273  16.121  0.2084  0.1692 -0.0063
 4997TIP3    H136406   5.874   6.267  16.212 -1.0129  0.4429  0.4412
 4997TIP3    H236407   5.748   6.280  16.128  0.0557 -0.3037 -1.3402
 4998TIP3   OH236408   0.374   6.079   4.976  0.1292  0.0415  0.1241
 4998TIP3    H136409   0.295   6.036   4.943  0.3386 -0.5733  0.4204
 4998TIP3    H236410   0.355   6.096   5.069 -0.4259  1.6918 -0.2509
 4999TIP3   OH236411   6.697   0.785   5.454 -0.2916 -0.2708 -0.2988
 4999TIP3    H136412   6.768   0.746   5.505 -2.1152 -0.8720  1.9663
 4999TIP3    H236413   6.651   0.711   5.416  0.1395  0.1026 -1.5911
 5000TIP3   OH236414   4.193   4.460  16.551  0.2228  0.2663 -0.4901
 5000TIP3    H136415   4.226   4.380  16.510  1.0874  0.1299  0.4161
 5000TIP3    H236416   4.106   4.472  16.513  1.5036  0.9994 -3.5120
 5001TIP3   OH236417   4.478   0.088   1.036  0.0806  0.3344  0.2699
 5001TIP3    H136418   4.426   0.022   1.083 -0.0254  0.7650  0.7615
 5001TIP3    H236419   4.545   0.037   0.990  0.9903 -0.0153  1.9082
 5002TIP3   OH236420   6.609   5.626   6.609  0.3419 -0.8352 -0.2543
 5002TIP3    H136421   6.598   5.611   6.703 -3.8111  0.6174 -0.3080
 5002TIP3    H236422   6.530   5.589   6.570  0.0069  2.1366 -2.6657
 5003TIP3   OH236423   4.060   1.647   4.216 -0.7234 -0.0463 -0.1788
 5003TIP3    H136424   4.130   1.641   4.151 -1.5539 -0.6984 -1.0332
 5003TIP3    H236425   4.086   1.720   4.272  0.7262 -0.3851 -0.3677
 5004TIP3   OH236426   2.685   4.298   2.193  0.1281  0.5472 -0.3381
 5004TIP3    H136427   2.693   4.253   2.108  0.6838  0.9593 -0.5111
 5004TIP3    H236428   2.656   4.230   2.253  3.0260 -0.6327 -0.1182
 5005TIP3   OH236429   1.284   4.227  11.347  0.8093 -0.3096  0.2048
 5005TIP3    H136430   1.333   4.222  11.429  1.5226 -0.3590 -0.2185
 5005TIP3    H236431   1.254   4.318  11.343  0.6346 -0.3456  0.5893
 5006TIP3   OH236432   6.194   6.567   3.683 -0.3041 -0.1002 -0.4596
 5006TIP3    H136433   6.289   6.566   3.674 -0.1886  0.5068  0.6037
 5006TIP3    H236434   6.178   6.557   3.777 -1.3148 -0.9786 -0.7028
 5007TIP3   OH236435   3.218   1.999  12.735  0.7379 -0.2176  0.0667
 5007TIP3    H136436   3.188   2.089  12.718  0.4520  0.2168  2.4847
 5007TIP3    H236437   3.143   1.944  12.712  0.9148  0.1209 -1.4439
 5008TIP3   OH236438   1.908   6.463   4.100 -0.1907 -0.3457 -0.2996
 5008TIP3    H136439   1.820   6.436   4.074 -1.3975  1.8908  1.0897
 5008TIP3    H236440   1.902   6.559   4.109  2.1798 -0.1952  0.5893
 5009TIP3   OH236441   5.554   0.438   4.973  0.0177  0.4196  0.3094
 5009TIP3    H136442   5.484   0.375   4.994  0.2975 -0.3223 -0.8593
 5009TIP3    H236443   5.605   0.394   4.904 -0.0250  2.1049 -0.8478
 5010TIP3   OH236444   6.286   3.830  13.639 -0.0432  0.0088 -0.1086
 5010TIP3    H136445   6.231   3.753  13.654  0.2599  0.3368  3.5581
 5010TIP3    H236446   6.227   3.895  13.600 -1.5419 -0.5951  1.0682
 5011TIP3   OH236447   5.958   5.387  16.410 -0.1347  0.0044 -0.8105
 5011TIP3    H136448   6.052   5.382  16.429 -0.4628 -0.0257  0.9916
 5011TIP3    H236449   5.919   5.321  16.467 -1.5388  2.0637  0.7464
 5012TIP3   OH236450   1.928   0.001   2.745  0.3927  0.1539 -0.4598
 5012TIP3    H136451   2.017   0.032   2.727  0.2300  0.4175 -0.8360
 5012TIP3    H236452   1.937  -0.057   2.821  0.7386  0.9414  0.1081
 5013TIP3   OH236453   2.478   3.206   2.203  0.4874  0.0499  0.1032
 5013TIP3    H136454   2.489   3.294   2.239 -0.3352 -0.2068  1.0101
 5013TIP3    H236455   2.547   3.199   2.136  1.1007  1.0648  0.6065
 5014TIP3   OH236456   1.764   0.645   4.593 -0.2677  0.2241  0.5155
 5014TIP3    H136457   1.752   0.593   4.514  1.0465  1.7114 -0.7289
 5014TIP3    H236458   1.803   0.584   4.656  0.0293 -0.6219 -0.4685
 5015TIP3   OH236459   6.055   3.698   5.026 -0.2301  0.2066  0.1723
 5015TIP3    H136460   6.121   3.751   4.982 -0.2330  1.6671  1.7902
 5015TIP3    H236461   5.981   3.696   4.965  1.1529 -1.2354 -1.5506
 5016TIP3   OH236462   0.893   1.818   6.108  0.3412 -0.4734  0.4460
 5016TIP3    H136463   0.862   1.780   6.025 -1.8218  2.7042 -0.4023
 5016TIP3    H236464   0.876   1.750   6.173 -2.3750 -1.3784 -1.0401
 5017TIP3   OH236465   0.367   5.948  14.800 -0.3074  0.4503  0.1862
 5017TIP3    H136466   0.289   5.893  14.808  0.3313 -0.4552  0.4151
 5017TIP3    H236467   0.409   5.941  14.886 -0.3201  1.4950  0.2983
 5018TIP3   OH236468   2.474   6.701  12.167 -0.0633  0.2489  0.0862
 5018TIP3    H136469   2.464   6.771  12.103 -2.0195  1.4272  1.5667
 5018TIP3    H236470   2.526   6.634  12.122 -1.4238  0.9546 -2.7531
 5019TIP3   OH236471   1.380   1.359  11.769  0.3730  0.0588  0.5071
 5019TIP3    H136472   1.323   1.414  11.716  1.0333  0.2839  0.0139
 5019TIP3    H236473   1.394   1.280  11.717  0.8177  0.1716  0.4463
 5020TIP3   OH236474   6.172   6.316  16.565 -0.0564  0.0636 -0.5892
 5020TIP3    H136475   6.246   6.276  16.610 -0.1377  0.2215 -0.3129
 5020TIP3    H236476   6.139   6.381  16.627  0.5219  1.0736 -1.3046
 5021TIP3   OH236477   5.201   0.303   0.205 -0.4505  0.1109  0.2074
 5021TIP3    H136478   5.286   0.259   0.203 -0.4384  0.0712  1.0802
 5021TIP3    H236479   5.137   0.231   0.212 -0.5045  0.1758  0.3858
 5022TIP3   OH236480   2.760   4.019   3.329  0.6304  0.3879 -0.3376
 5022TIP3    H136481   2.754   4.007   3.235 -0.7975  0.0227 -0.2172
 5022TIP3    H236482   2.730   3.936   3.366 -0.5524  1.1335  0.4407
 5023TIP3   OH236483   3.828   4.531   0.529 -0.2206 -0.1986  0.1547
 5023TIP3    H136484   3.884   4.458   0.503  0.0507  0.5239 -1.3849
 5023TIP3    H236485   3.740   4.493   0.534 -0.2331 -0.4516 -1.5877
 5024TIP3   OH236486   5.094   5.058  15.971  0.4689  0.8214  0.3153
 5024TIP3    H136487   5.071   4.971  16.003  1.2267 -0.0302 -1.3158
 5024TIP3    H236488   5.012   5.107  15.973 -0.0100  0.0081  1.0693
 5025TIP3   OH236489   1.341   4.324  14.611  0.3125 -0.0275  0.6088
 5025TIP3    H136490   1.385   4.251  14.568 -0.6263 -0.7934  0.9091
 5025TIP3    H236491   1.397   4.399  14.594  1.2509 -0.7950  0.2045
 5026TIP3   OH236492   2.132   4.355  14.972  0.2524 -0.7365 -0.8595
 5026TIP3    H136493   2.221   4.322  14.974  0.8464  0.8128  0.3130
 5026TIP3    H236494   2.136   4.438  15.019 -2.0040 -1.0797  0.0548
 5027TIP3   OH236495   1.056   6.357   3.264  0.5687 -0.7638  0.1202
 5027TIP3    H136496   1.062   6.452   3.252  1.1394 -0.9481 -1.2481
 5027TIP3    H236497   0.964   6.341   3.283  0.3292 -0.0062 -0.3487
 5028TIP3   OH236498   0.107   2.236   0.276  0.2506  0.2619 -0.2914
 5028TIP3    H136499   0.017   2.251   0.306 -0.1649  1.3667 -1.9530
 5028TIP3    H236500   0.150   2.321   0.287  1.1779 -0.3143  0.6915
 5029TIP3   OH236501   2.261   2.353  16.694 -0.5033  0.1897 -0.0291
 5029TIP3    H136502   2.243   2.269  16.652  0.7940 -0.5601  0.8098
 5029TIP3    H236503   2.344   2.339  16.740  0.1032  2.1557 -0.4371
 5030TIP3   OH236504   2.909   2.297  11.792 -0.3017 -0.7060  0.1039
 5030TIP3    H136505   2.958   2.219  11.819 -1.1800 -0.5354  2.3658
 5030TIP3    H236506   2.926   2.304  11.698  0.5618 -3.0753  0.0120
 5031TIP3   OH236507   0.362   1.377  12.675 -0.7005 -0.3903  0.4640
 5031TIP3    H136508   0.397   1.312  12.736  0.3529  0.9047  1.3183
 5031TIP3    H236509   0.277   1.402  12.713  0.0387  0.5544  1.5652
 5032TIP3   OH236510   0.030   6.585  15.620 -0.0384 -0.6267  0.0105
 5032TIP3    H136511  -0.013   6.521  15.563  0.4066 -0.2635 -0.7501
 5032TIP3    H236512   0.020   6.668  15.574  1.7831 -0.5877 -0.3699
 5033TIP3   OH236513   1.493   0.817   2.965  0.1309 -0.9251 -0.2798
 5033TIP3    H136514   1.586   0.832   2.948  0.6416 -1.2217  1.9064
 5033TIP3    H236515   1.463   0.765   2.891  1.8074 -1.1323 -0.8534
 5034TIP3   OH236516   3.060   2.169   1.318  0.2796  0.5225  0.0287
 5034TIP3    H136517   3.086   2.127   1.400  1.2501  2.2272  0.6266
 5034TIP3    H236518   2.984   2.223   1.341  0.0002  0.3221 -0.3980
 5035TIP3   OH236519   5.643   1.087  15.155 -0.7546  0.5230 -0.0796
 5035TIP3    H136520   5.581   1.014  15.153  0.7924 -0.8342 -0.6663
 5035TIP3    H236521   5.702   1.066  15.228 -0.4058  1.3167 -0.1218
 5036TIP3   OH236522   3.775   4.895   3.180  0.2471  0.0157  0.0777
 5036TIP3    H136523   3.690   4.859   3.203 -1.0860  1.1880 -2.6089
 5036TIP3    H236524   3.761   4.989   3.174  1.2778  0.0957 -1.9394
 5037TIP3   OH236525   4.675   0.878  12.560  0.0984 -0.6102 -0.0554
 5037TIP3    H136526   4.697   0.828  12.481 -0.2939 -0.6793 -0.1245
 5037TIP3    H236527   4.699   0.822  12.633 -0.4827 -0.9729 -0.1328
 5038TIP3   OH236528   1.313   0.561  15.179 -0.3123  0.3861 -0.1397
 5038TIP3    H136529   1.251   0.633  15.176 -0.6391  0.0736 -1.2035
 5038TIP3    H236530   1.270   0.494  15.232 -0.8979  0.1580 -0.9013
 5039TIP3   OH236531   3.458   2.544   0.745  0.2180  0.2152  0.4532
 5039TIP3    H136532   3.530   2.595   0.783  1.8304 -1.2538 -0.5183
 5039TIP3    H236533   3.420   2.603   0.680  2.4974  0.0720 -1.1509
 5040TIP3   OH236534   6.474   0.889   3.410  0.6142 -0.4999  0.0763
 5040TIP3    H136535   6.457   0.857   3.499 -2.0188 -0.2927 -0.2571
 5040TIP3    H236536   6.494   0.810   3.360  1.5131 -0.6908  0.7210
 5041TIP3   OH236537   4.793   6.148   2.237 -0.2051 -0.9864 -0.2850
 5041TIP3    H136538   4.775   6.138   2.143 -0.4213 -0.8664 -0.2573
 5041TIP3    H236539   4.711   6.181   2.273  0.0955 -0.3734 -0.1650
 5042TIP3   OH236540   5.279   6.356   5.479  0.3910 -0.7415 -0.1214
 5042TIP3    H136541   5.290   6.384   5.570 -1.6176  0.3842 -0.1859
 5042TIP3    H236542   5.310   6.265   5.479  2.5168 -0.1026  1.1547
 5043TIP3   OH236543   0.070   4.777   4.664  0.2964 -0.2944 -0.2386
 5043TIP3    H136544   0.103   4.761   4.576  0.7571 -2.3892  0.2592
 5043TIP3    H236545  -0.025   4.779   4.654  0.3493 -0.3669 -0.7839
 5044TIP3   OH236546   6.532   0.388   5.693  0.2892  0.3047  0.1467
 5044TIP3    H136547   6.445   0.348   5.696  0.4339 -0.1347 -0.8804
 5044TIP3    H236548   6.587   0.332   5.748 -0.1076  0.6853  0.9422
 5045TIP3   OH236549   5.509   4.600   3.350 -0.6169 -0.2185 -0.2195
 5045TIP3    H136550   5.460   4.679   3.329  0.9306  0.8198 -0.0757
 5045TIP3    H236551   5.599   4.630   3.362 -0.0384 -1.9690  0.0938
 5046TIP3   OH236552   1.536   6.304  12.157 -0.0967 -0.0152  0.0635
 5046TIP3    H136553   1.603   6.242  12.128  0.3572  0.5428 -0.0812
 5046TIP3    H236554   1.479   6.315  12.081 -0.5751 -0.7709  0.3002
 5047TIP3   OH236555   2.136   4.066   5.737  0.0195  0.8484  0.2232
 5047TIP3    H136556   2.069   4.024   5.791  0.2538  1.5036  1.0298
 5047TIP3    H236557   2.218   4.025   5.764 -0.0209  0.1507 -0.6623
 5048TIP3   OH236558   3.307   5.900  13.137 -0.7172 -0.2786 -0.6447
 5048TIP3    H136559   3.270   5.812  13.148 -0.4908 -0.3245 -0.2290
 5048TIP3    H236560   3.244   5.958  13.180 -0.3396 -0.3535  0.0335
 5049TIP3   OH236561   3.000   5.065  14.344 -0.3328  0.1119  0.2809
 5049TIP3    H136562   3.087   5.106  14.338  0.4362 -1.4997 -0.2417
 5049TIP3    H236563   3.017   4.980  14.386 -1.6916 -0.1340  0.3632
 5050TIP3   OH236564   1.654   4.660  11.097 -0.2687 -0.0373  0.3726
 5050TIP3    H136565   1.618   4.749  11.103  1.8343  0.7995  1.5813
 5050TIP3    H236566   1.677   4.650  11.004 -0.5467  0.6588  0.2204
 5051TIP3   OH236567   0.658   0.990  16.075  0.3632 -0.0070  0.3342
 5051TIP3    H136568   0.662   1.075  16.119 -0.2825  1.1218 -1.6907
 5051TIP3    H236569   0.745   0.952  16.089  0.4726  0.6997  1.7556
 5052TIP3   OH236570   6.359   0.632  15.235  0.5949 -0.0263  0.2211
 5052TIP3    H136571   6.386   0.683  15.311  1.1508  0.2493 -0.1520
 5052TIP3    H236572   6.291   0.684  15.194 -1.6769 -1.4040  1.9909
 5053TIP3   OH236573   6.333   0.408   4.829  0.1182  0.3487  0.5901
 5053TIP3    H136574   6.277   0.415   4.907 -1.7637 -1.4908 -0.4924
 5053TIP3    H236575   6.312   0.486   4.778 -0.9665  0.0404  0.5342
 5054TIP3   OH236576   1.915   3.524   3.160 -0.3874  0.7378 -0.1208
 5054TIP3    H136577   1.890   3.568   3.242 -0.6821  0.2525  0.0547
 5054TIP3    H236578   1.861   3.566   3.093  1.9894  3.2504 -0.5933
 5055TIP3   OH236579   0.325   5.206   4.706  0.3518  0.0681 -0.5484
 5055TIP3    H136580   0.250   5.265   4.706 -0.4764 -0.8183  1.9891
 5055TIP3    H236581   0.378   5.235   4.781  1.6293 -0.4233 -1.2242
 5056TIP3   OH236582   3.237   4.898   4.556 -0.4491  0.5722  0.6433
 5056TIP3    H136583   3.267   4.881   4.467  1.8554  1.3951  1.1893
 5056TIP3    H236584   3.201   4.986   4.553 -1.1210  0.3006  0.3921
 5057TIP3   OH236585   5.095   5.459   0.047  0.9139  0.2192 -0.0482
 5057TIP3    H136586   5.127   5.542   0.082 -1.1816  0.8516  0.5220
 5057TIP3    H236587   5.093   5.400   0.123  0.5113  0.2765 -0.0083
 5058TIP3   OH236588   0.287   5.036   4.314  0.0063 -0.6487 -0.1240
 5058TIP3    H136589   0.288   4.989   4.397  1.6694 -1.1989 -0.4229
 5058TIP3    H236590   0.234   4.981   4.256 -1.7073  0.0561  0.7044
 5059TIP3   OH236591   0.017   0.138   0.979 -0.0481 -0.2203  0.1223
 5059TIP3    H136592   0.030   0.051   1.017  0.7298  0.0465  0.5011
 5059TIP3    H236593  -0.077   0.148   0.970 -0.1239 -1.9558 -1.9324
 5060TIP3   OH236594   2.801   0.054   3.181  0.4834  0.2032  0.1835
 5060TIP3    H136595   2.753   0.081   3.102  3.4214  1.8942 -1.2201
 5060TIP3    H236596   2.859   0.128   3.200  2.1974 -1.4692  1.9769
 5061TIP3   OH236597   4.950   4.776   1.584  0.4003  0.6033 -0.1448
 5061TIP3    H136598   4.916   4.800   1.670 -2.4179  0.5551 -1.1730
 5061TIP3    H236599   4.917   4.687   1.569  1.8624  0.1330 -0.8216
 5062TIP3   OH236600   0.957   2.718  14.178  0.6439 -0.0930 -0.2438
 5062TIP3    H136601   0.936   2.811  14.187  0.1135 -0.1628 -0.6593
 5062TIP3    H236602   1.045   2.717  14.141  0.3917  0.2657 -0.8860
 5063TIP3   OH236603   1.543   5.910  11.576 -0.1506  0.2635  0.0131
 5063TIP3    H136604   1.510   5.856  11.647 -0.4700  1.2336  0.6228
 5063TIP3    H236605   1.626   5.869  11.552 -0.6672 -0.8314  0.0531
 5064TIP3   OH236606   2.877   0.948  11.124  0.2732 -0.4675 -0.2665
 5064TIP3    H136607   2.958   0.903  11.149  0.6211  0.8940  1.2531
 5064TIP3    H236608   2.838   0.892  11.057  2.0807 -1.5558 -0.4796
 5065TIP3   OH236609   3.222   5.963   4.697 -0.0092 -0.0501  0.1718
 5065TIP3    H136610   3.258   6.045   4.663 -0.8759  1.7854  3.3473
 5065TIP3    H236611   3.128   5.973   4.687 -0.2090  0.0574  1.9581
 5066TIP3   OH236612   1.629   0.440   5.736  0.4286 -0.0102 -0.0026
 5066TIP3    H136613   1.706   0.479   5.694  0.7917 -0.2299  0.4428
 5066TIP3    H236614   1.631   0.348   5.708 -0.6157  0.3345 -1.3263
 5067TIP3   OH236615   0.036   5.636   5.133 -0.9341 -0.5808  0.3029
 5067TIP3    H136616  -0.058   5.622   5.136 -0.8303 -1.5733 -0.3206
 5067TIP3    H236617   0.073   5.553   5.164 -0.2646 -1.0178 -1.5523
 5068TIP3   OH236618   3.761   6.154   4.854 -0.4361  0.0535 -0.6163
 5068TIP3    H136619   3.843   6.184   4.893 -0.6028 -1.4743  1.0328
 5068TIP3    H236620   3.709   6.123   4.928 -2.1406  0.1255 -1.7339
 5069TIP3   OH236621   5.125   3.329  14.058 -0.3289 -0.3585  0.1306
 5069TIP3    H136622   5.184   3.403  14.044 -3.1460  2.5577  2.1719
 5069TIP3    H236623   5.082   3.318  13.973  0.6271 -0.1348 -0.3979
 5070TIP3   OH236624   1.902   3.990  16.933  0.0192 -0.3888  0.9242
 5070TIP3    H136625   1.979   3.938  16.912  0.5862  0.7835 -0.0260
 5070TIP3    H236626   1.828   3.941  16.896  0.4355 -0.9282  0.7968
 5071TIP3   OH236627   5.526   0.955  16.331 -0.1803  0.2487  0.3360
 5071TIP3    H136628   5.451   0.953  16.391  0.8352 -1.2798  1.6126
 5071TIP3    H236629   5.508   1.030  16.274 -2.4512  0.1961  0.8832
 5072TIP3   OH236630   3.060   5.505  12.437  0.0931 -0.1140  0.0111
 5072TIP3    H136631   3.147   5.539  12.459 -0.2239  1.9811 -1.6320
 5072TIP3    H236632   3.003   5.538  12.507  0.4836 -1.0019  0.7745
 5073TIP3   OH236633   4.740   1.328  14.436 -0.4070 -0.2558 -0.1120
 5073TIP3    H136634   4.776   1.365  14.517 -0.8854  0.1308 -0.0744
 5073TIP3    H236635   4.727   1.235  14.456 -2.0129  0.1393  0.7915
 5074TIP3   OH236636   5.823   1.672  14.561  0.2952  0.6646  0.1031
 5074TIP3    H136637   5.791   1.582  14.564 -1.0531  0.9636 -2.2816
 5074TIP3    H236638   5.838   1.697  14.652  0.3211 -1.8202  0.8272
 5075TIP3   OH236639   0.692   4.946  13.693  0.3432 -0.8052 -0.4949
 5075TIP3    H136640   0.700   4.918  13.602  0.5005 -1.4977 -0.2728
 5075TIP3    H236641   0.779   4.979  13.716  0.0681  0.2474 -0.8632
 5076TIP3   OH236642   1.368   3.574  14.586 -0.2539  0.0406  0.4462
 5076TIP3    H136643   1.379   3.665  14.611 -0.6542 -0.2730  1.8390
 5076TIP3    H236644   1.433   3.527  14.638  0.1616 -0.4404 -0.4891
 5077TIP3   OH236645   1.513   6.336  13.818  0.7131  0.3753 -0.4271
 5077TIP3    H136646   1.533   6.348  13.725  0.3428  2.0403 -0.3211
 5077TIP3    H236647   1.429   6.379  13.830  0.3559 -0.5634  0.5294
 5078TIP3   OH236648   6.169   4.047  15.156 -0.5444 -0.0350 -0.0697
 5078TIP3    H136649   6.123   3.964  15.150 -1.3803  0.4739 -1.0066
 5078TIP3    H236650   6.127   4.093  15.228 -1.2570  0.2744 -0.6772
 5079TIP3   OH236651   3.272   2.195   0.843  0.0317 -1.0785 -0.3414
 5079TIP3    H136652   3.301   2.281   0.874  0.8802 -1.6214  0.3953
 5079TIP3    H236653   3.223   2.158   0.916  0.2614 -1.5089 -0.4048
 5080TIP3   OH236654   0.692   5.025   1.187  0.2533  0.0315  0.0870
 5080TIP3    H136655   0.648   4.948   1.151 -0.6395  0.2281  0.7044
 5080TIP3    H236656   0.716   4.999   1.276 -1.5533  0.9650  0.9097
 5081TIP3   OH236657   6.620   4.246  13.359  0.0508 -0.1457  0.2701
 5081TIP3    H136658   6.651   4.263  13.448  0.1749  0.9902  0.0278
 5081TIP3    H236659   6.559   4.174  13.368  0.1901 -0.1482  1.2570
 5082TIP3   OH236660   5.529   3.645   2.458 -0.7934  0.3488 -0.0335
 5082TIP3    H136661   5.575   3.672   2.537 -2.4075  0.9897  0.7367
 5082TIP3    H236662   5.501   3.555   2.477 -2.4479  0.9966  0.7738
 5083TIP3   OH236663   1.191   5.119   3.700 -0.0553  0.2506  0.0382
 5083TIP3    H136664   1.136   5.049   3.665  0.0148  0.0811  0.2679
 5083TIP3    H236665   1.266   5.075   3.739 -0.2722  0.4105  0.6621
 5084TIP3   OH236666   0.368   0.685  15.972  0.2266 -0.5161  0.2038
 5084TIP3    H136667   0.367   0.734  16.054  0.6331 -0.9405  0.4682
 5084TIP3    H236668   0.339   0.747  15.906 -0.8980 -0.3967  0.7912
 5085TIP3   OH236669   1.251   4.858  11.878 -0.3342 -0.0120 -0.1671
 5085TIP3    H136670   1.220   4.948  11.881 -2.7634 -0.7899  1.4053
 5085TIP3    H236671   1.246   4.834  11.785 -0.0952  1.3146 -0.5402
 5086TIP3   OH236672   1.254   1.365   4.956 -0.0074 -0.1346 -0.3923
 5086TIP3    H136673   1.324   1.317   4.913 -0.5844 -1.0464 -0.3323
 5086TIP3    H236674   1.202   1.298   5.001 -0.6824  0.5654 -0.1027
 5087TIP3   OH236675   2.314   0.674   2.231 -0.0639 -0.1903  0.4147
 5087TIP3    H136676   2.407   0.659   2.216  0.7140 -0.0494  4.2030
 5087TIP3    H236677   2.302   0.768   2.220  0.1514 -0.2502 -0.3644
 5088TIP3   OH236678   0.586   2.910  16.377 -0.4541  0.0244 -0.3621
 5088TIP3    H136679   0.649   2.950  16.438  0.9557 -2.0856 -0.3385
 5088TIP3    H236680   0.560   2.982  16.320 -2.1139  2.2228  2.8138
 5089TIP3   OH236681   3.352   3.102  15.147  0.1228 -0.3123  0.7603
 5089TIP3    H136682   3.436   3.057  15.145  0.0288 -0.4749 -0.8040
 5089TIP3    H236683   3.287   3.031  15.150  0.0174 -0.2123  0.8732
 5090TIP3   OH236684   3.275   5.849  13.823 -0.0742  0.5028  0.3099
 5090TIP3    H136685   3.228   5.765  13.826 -1.6903  1.3828  0.8234
 5090TIP3    H236686   3.321   5.854  13.907  1.0229 -0.3885 -0.2146
 5091TIP3   OH236687   4.898   3.759   3.698 -0.0021 -0.4146 -0.6343
 5091TIP3    H136688   4.951   3.703   3.755  2.1232  0.9458 -1.1626
 5091TIP3    H236689   4.886   3.708   3.618  0.8294 -0.6348 -0.6313
 5092TIP3   OH236690   1.770   6.154  16.106 -0.1816  0.5746 -0.3297
 5092TIP3    H136691   1.714   6.198  16.170 -0.0031 -1.9557  1.7312
 5092TIP3    H236692   1.846   6.212  16.098  1.2675 -0.2586  4.2188
 5093TIP3   OH236693   0.006   1.397  14.398  0.0314  0.2305  0.6087
 5093TIP3    H136694  -0.067   1.449  14.431  0.1961 -0.5108  2.2627
 5093TIP3    H236695   0.084   1.444  14.428  0.2252  0.4078 -0.1541
 5094TIP3   OH236696   1.025   5.624   0.781  0.0170  0.2681  0.2095
 5094TIP3    H136697   1.047   5.690   0.716  0.1132 -0.4502 -0.5087
 5094TIP3    H236698   1.098   5.626   0.843  0.5071  0.1536 -0.3563
 5095TIP3   OH236699   4.406   5.540   0.821 -0.3323  0.6809 -0.0110
 5095TIP3    H136700   4.458   5.602   0.871  0.4722  0.7715 -0.9343
 5095TIP3    H236701   4.345   5.503   0.885 -0.2607  1.7872  0.7381
 5096TIP3   OH236702   2.469   0.634  14.162 -0.3268 -0.2420 -0.2358
 5096TIP3    H136703   2.377   0.649  14.182 -0.3156  0.3825 -0.6333
 5096TIP3    H236704   2.516   0.661  14.241 -0.4437  0.0135 -0.2523
 5097TIP3   OH236705   2.352   6.446   4.771 -0.1641  0.1539  0.1356
 5097TIP3    H136706   2.365   6.424   4.864 -1.7261 -0.7666  0.1768
 5097TIP3    H236707   2.261   6.475   4.766 -0.3606 -0.6006 -1.2335
 5098TIP3   OH236708   0.061   5.264   3.563 -0.1872  0.3727 -0.1299
 5098TIP3    H136709   0.132   5.297   3.507 -0.0015  1.3881  0.6834
 5098TIP3    H236710   0.078   5.170   3.570  1.0617  0.5908  0.0148
 5099TIP3   OH236711   4.849   6.154   3.102  0.5446  0.4369 -0.3033
 5099TIP3    H136712   4.799   6.128   3.179 -0.2697  1.5166 -0.4448
 5099TIP3    H236713   4.860   6.073   3.051 -0.5400  0.0691  0.0303
 5100TIP3   OH236714   1.265   1.605  16.447 -0.1744 -0.0024  0.0391
 5100TIP3    H136715   1.322   1.630  16.374  0.4045 -0.4675  0.3143
 5100TIP3    H236716   1.293   1.661  16.520 -0.0736 -0.2163  0.1680
 5101TIP3   OH236717   0.272   0.174  14.761  0.3152 -0.4166 -0.3760
 5101TIP3    H136718   0.306   0.263  14.762  2.3214 -1.1289  0.5447
 5101TIP3    H236719   0.326   0.129  14.694  2.2673 -1.9018  2.0144
 5102TIP3   OH236720   2.082   3.241  15.993 -0.3809  0.5555  0.1053
 5102TIP3    H136721   2.077   3.275  15.904  0.4822  2.5291  0.7497
 5102TIP3    H236722   2.133   3.160  15.986 -1.8698 -0.3058 -1.3954
 5103TIP3   OH236723   4.710   3.051   4.471 -0.2188  0.4750 -0.4634
 5103TIP3    H136724   4.630   3.018   4.430 -0.3720 -1.0277  0.9826
 5103TIP3    H236725   4.681   3.125   4.524 -0.6402  0.0049 -0.0327
 5104TIP3   OH236726   2.506   0.756   3.444 -0.2090 -0.7939  0.0846
 5104TIP3    H136727   2.426   0.799   3.474 -0.1879 -0.8185  0.1773
 5104TIP3    H236728   2.534   0.704   3.519  0.7353  0.4255  0.6258
 5105TIP3   OH236729   4.897   5.211   5.813  0.3258  0.2480  0.5829
 5105TIP3    H136730   4.899   5.152   5.738 -2.4941  2.2811 -1.3061
 5105TIP3    H236731   4.859   5.159   5.884  0.5131 -0.9562 -0.1742
 5106TIP3   OH236732   5.558   0.801   4.643  0.2759  0.2665 -0.0514
 5106TIP3    H136733   5.526   0.763   4.725 -0.5127  1.4975  0.2354
 5106TIP3    H236734   5.530   0.740   4.575 -1.2030  0.4510  0.3675
 5107TIP3   OH236735   1.256   0.485   0.808  0.0619  0.5231  0.3959
 5107TIP3    H136736   1.262   0.421   0.737  2.0752  0.9081  0.1581
 5107TIP3    H236737   1.265   0.434   0.888 -0.8109  0.2493  0.3273
 5108TIP3   OH236738   4.290   2.583  12.854 -0.0071 -0.2962 -0.1136
 5108TIP3    H136739   4.268   2.632  12.775  0.4971  0.1859  0.0400
 5108TIP3    H236740   4.291   2.649  12.923  0.7859 -0.5070  0.0763
 5109TIP3   OH236741   4.014   0.208  15.071 -0.4578  0.1962  0.1475
 5109TIP3    H136742   4.034   0.172  14.984 -1.1589  1.0795 -0.3944
 5109TIP3    H236743   3.919   0.224  15.069 -0.8129 -1.4142  1.7069
 5110TIP3   OH236744   1.832   5.828   2.094 -0.0761  0.2113 -0.1261
 5110TIP3    H136745   1.873   5.758   2.144  0.2387 -0.6719 -1.5693
 5110TIP3    H236746   1.857   5.908   2.140 -2.8822 -0.6325  3.3472
 5111TIP3   OH236747   2.712   4.226   5.768  0.4611 -0.5604 -0.7427
 5111TIP3    H136748   2.619   4.205   5.761 -0.3737  2.3310  0.1356
 5111TIP3    H236749   2.728   4.231   5.863  1.2583 -0.0517 -0.8936
 5112TIP3   OH236750   4.046   0.141   2.018 -0.0127  0.3361  0.3029
 5112TIP3    H136751   3.984   0.081   1.975 -0.0540  0.6879 -0.1371
 5112TIP3    H236752   4.031   0.225   1.975  0.6150  0.4760  0.3522
 5113TIP3   OH236753   6.724   5.723  16.547  0.5366 -0.5455  0.0374
 5113TIP3    H136754   6.664   5.790  16.580  1.2088  0.1375 -0.1000
 5113TIP3    H236755   6.694   5.706  16.458 -0.3138 -1.2397  0.4485
 5114TIP3   OH236756   4.606   5.339  16.518  0.6087  0.5485 -0.4978
 5114TIP3    H136757   4.632   5.309  16.431  0.4462 -0.0408 -0.3502
 5114TIP3    H236758   4.587   5.258  16.566  0.8406  0.8605  0.1291
 5115TIP3   OH236759   0.146   0.504   2.713  0.3014  0.2117  0.1189
 5115TIP3    H136760   0.054   0.480   2.699  0.4598 -0.9792  0.9384
 5115TIP3    H236761   0.185   0.425   2.751  1.4544  1.0087  0.6357
 5116TIP3   OH236762   3.625   2.130   5.227 -0.6571 -0.1156 -0.0249
 5116TIP3    H136763   3.530   2.131   5.240 -0.5914 -0.9393  0.6166
 5116TIP3    H236764   3.639   2.185   5.149 -1.6483  0.0383 -0.1135
 5117TIP3   OH236765   4.332   0.027  15.753 -0.4746 -0.3910 -0.1116
 5117TIP3    H136766   4.407   0.055  15.701  0.2491 -1.0972  0.5154
 5117TIP3    H236767   4.319   0.097  15.817 -0.5450 -0.1266 -0.4151
 5118TIP3   OH236768   6.597   4.341  13.100  0.0048 -0.3686  0.5036
 5118TIP3    H136769   6.606   4.262  13.046  2.4550 -0.1911  0.5162
 5118TIP3    H236770   6.565   4.308  13.184  0.3078 -1.2786  0.2831
 5119TIP3   OH236771   2.985   3.994   4.393 -0.1472 -0.0129 -0.0629
 5119TIP3    H136772   2.968   3.910   4.349  1.8937 -0.8214  0.5592
 5119TIP3    H236773   3.058   4.032   4.345 -0.8802  1.3264 -0.1704
 5120TIP3   OH236774   0.387   5.891   2.188 -0.0973  0.4777 -0.2126
 5120TIP3    H136775   0.314   5.921   2.242 -0.0034  0.9141 -0.3222
 5120TIP3    H236776   0.409   5.804   2.222  0.3133  0.9678  0.8124
 5121TIP3   OH236777   2.487   5.638  12.141 -0.0158  0.0695  0.2932
 5121TIP3    H136778   2.525   5.650  12.054  3.0616 -0.6686  1.4104
 5121TIP3    H236779   2.530   5.560  12.175 -1.8505 -0.2173  2.1564
 5122TIP3   OH236780   5.464   2.699  11.133  0.1877 -0.1214 -0.3914
 5122TIP3    H136781   5.378   2.690  11.175  0.1118 -1.5925 -0.7759
 5122TIP3    H236782   5.518   2.743  11.198 -0.2583 -1.2350  0.7932
 5123TIP3   OH236783   5.150   0.432  17.215 -0.5136 -0.3147  0.1555
 5123TIP3    H136784   5.114   0.368  17.276 -0.4494 -0.6501 -0.1525
 5123TIP3    H236785   5.170   0.381  17.136 -1.7085  0.3258 -0.5846
 5124TIP3   OH236786   1.519   5.492   4.192 -0.3698 -0.4258 -0.4736
 5124TIP3    H136787   1.517   5.555   4.120  0.4840  0.2667  0.0839
 5124TIP3    H236788   1.476   5.537   4.265 -0.7804 -0.9317 -0.3953
 5125TIP3   OH236789   6.312   3.904   0.644 -0.2619 -0.1431  0.2316
 5125TIP3    H136790   6.260   3.975   0.682  0.2218  0.3285  0.0076
 5125TIP3    H236791   6.256   3.827   0.654 -1.6583  0.6116 -1.3502
 5126TIP3   OH236792   5.442   3.366  17.257 -0.0903  0.0080 -0.0272
 5126TIP3    H136793   5.410   3.419  17.183 -1.0550  1.2392  1.2188
 5126TIP3    H236794   5.401   3.281  17.244 -1.0816  0.5178 -0.3645
 5127TIP3   OH236795   1.503   5.436   6.246  0.6138 -0.3690  0.0992
 5127TIP3    H136796   1.421   5.458   6.202  0.0195  1.0570  1.7960
 5127TIP3    H236797   1.482   5.358   6.297  0.1661  0.1789  0.7881
 5128TIP3   OH236798   0.334   4.434   5.287  0.0664 -0.1331 -0.0539
 5128TIP3    H136799   0.353   4.476   5.371  0.3504 -0.6997  0.1693
 5128TIP3    H236800   0.245   4.400   5.297  0.6759 -1.6184  0.6211
 5129TIP3   OH236801   6.202   1.599  15.028 -0.3347  0.1944  0.1101
 5129TIP3    H136802   6.132   1.630  15.085  0.1853  0.0506  0.8409
 5129TIP3    H236803   6.220   1.672  14.969 -3.1834 -0.7623 -2.1909
 5130TIP3   OH236804   2.164   4.439  13.894  0.2861 -0.9478 -0.0517
 5130TIP3    H136805   2.245   4.407  13.935  2.1500  1.7655 -1.2760
 5130TIP3    H236806   2.148   4.378  13.821  1.6793 -1.1231 -0.2389
 5131TIP3   OH236807   0.176   6.168   3.416  0.1159  0.8670  0.2877
 5131TIP3    H136808   0.204   6.228   3.346 -0.7905 -0.3891 -1.2196
 5131TIP3    H236809   0.126   6.223   3.476  0.3434  1.8575 -0.4006
 5132TIP3   OH236810   2.886   4.327  14.523  0.1638 -0.3195  0.4493
 5132TIP3    H136811   2.846   4.340  14.437 -0.2266 -0.3491  0.6235
 5132TIP3    H236812   2.972   4.369  14.516 -0.9090  2.1624  0.8850
 5133TIP3   OH236813   3.043   0.642   3.857  0.3401  0.4174  0.3148
 5133TIP3    H136814   3.113   0.660   3.794 -1.0301  2.2279 -0.7953
 5133TIP3    H236815   2.981   0.714   3.844 -1.7242 -1.1129  1.2597
 5134TIP3   OH236816   2.874   1.872   1.584 -0.8200  0.2384  0.1138
 5134TIP3    H136817   2.831   1.904   1.663  2.7466  1.1050  1.9104
 5134TIP3    H236818   2.877   1.777   1.595 -0.5792  0.3305  0.8858
 5135TIP3   OH236819   6.247   4.887   3.651 -0.4579  0.4047 -0.7650
 5135TIP3    H136820   6.236   4.948   3.578 -0.9278  1.3922  0.1110
 5135TIP3    H236821   6.234   4.940   3.729 -1.7647 -0.9695  0.0161
 5136TIP3   OH236822   2.086   6.227  11.541 -0.3879  0.3992  0.0926
 5136TIP3    H136823   2.018   6.244  11.476 -1.8299  2.9073  2.0705
 5136TIP3    H236824   2.168   6.229  11.491 -1.4674  1.7446 -1.7483
 5137TIP3   OH236825   4.341   0.199   4.161 -0.5515 -0.1728 -0.2396
 5137TIP3    H136826   4.264   0.254   4.177  0.8139  1.7790  0.0798
 5137TIP3    H236827   4.369   0.222   4.072 -0.0349 -0.4348 -0.1510
 5138TIP3   OH236828   5.857   4.287   0.824 -0.1492  0.3090  0.7306
 5138TIP3    H136829   5.885   4.285   0.733 -0.3947 -0.5676  0.6579
 5138TIP3    H236830   5.894   4.367   0.860 -0.4360  0.8951 -0.2626
 5139TIP3   OH236831   6.229   1.169  15.883 -0.4042 -0.2354 -0.0884
 5139TIP3    H136832   6.178   1.189  15.962 -0.4770  1.7370 -0.5925
 5139TIP3    H236833   6.318   1.154  15.915 -0.8620 -1.7916  0.5810
 5140TIP3   OH236834   2.384   2.086   3.349 -0.5179  0.1347 -0.3127
 5140TIP3    H136835   2.320   2.154   3.330 -0.0210  0.7237  0.1121
 5140TIP3    H236836   2.352   2.009   3.300 -1.8553  0.2442  0.3449
 5141TIP3   OH236837   0.189   4.321  13.440 -0.0533 -0.2879  0.1717
 5141TIP3    H136838   0.134   4.248  13.468 -1.5153  0.0186 -1.7185
 5141TIP3    H236839   0.203   4.373  13.520 -1.6894 -0.9117  0.9112
 5142TIP3   OH236840   3.999   2.045  14.168 -0.3540 -0.2110  0.8259
 5142TIP3    H136841   4.029   2.087  14.088 -0.3912  0.6262  1.2416
 5142TIP3    H236842   3.935   2.106  14.205  0.0937 -0.3087  1.7921
 5143TIP3   OH236843   3.572   4.063  13.774 -0.1487 -0.2552 -0.0463
 5143TIP3    H136844   3.567   4.119  13.696  0.0180 -0.6749 -0.3622
 5143TIP3    H236845   3.647   4.007  13.758 -1.5012 -1.9748 -0.6892
 5144TIP3   OH236846   4.873   0.753   4.686  0.0843  0.0568  0.6367
 5144TIP3    H136847   4.946   0.751   4.748  0.1577 -1.2310  0.5302
 5144TIP3    H236848   4.877   0.668   4.642  0.1719  1.0062 -1.2914
 5145TIP3   OH236849   0.455   5.145   0.212 -0.1736 -0.0985 -0.1122
 5145TIP3    H136850   0.489   5.235   0.219 -0.3325  0.1007 -1.5539
 5145TIP3    H236851   0.492   5.113   0.130  0.3957 -1.5981  0.6961
 5146TIP3   OH236852   1.175   5.985  17.061 -0.0509  0.1875 -0.4269
 5146TIP3    H136853   1.211   5.905  17.023 -1.8919 -1.1914  0.5904
 5146TIP3    H236854   1.083   5.984  17.037  0.1962  2.9864 -1.9098
 5147TIP3   OH236855   5.160   2.063  12.027  0.3739 -0.2097 -0.4223
 5147TIP3    H136856   5.123   2.152  12.032 -1.4349 -0.8846 -1.0922
 5147TIP3    H236857   5.174   2.038  12.118  0.2866  0.5199 -0.1991
 5148TIP3   OH236858   4.030   6.387  12.558 -0.1566 -0.3617 -0.4003
 5148TIP3    H136859   3.964   6.450  12.532 -0.8223 -1.5421 -1.7515
 5148TIP3    H236860   4.025   6.318  12.491  0.9588 -1.5309  0.6526
 5149TIP3   OH236861   0.146   4.679   4.416 -0.1217 -0.3471 -0.3000
 5149TIP3    H136862   0.102   4.654   4.335  0.8499  2.1280 -1.6869
 5149TIP3    H236863   0.239   4.662   4.400  0.5235  3.1499 -1.1071
 5150TIP3   OH236864   2.240   5.297  16.688  0.0968  0.1508  0.6720
 5150TIP3    H136865   2.319   5.347  16.710  0.3125  0.3874 -0.5588
 5150TIP3    H236866   2.216   5.253  16.770  1.0504  0.6937  1.2659
 5151TIP3   OH236867   2.477   0.837  16.779  0.4097 -0.0368  0.1335
 5151TIP3    H136868   2.446   0.855  16.867  1.9538  1.1334  0.4890
 5151TIP3    H236869   2.410   0.876  16.721  0.3524  0.9377  0.8291
 5152TIP3   OH236870   0.304   5.855  13.348 -0.2236  0.1488  0.7576
 5152TIP3    H136871   0.328   5.895  13.432 -0.4745  0.5732  0.6295
 5152TIP3    H236872   0.311   5.761  13.363 -0.0159  0.2303  1.1801
 5153TIP3   OH236873   4.011   0.139   5.028  1.0273 -0.1378 -1.0379
 5153TIP3    H136874   4.074   0.071   5.004  0.3729 -0.6062 -1.4425
 5153TIP3    H236875   3.944   0.093   5.077  0.8202  0.3058 -0.9019
 5154TIP3   OH236876   2.332   5.392  14.960 -0.5403 -0.1209 -0.0843
 5154TIP3    H136877   2.411   5.371  14.910 -0.2435  1.6977 -0.4405
 5154TIP3    H236878   2.287   5.308  14.969 -0.0132 -0.7310 -2.3621
 5155TIP3   OH236879   1.856   1.946   3.603  0.1485  0.0146  0.5769
 5155TIP3    H136880   1.805   1.865   3.601  0.8433 -0.4187  0.2703
 5155TIP3    H236881   1.939   1.924   3.561  0.5952  0.7157  1.0662
 5156TIP3   OH236882   3.652   3.285  12.172 -1.1047  0.0333  0.0073
 5156TIP3    H136883   3.606   3.361  12.138 -0.9201  0.1242 -0.0384
 5156TIP3    H236884   3.681   3.312  12.259  0.1967  0.5211 -0.5506
 5157TIP3   OH236885   2.271   3.838   1.452 -0.3327 -0.0385  0.5853
 5157TIP3    H136886   2.319   3.909   1.410 -0.8487  1.9823  3.1513
 5157TIP3    H236887   2.262   3.772   1.384  0.7527  2.0554 -1.7587
 5158TIP3   OH236888   4.965   5.691   2.230  0.0755 -0.0291 -0.2360
 5158TIP3    H136889   4.895   5.690   2.295 -0.0937  1.0957 -0.3750
 5158TIP3    H236890   4.921   5.709   2.147  0.2555 -1.7497 -0.7315
 5159TIP3   OH236891   1.846   6.002   2.303 -0.1289 -0.6207 -0.4662
 5159TIP3    H136892   1.934   6.017   2.337 -0.8571  1.2883  0.7662
 5159TIP3    H236893   1.798   5.964   2.377 -0.6943 -0.2941 -0.6549
 5160TIP3   OH236894   1.338   2.755   3.273  0.6402 -0.0305  0.2621
 5160TIP3    H136895   1.362   2.810   3.348  1.3575 -0.1018  0.0993
 5160TIP3    H236896   1.249   2.726   3.291  0.9264 -0.3269  1.2528
 5161TIP3   OH236897   1.296   6.477   2.812  0.7886 -0.3012 -0.1140
 5161TIP3    H136898   1.374   6.492   2.760 -0.4820  1.0996 -1.7304
 5161TIP3    H236899   1.280   6.560   2.856  1.1523 -1.1058  1.6280
 5162TIP3   OH236900   5.831   6.384  13.609 -0.2687 -0.0704  0.0348
 5162TIP3    H136901   5.844   6.359  13.701 -1.6398 -0.6969  0.0843
 5162TIP3    H236902   5.901   6.447  13.592  0.0248  0.0587  1.5104
 5163TIP3   OH236903   0.514   4.524  17.181  0.0452 -0.1685 -0.3557
 5163TIP3    H136904   0.450   4.479  17.126 -1.2284  0.4821  0.5610
 5163TIP3    H236905   0.476   4.610  17.196  2.2929  1.1809 -1.8255
 5164TIP3   OH236906   6.512   6.188   0.645 -0.0936 -0.2750 -0.1741
 5164TIP3    H136907   6.555   6.105   0.665  0.9943  0.6582  1.6903
 5164TIP3    H236908   6.555   6.219   0.565 -1.6267 -2.1990 -1.8247
 5165TIP3   OH236909   5.725   3.338   2.124  0.4501 -0.1441  0.3758
 5165TIP3    H136910   5.733   3.299   2.036 -0.3876 -1.4370  0.8524
 5165TIP3    H236911   5.713   3.263   2.182 -2.1612  0.8422  1.2342
 5166TIP3   OH236912   3.342   5.969  12.145  1.4252 -0.4297  0.0846
 5166TIP3    H136913   3.329   5.917  12.065 -0.5660 -0.4239  0.3483
 5166TIP3    H236914   3.437   5.968  12.159  1.8312 -0.4727 -2.2339
 5167TIP3   OH236915   0.137   2.022   2.110  0.5900 -0.2337 -0.2617
 5167TIP3    H136916   0.076   1.978   2.052  0.2663  0.3690 -0.3818
 5167TIP3    H236917   0.208   1.958   2.123  2.4874  0.7590 -4.0957
 5168TIP3   OH236918   2.248   5.590   3.606  0.3334 -0.0323 -0.7393
 5168TIP3    H136919   2.317   5.524   3.611 -0.6422 -1.0408 -0.3293
 5168TIP3    H236920   2.171   5.542   3.578 -0.8044  0.5873  1.1480
 5169TIP3   OH236921   0.782   0.981  14.887 -0.7637  0.0238  0.4207
 5169TIP3    H136922   0.700   0.939  14.913 -0.8508  1.1001  1.9955
 5169TIP3    H236923   0.848   0.911  14.894 -1.1927 -0.3038  1.2286
 5170TIP3   OH236924   5.829   0.052   4.710 -0.6022  0.5059 -0.1567
 5170TIP3    H136925   5.804  -0.040   4.712 -0.0979  0.0884 -4.2709
 5170TIP3    H236926   5.920   0.053   4.740 -0.4149 -0.4506 -0.6589
 5171TIP3   OH236927   0.693   5.890   4.673 -0.1583 -0.1974  0.1043
 5171TIP3    H136928   0.624   5.824   4.675  0.2568 -0.8584 -2.5811
 5171TIP3    H236929   0.648   5.973   4.658 -0.5086 -0.2975  0.6034
 5172TIP3   OH236930   5.116   1.052  14.946  0.4921 -0.3600  0.3805
 5172TIP3    H136931   5.089   0.966  14.979  1.7141 -1.1116 -0.4901
 5172TIP3    H236932   5.084   1.054  14.855  2.4490 -0.8989 -0.3727
 5173TIP3   OH236933   4.005   2.817  15.111  0.1004 -0.4845 -0.1845
 5173TIP3    H136934   3.989   2.892  15.054  0.7747 -1.3300 -1.5505
 5173TIP3    H236935   3.927   2.811  15.166 -0.1444  0.9514 -0.3308
 5174TIP3   OH236936   0.696   1.853  13.420 -0.0491  0.6864  0.8548
 5174TIP3    H136937   0.762   1.811  13.475 -1.8601  0.3044  2.8664
 5174TIP3    H236938   0.708   1.946  13.435  0.0316  0.6200  1.2120
 5175TIP3   OH236939   4.953   1.520   4.685  0.7432  0.5704 -0.4126
 5175TIP3    H136940   5.023   1.585   4.676  1.2032  0.1952  0.3952
 5175TIP3    H236941   4.913   1.539   4.769  1.3225 -0.6038  0.1510
 5176TIP3   OH236942   0.486   0.825  13.037 -0.0310 -0.2617  0.0070
 5176TIP3    H136943   0.472   0.731  13.028 -3.5951 -0.0463  1.8436
 5176TIP3    H236944   0.419   0.865  12.982  0.7419  1.2555  0.1033
 5177TIP3   OH236945   0.221   2.521  12.004  0.2871 -0.8360  0.1433
 5177TIP3    H136946   0.213   2.517  12.100  2.0085 -0.8552  0.3152
 5177TIP3    H236947   0.273   2.445  11.981 -0.3008 -0.9534 -0.8630
 5178TIP3   OH236948   3.137   1.427  14.528  0.2803 -0.4632  0.0920
 5178TIP3    H136949   3.086   1.366  14.475 -1.0413 -0.7183  1.5955
 5178TIP3    H236950   3.152   1.502  14.470 -2.5870  0.0070 -0.1669
 5179TIP3   OH236951   3.665   4.531   5.802  0.1858 -0.0411  0.2686
 5179TIP3    H136952   3.671   4.547   5.708 -2.7241 -0.5112 -0.0964
 5179TIP3    H236953   3.583   4.573   5.828 -0.0533 -1.5746  2.2136
 5180TIP3   OH236954   3.974   6.213  12.366  0.4359 -0.0714  0.1892
 5180TIP3    H136955   3.938   6.129  12.336  1.9847 -1.2073  1.3132
 5180TIP3    H236956   4.017   6.250  12.289 -0.1899 -0.3437 -0.2957
 5181TIP3   OH236957   2.140   4.337  16.526  0.0175 -0.2933 -0.3778
 5181TIP3    H136958   2.134   4.397  16.600 -3.9445 -1.2174  0.2630
 5181TIP3    H236959   2.096   4.384  16.454 -0.6717 -1.3338 -0.6488
 5182TIP3   OH236960   4.722   3.706   0.494  0.0377 -0.0531 -0.3708
 5182TIP3    H136961   4.634   3.669   0.508  0.1797 -0.7053 -1.0956
 5182TIP3    H236962   4.711   3.766   0.420 -0.3360  1.9638  1.2421
 5183TIP3   OH236963   2.260   3.260  13.788 -0.5339 -0.0511  0.1643
 5183TIP3    H136964   2.243   3.257  13.694 -0.7607  2.1287  0.0837
 5183TIP3    H236965   2.173   3.264  13.828 -0.4291 -0.5708  0.4566
 5184TIP3   OH236966   4.172   1.699  15.778 -0.0062  0.1285  0.0850
 5184TIP3    H136967   4.120   1.761  15.727 -0.2828 -0.4597 -0.3694
 5184TIP3    H236968   4.229   1.753  15.831 -0.4910  0.7768 -0.0419
 5185TIP3   OH236969   4.687   2.531  11.583 -0.1619 -0.1939 -0.3599
 5185TIP3    H136970   4.633   2.468  11.632  1.3361 -0.2117  1.3735
 5185TIP3    H236971   4.692   2.607  11.640  2.6043 -0.6544  0.1338
 5186TIP3   OH236972   0.055   2.766  12.860  0.2820  0.0899  0.0693
 5186TIP3    H136973   0.031   2.728  12.945 -1.8879  2.3429  0.5809
 5186TIP3    H236974  -0.028   2.774  12.813  1.0814  1.2614 -1.2284
 5187TIP3   OH236975   3.043   0.080   2.861 -0.2379  0.1623  0.5979
 5187TIP3    H136976   3.040   0.106   2.770  0.9032 -0.8066  0.2556
 5187TIP3    H236977   3.119   0.126   2.897  0.9227 -1.4623  0.3466
 5188TIP3   OH236978   2.873   6.088  11.444 -0.0785 -0.5171  0.1699
 5188TIP3    H136979   2.950   6.121  11.399 -0.3135 -2.3184 -1.7259
 5188TIP3    H236980   2.806   6.155  11.431  0.3215 -0.3046 -0.8245
 5189TIP3   OH236981   0.146   2.692  15.145 -0.0730  0.8794  0.2616
 5189TIP3    H136982   0.065   2.735  15.119 -1.8572 -2.5261 -0.4870
 5189TIP3    H236983   0.119   2.603  15.169  3.6230 -1.0475 -1.7775
 5190TIP3   OH236984   2.738   0.511  14.826  0.2553 -0.3793  0.1867
 5190TIP3    H136985   2.665   0.452  14.842 -0.6168  0.3272 -0.9967
 5190TIP3    H236986   2.814   0.454  14.815 -0.2258 -1.1567  0.8726
 5191TIP3   OH236987   2.266   2.860   4.169  0.4082 -0.1888  0.9775
 5191TIP3    H136988   2.187   2.911   4.151 -1.1252 -1.2264  4.0791
 5191TIP3    H236989   2.318   2.916   4.226  0.9826 -0.3056  0.5805
 5192TIP3   OH236990   4.201   3.383  11.638  0.1482  1.1850 -0.4668
 5192TIP3    H136991   4.109   3.380  11.665  0.4438 -1.4378  0.5762
 5192TIP3    H236992   4.247   3.423  11.711  0.3031 -1.4498  1.0107
 5193TIP3   OH236993   1.101   2.071  15.224  0.7558 -0.3586 -0.3677
 5193TIP3    H136994   1.081   2.079  15.131  1.9344 -1.1315 -0.6993
 5193TIP3    H236995   1.084   2.158  15.260 -1.6033 -0.5183 -0.8997
 5194TIP3   OH236996   1.331   2.582   1.380 -0.5375  0.2609 -0.2831
 5194TIP3    H136997   1.322   2.537   1.296  0.2523 -0.7182  0.1396
 5194TIP3    H236998   1.329   2.512   1.445 -2.6111  1.1230  0.6543
 5195TIP3   OH236999   5.389   0.385  13.248 -0.3097 -0.5900 -0.1862
 5195TIP3    H137000   5.369   0.468  13.205 -0.5373 -0.8799 -0.6615
 5195TIP3    H237001   5.343   0.389  13.332  0.9729  0.4007  0.4891
 5196TIP3   OH237002   0.512   4.670  10.723 -0.0123  0.3956 -0.3862
 5196TIP3    H137003   0.581   4.711  10.775  1.3832 -0.5018 -1.4593
 5196TIP3    H237004   0.467   4.744  10.681 -1.6165  1.1932  2.5124
 5197TIP3   OH237005   0.672   0.106  12.165  0.5570 -0.6870 -0.2454
 5197TIP3    H137006   0.608   0.155  12.217  1.6711  3.0121 -1.9920
 5197TIP3    H237007   0.749   0.101  12.221  0.8957  0.9681 -0.5057
 5198TIP3   OH237008   0.121   4.986  13.000  0.2568  0.4082  0.2095
 5198TIP3    H137009   0.069   5.043  12.943 -1.2225  0.2491  1.3637
 5198TIP3    H237010   0.071   4.905  13.007  1.2873 -0.2403  0.3376
 5199TIP3   OH237011   5.236   6.358   6.710  0.2083 -0.0781 -0.1850
 5199TIP3    H137012   5.195   6.274   6.691 -0.4221  0.1247  0.2400
 5199TIP3    H237013   5.318   6.357   6.661 -1.4308  0.5369 -3.1772
 5200TIP3   OH237014   2.710   1.654  17.083  0.1337  0.2651  0.4081
 5200TIP3    H137015   2.688   1.629  16.993  2.8099  1.5160 -0.6927
 5200TIP3    H237016   2.776   1.590  17.111 -0.8482 -0.2604  1.6280
 5201TIP3   OH237017   0.294   4.476  15.374 -0.0319  0.7331 -0.3321
 5201TIP3    H137018   0.206   4.488  15.337  0.1598 -0.7878 -1.3638
 5201TIP3    H237019   0.278   4.425  15.454 -0.0233 -0.3518 -1.0113
 5202TIP3   OH237020   6.201   6.409   1.824  0.0394 -0.5397  0.2072
 5202TIP3    H137021   6.282   6.358   1.822  0.4218  0.0506 -1.8769
 5202TIP3    H237022   6.230   6.499   1.842 -0.2164 -0.4276  0.0685
 5203TIP3   OH237023   1.146   6.252   2.786  0.5071 -0.0052  0.0323
 5203TIP3    H137024   1.144   6.229   2.879  2.4428  0.3759  0.2172
 5203TIP3    H237025   1.183   6.341   2.785  1.2323 -0.2958 -1.1211
 5204TIP3   OH237026   3.727   6.064   0.505  0.2154 -0.0783 -0.2920
 5204TIP3    H137027   3.685   6.074   0.420 -0.2417  3.8396  0.1826
 5204TIP3    H237028   3.819   6.087   0.490  0.7868 -2.1372 -0.1671
 5205TIP3   OH237029   4.394   4.943  13.749  0.8306  0.7326 -0.5415
 5205TIP3    H137030   4.451   4.871  13.725 -0.9460 -1.7264  1.9822
 5205TIP3    H237031   4.355   4.971  13.666  3.6067  0.7688 -1.9546
 5206TIP3   OH237032   5.364   4.128   1.674  0.2415  0.5174 -0.4321
 5206TIP3    H137033   5.437   4.073   1.645 -1.7936 -2.0938 -0.9269
 5206TIP3    H237034   5.375   4.133   1.769  1.7737  1.3494 -0.6094
 5207TIP3   OH237035   0.997   0.518   2.238 -0.1101  0.6130 -0.3281
 5207TIP3    H137036   0.915   0.498   2.194  0.7749 -0.2068 -1.6585
 5207TIP3    H237037   0.973   0.584   2.304 -1.8300  0.3296 -0.6239
 5208TIP3   OH237038   3.676   3.559  12.847 -0.1228 -0.6876  0.0180
 5208TIP3    H137039   3.608   3.558  12.779  0.0602  0.3561 -0.2076
 5208TIP3    H237040   3.703   3.651  12.852  1.7919 -1.1843 -0.4141
 5209TIP3   OH237041   2.238   1.306  14.506  0.3547  0.0018 -0.2614
 5209TIP3    H137042   2.304   1.280  14.443  1.0683  2.4868 -0.6323
 5209TIP3    H237043   2.165   1.338  14.453 -0.2052 -0.5259  0.1710
 5210TIP3   OH237044   0.652   0.210  13.996  0.0010 -0.2586  0.2959
 5210TIP3    H137045   0.740   0.248  13.998 -0.3674  0.7997 -1.4127
 5210TIP3    H237046   0.665   0.117  14.012  1.3663 -0.0486  0.5311
 5211TIP3   OH237047   0.284   1.879   3.232  0.0241  0.3590  0.3284
 5211TIP3    H137048   0.314   1.930   3.307  1.5978  0.3144 -0.2366
 5211TIP3    H237049   0.312   1.789   3.251  0.0267  0.2653 -0.0903
 5212TIP3   OH237050   0.325   2.911  14.683  0.1103 -0.4629 -0.5155
 5212TIP3    H137051   0.398   2.964  14.650 -0.1670 -1.0469 -2.1446
 5212TIP3    H237052   0.264   2.974  14.721  0.7627  0.1755 -0.5171
 5213TIP3   OH237053   3.134   6.509  12.996  0.3016  0.4681 -0.0702
 5213TIP3    H137054   3.171   6.445  13.056  0.6042  1.2683  0.6252
 5213TIP3    H237055   3.040   6.491  12.996  0.3118  0.3865  0.5750
 5214TIP3   OH237056   4.367   2.680   3.115  0.1704  0.0666  0.3910
 5214TIP3    H137057   4.448   2.681   3.063 -0.8629  0.8853 -1.3008
 5214TIP3    H237058   4.356   2.771   3.143 -1.0103  0.3252 -0.8294
 5215TIP3   OH237059   0.904   5.795  10.536  0.0096  0.0482 -0.1841
 5215TIP3    H137060   0.944   5.746  10.464  1.1796  2.8777 -1.6201
 5215TIP3    H237061   0.961   5.777  10.611 -0.9462 -2.5515  0.0305
 5216TIP3   OH237062   0.406   1.945  12.730  0.3768 -0.7388  0.0773
 5216TIP3    H137063   0.327   1.978  12.686  0.8524 -1.0365 -1.0258
 5216TIP3    H237064   0.435   2.019  12.784 -0.2568 -0.3911 -0.0426
 5217TIP3   OH237065   2.528   6.204   4.354  0.7186  0.5589 -0.2167
 5217TIP3    H137066   2.560   6.268   4.417 -0.8405 -0.4547  1.7049
 5217TIP3    H237067   2.573   6.123   4.378 -1.0231 -0.1944  0.6214
 5218TIP3   OH237068   3.698   1.275  12.357  0.1141  0.1290 -0.5543
 5218TIP3    H137069   3.764   1.227  12.407  0.7702 -0.4281 -1.8929
 5218TIP3    H237070   3.675   1.349  12.412 -0.1365 -1.1323  1.1200
 5219TIP3   OH237071   3.097   0.510  15.294  0.4700  0.0260  0.1048
 5219TIP3    H137072   3.192   0.500  15.299  0.5159  0.7733  1.2057
 5219TIP3    H237073   3.078   0.513  15.200  1.3073 -1.9658 -0.1700
 5220TIP3   OH237074   2.180   0.181  16.360 -0.0301 -0.2032  0.4447
 5220TIP3    H137075   2.166   0.247  16.428 -2.3199  0.8705 -0.9207
 5220TIP3    H237076   2.124   0.108  16.385  1.1062 -0.8981  1.0121
 5221TIP3   OH237077   1.826   2.178  12.448  0.4756 -0.1781  0.4294
 5221TIP3    H137078   1.904   2.173  12.392  0.3347  0.2074  0.1893
 5221TIP3    H237079   1.754   2.154  12.390  0.3314  0.2075  0.4442
 5222TIP3   OH237080   0.499   3.955   3.503 -0.4441 -0.5279  0.3041
 5222TIP3    H137081   0.562   3.892   3.538  0.0514  0.1628  0.6863
 5222TIP3    H237082   0.445   3.979   3.578  0.2393  0.5113  0.4790
 5223TIP3   OH237083   2.976   2.548   2.184 -0.2163 -0.3527  0.0851
 5223TIP3    H137084   2.978   2.573   2.092 -1.9403  1.5418  0.4763
 5223TIP3    H237085   2.983   2.453   2.184 -2.2823 -0.5891 -2.1623
 5224TIP3   OH237086   2.784   4.603  13.553 -0.1518 -0.1621  0.3353
 5224TIP3    H137087   2.689   4.597  13.543 -0.5536  1.8828  2.2341
 5224TIP3    H237088   2.809   4.681  13.503  0.9372 -1.8347 -1.9415
 5225TIP3   OH237089   6.756   0.002  15.870 -0.2408 -0.1769 -0.5165
 5225TIP3    H137090   6.768  -0.084  15.830 -0.0385 -0.7564  0.7198
 5225TIP3    H237091   6.728  -0.018  15.960 -2.8843  1.0680 -0.9623
 5226TIP3   OH237092   0.053   0.307  12.754  0.5422  0.1363  0.3449
 5226TIP3    H137093   0.043   0.224  12.801 -2.1267  0.1075 -0.1276
 5226TIP3    H237094   0.077   0.281  12.665  3.4023  0.1063  1.0329
 5227TIP3   OH237095   5.086   5.483  15.686  0.3941 -0.0921 -0.0908
 5227TIP3    H137096   5.139   5.404  15.676 -0.3280 -0.5891 -0.0721
 5227TIP3    H237097   5.110   5.537  15.611 -0.4590 -1.1376 -1.1484
 5228TIP3   OH237098   0.213   0.930  14.758  0.1197 -0.4613  0.1263
 5228TIP3    H137099   0.140   0.943  14.819  0.0096  0.7443 -0.2394
 5228TIP3    H237100   0.186   0.856  14.704 -0.8317 -0.0326  0.0033
 5229TIP3   OH237101   0.128   5.224  10.826 -0.2739  0.5663 -0.6011
 5229TIP3    H137102   0.091   5.310  10.806  1.1504  0.8683 -2.2023
 5229TIP3    H237103   0.212   5.244  10.869 -0.3261 -0.0497 -0.1982
 5230TIP3   OH237104   5.090   2.950   0.529 -0.6414 -0.1327 -0.2676
 5230TIP3    H137105   5.105   2.935   0.622 -0.4643 -0.8295 -0.4011
 5230TIP3    H237106   5.052   3.038   0.525  1.6421  0.9454  0.2346
 5231TIP3   OH237107   2.245   1.675   2.466  0.0992 -0.3388  0.6350
 5231TIP3    H137108   2.222   1.732   2.393  0.9413  1.6380  1.8526
 5231TIP3    H237109   2.166   1.623   2.482 -1.0906  1.2797  0.2182
 5232TIP3   OH237110   3.600   0.697   0.328  0.3542  0.2351  0.0805
 5232TIP3    H137111   3.671   0.761   0.314 -1.0979  1.6220 -1.5405
 5232TIP3    H237112   3.520   0.749   0.322 -0.8340 -1.2797  1.8704
 5233TIP3   OH237113   2.431   3.413   4.093 -0.5216  0.0385  0.6727
 5233TIP3    H137114   2.459   3.324   4.068  1.1496  0.3414  1.3329
 5233TIP3    H237115   2.509   3.467   4.081 -1.9688  1.8339 -1.4509
 5234TIP3   OH237116   6.290   0.267   5.752 -0.8277 -0.4498 -0.5182
 5234TIP3    H137117   6.321   0.335   5.812 -0.3326 -0.3848 -0.8412
 5234TIP3    H237118   6.204   0.244   5.785 -0.5891 -0.3704  0.1841
 5235TIP3   OH237119   4.039   3.664  16.181 -0.3887  0.3959 -0.7514
 5235TIP3    H137120   4.050   3.717  16.102  2.2633 -1.0354 -1.4903
 5235TIP3    H237121   4.050   3.726  16.254  1.2333  1.1534 -1.5818
 5236TIP3   OH237122   0.890   2.741  12.652  0.3444  0.1329 -0.2841
 5236TIP3    H137123   0.892   2.663  12.597 -0.3282  0.6995 -1.1342
 5236TIP3    H237124   0.971   2.736  12.704  1.1124 -0.3081 -1.4816
 5237TIP3   OH237125   4.107   0.698   1.336  0.0923  0.2384 -0.3474
 5237TIP3    H137126   4.089   0.698   1.242 -0.5314 -1.2999 -0.2479
 5237TIP3    H237127   4.057   0.773   1.370 -0.6158  0.1110 -1.0869
 5238TIP3   OH237128   2.829   3.226  12.401 -0.2619 -0.3623  0.0705
 5238TIP3    H137129   2.754   3.213  12.343 -0.5761  0.1938  0.3392
 5238TIP3    H237130   2.905   3.221  12.344 -0.3435 -2.9630  0.0955
 5239TIP3   OH237131   4.266   4.675   3.752 -0.0767  0.0647 -0.6877
 5239TIP3    H137132   4.280   4.598   3.697 -0.3574 -0.3800 -0.1499
 5239TIP3    H237133   4.331   4.739   3.722  1.2495 -0.9538 -0.0686
 5240TIP3   OH237134   0.000   2.800  11.419  0.3807 -0.1336 -0.1061
 5240TIP3    H137135  -0.037   2.859  11.354  2.2831  1.2621 -0.0297
 5240TIP3    H237136  -0.052   2.720  11.413  0.3132  0.0458 -3.1303
 5241TIP3   OH237137   1.724   4.840   5.004  0.8495  0.1168  0.1196
 5241TIP3    H137138   1.706   4.880   5.089  1.8081  0.2538  0.2613
 5241TIP3    H237139   1.793   4.893   4.966 -0.9870  1.3519 -1.6919
 5242TIP3   OH237140   1.637   1.591   3.680  0.1112 -0.3850  0.5257
 5242TIP3    H137141   1.684   1.508   3.671  1.1851  0.1720  0.8867
 5242TIP3    H237142   1.620   1.598   3.774 -0.1921 -0.3070  0.4642
 5243TIP3   OH237143   2.073   6.619  12.159 -0.1751 -0.6729  1.1395
 5243TIP3    H137144   2.159   6.629  12.118 -0.3164 -0.5354  0.8760
 5243TIP3    H237145   2.012   6.655  12.096 -0.3965 -0.4540  1.4787
 5244TIP3   OH237146   3.485   5.672  16.541 -0.4562 -0.2553 -0.0225
 5244TIP3    H137147   3.502   5.680  16.635 -0.8868 -0.4244  0.0734
 5244TIP3    H237148   3.572   5.677  16.501 -0.4107  1.9406  0.2113
 5245TIP3   OH237149   0.296   5.897  12.356  0.3113 -0.2011  0.0383
 5245TIP3    H137150   0.273   5.982  12.317 -0.6007 -0.7078 -0.5787
 5245TIP3    H237151   0.391   5.897  12.360  0.4105  0.1107 -1.6730
 5246TIP3   OH237152   5.997   2.633   1.237 -0.0490  0.4738  0.6526
 5246TIP3    H137153   6.052   2.588   1.173  0.4190 -0.2015  1.5101
 5246TIP3    H237154   5.941   2.565   1.274 -0.0570  0.7859  1.2278
 5247TIP3   OH237155   5.163   4.751  17.155  0.1082 -0.5088  0.4095
 5247TIP3    H137156   5.186   4.681  17.093 -1.7927  0.9387 -2.0905
 5247TIP3    H237157   5.203   4.829  17.118  0.9944  0.0435  2.4091
 5248TIP3   OH237158   2.755   1.762   3.980 -0.2562 -0.1518 -0.1610
 5248TIP3    H137159   2.679   1.796   3.933 -0.6906  0.6334  1.0684
 5248TIP3    H237160   2.830   1.805   3.938 -0.6297  0.5065 -0.1634
 5249TIP3   OH237161   1.394   2.367   5.730  0.5828 -0.0367  0.0215
 5249TIP3    H137162   1.424   2.457   5.718 -1.5300  0.7918  0.4617
 5249TIP3    H237163   1.306   2.376   5.767 -0.0117 -2.2797 -0.6917
 5250TIP3   OH237164   2.558   4.834  14.788  0.2368  0.3617 -0.3529
 5250TIP3    H137165   2.498   4.760  14.788  2.3779 -1.5850  2.2550
 5250TIP3    H237166   2.587   4.843  14.697 -1.3666 -0.8732 -1.0134
 5251TIP3   OH237167   2.420   5.675  10.648 -0.6522  0.7699  0.2287
 5251TIP3    H137168   2.385   5.611  10.586 -1.2816  0.5473  0.8079
 5251TIP3    H237169   2.507   5.697  10.613 -0.0892 -0.9635  0.4325
 5252TIP3   OH237170   2.937   4.923   4.186  0.7080  0.2321  0.1354
 5252TIP3    H137171   2.998   4.886   4.250  0.8798 -1.2244 -0.8214
 5252TIP3    H237172   2.896   4.997   4.231  1.7765  0.0478  1.4548
 5253TIP3   OH237173   1.716   3.704  10.936  0.0230 -0.1412  0.5860
 5253TIP3    H137174   1.737   3.793  10.909 -0.4762  0.4151  1.9550
 5253TIP3    H237175   1.694   3.711  11.029 -1.1382 -1.5089  0.4572
 5254TIP3   OH237176   1.752   1.773   0.892  0.2855 -1.1700  0.7662
 5254TIP3    H137177   1.676   1.816   0.853  0.3156 -2.0694 -0.3361
 5254TIP3    H237178   1.714   1.702   0.945  0.3489 -1.6208  0.2138
 5255TIP3   OH237179   1.227   3.216  15.501 -0.3831 -0.0712 -0.4379
 5255TIP3    H137180   1.286   3.153  15.542  1.9338  2.2808  0.0830
 5255TIP3    H237181   1.230   3.293  15.558 -0.8522  1.5509 -2.4756
 5256TIP3   OH237182   5.710   3.592  16.782  0.0916  0.5990  0.6705
 5256TIP3    H137183   5.639   3.527  16.778 -0.0956  0.8245  0.2210
 5256TIP3    H237184   5.695   3.639  16.864 -1.4699  1.9585 -0.3154
 5257TIP3   OH237185   4.331   0.302  17.061 -0.4505  0.0446 -0.2463
 5257TIP3    H137186   4.238   0.324  17.067 -0.6347 -0.6735 -0.3473
 5257TIP3    H237187   4.344   0.234  17.127  0.0584  0.3011 -0.0754
 5258TIP3   OH237188   3.764   0.071  15.876 -0.0094  0.5253 -0.4475
 5258TIP3    H137189   3.821   0.012  15.927 -0.5915  0.4729  0.1488
 5258TIP3    H237190   3.739   0.019  15.799  0.9703  0.6473 -0.8667
 5259TIP3   OH237191   5.305   2.986  14.358 -0.7831 -0.3386  0.4625
 5259TIP3    H137192   5.378   2.924  14.353 -1.1341 -0.6982 -0.4442
 5259TIP3    H237193   5.269   2.974  14.445 -0.8910 -1.4640  0.2696
 5260TIP3   OH237194   0.381   4.010  11.146  0.2010 -0.3379  0.3929
 5260TIP3    H137195   0.419   3.925  11.167 -1.3879 -0.8440  1.3146
 5260TIP3    H237196   0.456   4.062  11.113  0.9464 -2.4991 -1.6181
 5261TIP3   OH237197   2.804   1.457   4.479 -0.2996 -0.1825  0.2024
 5261TIP3    H137198   2.838   1.414   4.401  2.7198 -0.9628  1.8021
 5261TIP3    H237199   2.882   1.481   4.529 -2.0125  2.9044  1.6655
 5262TIP3   OH237200   2.356   3.595  15.944 -0.2994 -0.1646  0.0980
 5262TIP3    H137201   2.292   3.537  15.985 -0.3750 -0.2324 -0.1128
 5262TIP3    H237202   2.367   3.667  16.006 -0.7370 -0.0465  0.0391
 5263TIP3   OH237203   3.652   5.126   0.330 -0.0893  0.1484  0.2033
 5263TIP3    H137204   3.720   5.151   0.267 -0.7063 -0.0389 -0.5444
 5263TIP3    H237205   3.701   5.089   0.403  0.5674 -1.4298 -0.9766
 5264TIP3   OH237206   1.336   4.260   2.592  0.5679 -0.3760 -0.2663
 5264TIP3    H137207   1.274   4.258   2.520  0.3464  1.7139 -0.1993
 5264TIP3    H237208   1.281   4.254   2.671  0.4993  0.7369 -0.2215
 5265TIP3   OH237209   1.634   1.855  15.967  0.0318 -0.2763 -0.2206
 5265TIP3    H137210   1.721   1.891  15.950  0.6391 -2.0380 -1.0052
 5265TIP3    H237211   1.624   1.783  15.905 -1.6674 -0.6445  0.4010
 5266TIP3   OH237212   6.236   0.129   1.714  0.1763 -0.7312  0.0940
 5266TIP3    H137213   6.211   0.221   1.720 -0.4669 -0.9856  2.8990
 5266TIP3    H237214   6.320   0.130   1.669  0.2167  1.2219  0.1213
 5267TIP3   OH237215   1.299   0.506   6.182  0.0314  0.1572 -0.2685
 5267TIP3    H137216   1.340   0.593   6.181  1.3076 -0.4250 -0.3462
 5267TIP3    H237217   1.251   0.501   6.099  0.0852  0.7216 -0.3383
 5268TIP3   OH237218   4.371   2.093   5.727 -0.0507  0.2420 -0.5434
 5268TIP3    H137219   4.326   2.011   5.744  0.1206  0.0278 -1.1104
 5268TIP3    H237220   4.302   2.155   5.705 -0.0169 -0.3867 -2.6456
 5269TIP3   OH237221   3.685   4.561   0.082  1.0286  0.8215 -0.2581
 5269TIP3    H137222   3.722   4.598   0.161  2.3592  0.2351 -0.5701
 5269TIP3    H237223   3.759   4.553   0.022  0.1252  0.8986 -1.4240
 5270TIP3   OH237224   1.027   4.632   1.620  0.2664  0.1803 -0.2387
 5270TIP3    H137225   1.056   4.542   1.609 -1.2923 -0.4104  0.1782
 5270TIP3    H237226   1.011   4.641   1.713 -0.3121  0.6395 -0.3766
 5271TIP3   OH237227   3.082   1.737  14.244 -0.0853  0.2165 -0.2444
 5271TIP3    H137228   3.027   1.658  14.241  1.2450 -0.8315  1.2640
 5271TIP3    H237229   3.022   1.808  14.221 -0.8755 -1.3689 -3.9416
 5272TIP3   OH237230   4.979   5.747   4.623  0.2319  0.5785  0.0809
 5272TIP3    H137231   4.884   5.760   4.629  0.2159  0.1730  0.7238
 5272TIP3    H237232   4.990   5.653   4.609  0.5647  0.5182  0.7163
 5273TIP3   OH237233   2.984   4.711   2.798  1.2353 -0.2311 -0.5642
 5273TIP3    H137234   2.916   4.658   2.757  0.6667  0.1487 -0.1233
 5273TIP3    H237235   2.986   4.792   2.746  1.5743 -0.3727 -0.7730
 5274TIP3   OH237236   0.544   4.010   6.500 -0.1746 -0.3407  0.6076
 5274TIP3    H137237   0.539   4.095   6.457 -0.0308 -1.3766 -1.6143
 5274TIP3    H237238   0.470   4.008   6.560 -2.0284  0.2289 -1.5295
 5275TIP3   OH237239   5.591   6.297  15.298 -0.9661 -0.0632 -0.1182
 5275TIP3    H137240   5.553   6.383  15.318  0.3111  0.9912 -1.9403
 5275TIP3    H237241   5.676   6.316  15.258  0.6757 -2.2796  1.9874
 5276TIP3   OH237242   4.370   2.078   2.101 -0.2757  0.4220 -0.3066
 5276TIP3    H137243   4.348   2.150   2.042 -1.2991 -0.1278 -0.6189
 5276TIP3    H237244   4.320   2.095   2.180 -1.8149 -0.7658 -0.9721
 5277TIP3   OH237245   2.105   3.786   3.635 -0.4235  0.2557 -0.0575
 5277TIP3    H137246   2.065   3.850   3.577 -0.2681 -1.0325 -1.6738
 5277TIP3    H237247   2.031   3.746   3.681 -0.6719  0.4013 -0.3283
 5278TIP3   OH237248   1.120   0.531  14.194  0.1000 -0.0133  0.2755
 5278TIP3    H137249   1.160   0.600  14.247  0.1090  0.4622 -0.3492
 5278TIP3    H237250   1.194   0.477  14.165  0.2849  0.7646 -0.7352
 5279TIP3   OH237251   1.842   4.771  13.565  0.2873  0.0634 -0.0710
 5279TIP3    H137252   1.819   4.692  13.517 -1.8283  0.8038 -0.4025
 5279TIP3    H237253   1.789   4.840  13.523 -0.4743  1.0211  2.3066
 5280TIP3   OH237254   5.492   4.636  16.231  0.0939  0.5427  0.2563
 5280TIP3    H137255   5.546   4.687  16.291 -0.4504  1.9852 -0.4210
 5280TIP3    H237256   5.405   4.637  16.270 -0.0620  0.6966 -0.0920
 5281TIP3   OH237257   3.683   2.500   6.765 -0.0272 -0.5552  0.5748
 5281TIP3    H137258   3.630   2.427   6.731  1.9839 -1.5516 -0.5651
 5281TIP3    H237259   3.717   2.544   6.687 -0.6373  1.2369  1.2536
 5282TIP3   OH237260   0.069   1.688   6.666 -0.2713 -0.6042  0.1984
 5282TIP3    H137261   0.029   1.648   6.589 -3.2463  1.1047  0.6996
 5282TIP3    H237262   0.018   1.655   6.740  2.2019 -1.8126  1.4780
 5283TIP3   OH237263   1.796   0.894   3.471  0.1242 -0.1472 -0.1807
 5283TIP3    H137264   1.859   0.929   3.534 -1.2393  1.9951  0.0932
 5283TIP3    H237265   1.711   0.928   3.500 -0.9564 -1.5701 -1.4899
 5284TIP3   OH237266   0.133   6.691  17.165 -0.0710  0.4433 -0.1014
 5284TIP3    H137267   0.173   6.667  17.082  0.9797  0.0829  0.4864
 5284TIP3    H237268   0.182   6.640  17.230 -1.7608 -0.3374  0.6114
 5285TIP3   OH237269   5.027   4.560   4.463 -0.2743  0.1478  0.5622
 5285TIP3    H137270   5.049   4.515   4.382 -1.2700  1.5488 -0.5422
 5285TIP3    H237271   5.094   4.533   4.525  1.2787  0.0422 -1.0895
 5286TIP3   OH237272   5.309   2.156   0.983 -0.3740  0.5717 -0.1256
 5286TIP3    H137273   5.284   2.100   1.057 -0.8122  1.5198  0.4558
 5286TIP3    H237274   5.257   2.123   0.910  0.8444 -1.0614 -0.3008
 5287TIP3   OH237275   4.740   6.095  16.382 -0.2534  0.8061  0.3068
 5287TIP3    H137276   4.687   6.052  16.315  0.4646  0.5861 -0.1179
 5287TIP3    H237277   4.752   6.184  16.349  3.3956 -0.3013 -1.8659
 5288TIP3   OH237278   0.021   3.772   5.277  0.0935 -0.0581 -0.7670
 5288TIP3    H137279   0.098   3.717   5.292 -0.2954 -0.0034  1.7774
 5288TIP3    H237280   0.054   3.861   5.276  0.1578 -0.0788 -0.4366
 5289TIP3   OH237281   5.116   2.049  16.702  0.1151 -0.0062  0.0561
 5289TIP3    H137282   5.173   2.126  16.706 -0.2031  0.2464 -0.2369
 5289TIP3    H237283   5.036   2.077  16.747 -0.5001  0.2699 -1.1769
 5290TIP3   OH237284   5.186   2.636   0.497  0.0152 -0.1887  0.3577
 5290TIP3    H137285   5.091   2.641   0.502  0.0036  0.1084 -0.1473
 5290TIP3    H237286   5.216   2.725   0.517  0.1961 -0.3040  0.6173
 5291TIP3   OH237287   2.445   2.595  14.633  0.1143 -0.1920 -0.2461
 5291TIP3    H137288   2.357   2.572  14.665 -0.3823  1.2467 -0.5181
 5291TIP3    H237289   2.429   2.636  14.548  0.9294  1.2139  0.2521
 5292TIP3   OH237290   5.838   3.769  12.434  0.4225 -0.3249 -0.1088
 5292TIP3    H137291   5.797   3.731  12.356  3.5669 -0.3256 -1.9436
 5292TIP3    H237292   5.901   3.703  12.462  0.4992  0.3749  1.4690
 5293TIP3   OH237293   3.881   5.405   0.045  0.4796 -0.6932 -0.2365
 5293TIP3    H137294   3.812   5.431   0.107  0.7656 -1.6769  0.5304
 5293TIP3    H237295   3.834   5.380  -0.034  0.0678  0.1013 -0.2544
 5294TIP3   OH237296   5.664   4.924   6.448 -0.1872 -0.0653 -0.8054
 5294TIP3    H137297   5.744   4.904   6.400  0.6933  1.1763  0.0957
 5294TIP3    H237298   5.691   4.985   6.516 -1.6964 -0.5295  0.2586
 5295TIP3   OH237299   5.794   1.501   3.738 -0.4486  0.1272 -0.0380
 5295TIP3    H137300   5.815   1.494   3.645 -0.5128  2.2782 -0.2445
 5295TIP3    H237301   5.747   1.419   3.758 -0.8766 -0.1497 -1.9898
 5296TIP3   OH237302   1.054   3.671   1.993  0.1589  0.4391  0.4714
 5296TIP3    H137303   1.071   3.720   1.913 -0.2577 -0.4348 -0.1731
 5296TIP3    H237304   1.114   3.708   2.058  0.1678  1.4705 -0.1181
 5297TIP3   OH237305   6.374   4.223  16.778 -0.2409 -0.1793 -0.3296
 5297TIP3    H137306   6.376   4.316  16.800 -0.2365 -0.4157  0.7365
 5297TIP3    H237307   6.424   4.217  16.696  0.5136  0.6333  0.0548
 5298TIP3   OH237308   4.264   2.356  14.820 -0.9015  0.3794  0.1518
 5298TIP3    H137309   4.220   2.402  14.748  1.7125  0.7720 -1.3086
 5298TIP3    H237310   4.280   2.424  14.886  2.5817  1.7401 -1.8249
 5299TIP3   OH237311   3.466   4.191  16.825  0.4832 -0.2802 -0.4802
 5299TIP3    H137312   3.454   4.210  16.918 -0.2570 -1.5336 -0.2872
 5299TIP3    H237313   3.461   4.276  16.782  0.3711  0.2689  0.5783
 5300TIP3   OH237314   5.772   6.306   5.086  0.1123  0.2749 -0.4745
 5300TIP3    H137315   5.734   6.381   5.131 -1.8106 -1.7877  1.5600
 5300TIP3    H237316   5.704   6.239   5.089  1.0511 -1.0520 -3.8240
 5301TIP3   OH237317   1.298   6.323  16.295  0.3544 -0.1722 -0.5001
 5301TIP3    H137318   1.282   6.280  16.210 -0.7780  0.7852 -0.8080
 5301TIP3    H237319   1.212   6.322  16.338  0.4386  1.1953 -0.2663
 5302TIP3   OH237320   1.541   6.534   2.650  0.2073 -0.8162 -0.2875
 5302TIP3    H137321   1.591   6.600   2.602  0.8549  0.4710  1.9819
 5302TIP3    H237322   1.555   6.453   2.601  1.2325  0.2832 -1.9266
 5303TIP3   OH237323   4.899   3.704   0.163 -0.2144 -0.0134 -0.0579
 5303TIP3    H137324   4.929   3.686   0.252  1.8231  0.6436 -0.5676
 5303TIP3    H237325   4.927   3.628   0.113  0.7395  0.6680 -0.5722
 5304TIP3   OH237326   2.453   0.364   5.782  0.0665 -0.2900 -0.1851
 5304TIP3    H137327   2.439   0.432   5.847  0.4810 -0.0433 -0.3467
 5304TIP3    H237328   2.536   0.324   5.806  0.5038  0.1741 -0.8739
 5305TIP3   OH237329   0.822   1.679   0.922 -0.4271 -0.1736  0.1219
 5305TIP3    H137330   0.755   1.614   0.902 -0.1058 -0.5634  0.3001
 5305TIP3    H237331   0.830   1.730   0.841 -1.2082  0.1261  0.2260
 5306TIP3   OH237332   1.632   4.762  16.585  0.8671 -0.6127 -0.1973
 5306TIP3    H137333   1.707   4.718  16.547  2.2562  0.8975  0.6882
 5306TIP3    H237334   1.659   4.784  16.674 -0.4577  0.3545  0.0002
 5307TIP3   OH237335   3.433   3.153  13.523 -0.4781 -0.3958 -0.1394
 5307TIP3    H137336   3.433   3.077  13.581 -1.6403 -0.5829 -0.3568
 5307TIP3    H237337   3.435   3.228  13.581  1.2908 -0.5532  0.0737
 5308TIP3   OH237338   4.598   4.095   5.866  0.1787  0.2259  0.3712
 5308TIP3    H137339   4.674   4.095   5.924  1.0949  0.4843 -0.8058
 5308TIP3    H237340   4.586   4.187   5.843  0.8663 -0.0579 -1.1808
 5309TIP3   OH237341   5.987   3.871  11.990  0.3519  0.5648  0.8865
 5309TIP3    H137342   6.065   3.922  12.008  0.5057  0.6854 -0.0624
 5309TIP3    H237343   5.990   3.853  11.896 -0.9372  0.8819  0.7557
 5310TIP3   OH237344   6.362   4.961   6.164 -0.2739 -0.4786 -0.1917
 5310TIP3    H137345   6.449   4.954   6.202  0.7912  1.7129 -1.9667
 5310TIP3    H237346   6.346   5.055   6.157 -2.5360 -0.8192 -0.5006
 5311TIP3   OH237347   4.839   5.308  14.404  0.8619 -1.1753  0.2239
 5311TIP3    H137348   4.822   5.217  14.381  0.8714 -1.1303  0.0328
 5311TIP3    H237349   4.888   5.304  14.486  0.0656 -1.3054  0.6931
 5312TIP3   OH237350   5.880   0.404  12.561 -0.0353  0.2527  0.1767
 5312TIP3    H137351   5.874   0.352  12.640  0.0004  1.2452  0.8495
 5312TIP3    H237352   5.836   0.352  12.494  0.8470 -1.0610  0.5914
 5313TIP3   OH237353   4.857   5.220   6.497 -0.0538 -0.3194  0.1097
 5313TIP3    H137354   4.818   5.295   6.541  0.0987 -0.4198  0.4158
 5313TIP3    H237355   4.931   5.256   6.448  0.8057 -0.4620  1.2844
 5314TIP3   OH237356   0.194   0.409   5.831  0.3475 -0.0165 -0.0601
 5314TIP3    H137357   0.116   0.406   5.886  0.5216  2.1653  0.3654
 5314TIP3    H237358   0.233   0.322   5.841 -2.2745 -1.3515 -0.7114
 5315TIP3   OH237359   4.153   4.607  13.659 -0.0198  0.2158 -0.4151
 5315TIP3    H137360   4.236   4.563  13.677 -0.3031 -1.0956 -2.1362
 5315TIP3    H237361   4.089   4.561  13.714 -0.0551 -0.5545 -1.0894
 5316TIP3   OH237362   4.527   4.602   1.713 -0.2139 -0.3114  0.1338
 5316TIP3    H137363   4.439   4.580   1.682  0.5269 -0.9552 -1.6261
 5316TIP3    H237364   4.555   4.674   1.657  0.1433  0.3296  1.1216
 5317TIP3   OH237365   2.555   1.260  16.835  0.2822 -0.0235 -0.7219
 5317TIP3    H137366   2.517   1.281  16.750  1.8761  3.3060 -0.7730
 5317TIP3    H237367   2.626   1.199  16.815 -1.3723 -1.8914 -1.2638
 5318TIP3   OH237368   4.983   1.988   1.749  0.7257  0.0522  0.2064
 5318TIP3    H137369   4.894   2.010   1.720  1.0584 -0.2825 -1.1691
 5318TIP3    H237370   5.040   2.035   1.687  1.4975 -0.1134  0.7829
 5319TIP3   OH237371   6.480   4.077   1.547  0.4267  0.1950 -0.1916
 5319TIP3    H137372   6.528   4.080   1.630  0.3423  1.2415 -0.1719
 5319TIP3    H237373   6.536   4.024   1.490  0.7052 -0.1573  0.3903
 5320TIP3   OH237374   2.723   2.659   1.954  0.3810 -0.0946 -0.9592
 5320TIP3    H137375   2.692   2.686   1.867  0.5081  1.5272 -0.5341
 5320TIP3    H237376   2.645   2.623   1.996  0.0811  0.0027 -1.4154
 5321TIP3   OH237377   0.404   4.857   3.745 -0.7553  0.5102  0.2313
 5321TIP3    H137378   0.406   4.766   3.775 -1.7562  0.6111  0.6627
 5321TIP3    H237379   0.439   4.855   3.656 -1.9552 -0.5109 -0.2457
 5322TIP3   OH237380   0.667   4.790  13.401  0.1420 -0.1909 -0.1011
 5322TIP3    H137381   0.695   4.850  13.332  0.0562  1.4053  1.1938
 5322TIP3    H237382   0.721   4.712  13.388  1.1642  0.6389 -1.0772
 5323TIP3   OH237383   2.052   6.669  14.069 -0.0071  0.1898  0.2943
 5323TIP3    H137384   2.057   6.659  14.164 -0.8062 -2.6473  0.1375
 5323TIP3    H237385   2.050   6.579  14.036  0.1819  1.0994 -2.4188
 5324TIP3   OH237386   1.562   3.348   2.731 -0.0624  0.5722 -0.8610
 5324TIP3    H137387   1.519   3.293   2.796  0.3654  1.0155 -0.1858
 5324TIP3    H237388   1.499   3.419   2.715 -0.3740  0.1927 -1.2972
 5325TIP3   OH237389   6.705   5.207   4.677  0.4650 -1.0584  0.2673
 5325TIP3    H137390   6.749   5.190   4.594 -1.7449 -1.7203 -0.8529
 5325TIP3    H237391   6.669   5.295   4.668 -0.6830 -1.5227  0.0285
 5326TIP3   OH237392   2.753   1.599   6.387  0.4771  0.4416  0.7188
 5326TIP3    H137393   2.791   1.685   6.375 -1.4594  1.4330  1.2790
 5326TIP3    H237394   2.658   1.613   6.382  0.0869 -1.5668  1.3341
 5327TIP3   OH237395   4.167   0.142  15.971 -0.2206 -0.3249 -0.1849
 5327TIP3    H137396   4.101   0.208  15.997 -0.2913 -0.1649 -0.7688
 5327TIP3    H237397   4.117   0.074  15.927 -0.2525 -1.1541  1.0721
 5328TIP3   OH237398   1.665   3.144   1.193 -0.4206  0.5083 -0.0071
 5328TIP3    H137399   1.739   3.142   1.254 -1.2267  2.5584  1.1457
 5328TIP3    H237400   1.608   3.072   1.221  0.4434 -0.1903 -0.0106
 5329TIP3   OH237401   1.602   5.079  15.051 -0.4881  0.5552  0.0944
 5329TIP3    H137402   1.693   5.106  15.062 -0.5480  0.2134  1.6313
 5329TIP3    H237403   1.597   4.993  15.093 -2.0548  1.6448  2.3547
 5330TIP3   OH237404   3.088   0.142  11.392  0.0650  0.0066  0.0472
 5330TIP3    H137405   3.093   0.097  11.308  1.4197 -1.4214  0.8440
 5330TIP3    H237406   3.175   0.130  11.430 -0.4347  0.8975  1.5285
 5331TIP3   OH237407   0.141   3.240   0.200 -0.1241 -0.2661  0.2730
 5331TIP3    H137408   0.072   3.178   0.224 -0.1873 -0.9052 -1.4311
 5331TIP3    H237409   0.211   3.223   0.263 -1.8424  1.1368  2.7596
 5332TIP3   OH237410   4.978   4.249  12.616  0.5979 -0.1835  0.4607
 5332TIP3    H137411   4.940   4.299  12.688  2.2683  0.6657  0.8010
 5332TIP3    H237412   5.017   4.315  12.559 -1.2450 -0.7797 -1.6318
 5333TIP3   OH237413   1.015   6.439  16.432 -0.8842 -0.0642 -0.2710
 5333TIP3    H137414   1.058   6.466  16.351 -0.0949  0.8644  0.4287
 5333TIP3    H237415   1.036   6.509  16.494  1.2399 -2.2605  1.6489
 5334TIP3   OH237416   6.348   6.339   3.893  0.6522 -0.1717  0.5789
 5334TIP3    H137417   6.326   6.246   3.881 -1.2352  0.4076 -1.1516
 5334TIP3    H237418   6.302   6.364   3.973  0.2455 -0.4804  0.4493
 5335TIP3   OH237419   0.853   4.373   2.387 -0.0155 -0.0351  0.0253
 5335TIP3    H137420   0.874   4.462   2.416 -0.5999  0.1162 -0.0191
 5335TIP3    H237421   0.880   4.371   2.295 -1.2157  0.5116 -0.3548
 5336TIP3   OH237422   2.414   3.623   4.615 -0.2414 -0.1412 -0.0477
 5336TIP3    H137423   2.445   3.599   4.528 -1.8861 -0.6157 -0.5255
 5336TIP3    H237424   2.493   3.654   4.660  0.5790  0.4511 -1.7933
 5337TIP3   OH237425   1.565   3.988   1.951  0.2774  0.3027 -0.0133
 5337TIP3    H137426   1.620   3.916   1.982  0.5883  0.0287 -1.1411
 5337TIP3    H237427   1.627   4.053   1.918 -0.0356  0.6452  0.0613
 5338TIP3   OH237428   1.154   4.860  13.243 -0.1367 -0.2119  0.3323
 5338TIP3    H137429   1.135   4.812  13.162  0.5359  0.6108 -0.3282
 5338TIP3    H237430   1.129   4.950  13.224 -1.1354 -0.2282  1.4730
 5339TIP3   OH237431   3.101   3.857   1.289  0.1503  0.2101  0.0785
 5339TIP3    H137432   3.162   3.816   1.349  0.2248 -0.4108 -0.4058
 5339TIP3    H237433   3.106   3.804   1.209  0.6683  1.4888 -0.7790
 5340TIP3   OH237434   3.598   5.892   4.583 -0.1342  0.3404  0.1078
 5340TIP3    H137435   3.533   5.881   4.515  0.4792 -1.1938 -0.2825
 5340TIP3    H237436   3.624   5.984   4.578 -0.0877  0.2522 -1.7461
 5341TIP3   OH237437   4.867   1.485  13.706 -0.3055  0.0745 -0.3932
 5341TIP3    H137438   4.916   1.553  13.660 -1.0086  0.5834 -0.4138
 5341TIP3    H237439   4.892   1.404  13.662  0.1006  0.3863 -0.7522
 5342TIP3   OH237440   1.359   4.031  15.991 -0.4240  0.3934  0.2932
 5342TIP3    H137441   1.384   4.007  16.080 -0.3291 -0.0893  0.1414
 5342TIP3    H237442   1.355   4.127  15.991 -0.3364  0.3969  0.7899
 5343TIP3   OH237443   6.661   2.598   3.243 -0.1662  0.3565 -0.3546
 5343TIP3    H137444   6.608   2.524   3.213  0.9910 -0.6404 -0.0451
 5343TIP3    H237445   6.737   2.598   3.185  1.1601 -0.3983  1.2941
 5344TIP3   OH237446   5.453   3.027   1.639  0.0432 -0.0741 -0.1098
 5344TIP3    H137447   5.419   2.982   1.562 -2.7604  0.0748  0.8960
 5344TIP3    H237448   5.441   2.964   1.711  1.3790  0.2551  0.4315
 5345TIP3   OH237449   1.674   1.339   1.685  0.5259 -0.6286 -0.3526
 5345TIP3    H137450   1.581   1.317   1.678  0.3843 -0.2187  0.1790
 5345TIP3    H237451   1.718   1.255   1.701  0.2772 -0.8574 -0.8574
 5346TIP3   OH237452   1.580   6.387  15.946  0.1473  0.4507 -0.1920
 5346TIP3    H137453   1.516   6.350  15.885 -0.3527 -0.2779  0.7494
 5346TIP3    H237454   1.533   6.459  15.989 -0.5642 -0.9787  1.5251
 5347TIP3   OH237455   0.233   0.702  16.271 -0.2609  0.1769 -0.2087
 5347TIP3    H137456   0.188   0.723  16.189 -0.4095 -0.0601 -0.1890
 5347TIP3    H237457   0.188   0.755  16.337  0.4361  1.0508 -0.4149
 5348TIP3   OH237458   5.117   1.747   4.635  0.0127 -0.5476  0.5535
 5348TIP3    H137459   5.120   1.843   4.634  4.1541 -0.5111 -0.1848
 5348TIP3    H237460   5.066   1.724   4.557 -0.5808  1.0302  0.4466
 5349TIP3   OH237461   0.109   4.275   1.330  0.6798  0.1341  0.2108
 5349TIP3    H137462   0.197   4.256   1.362  1.1601  0.1756 -1.0275
 5349TIP3    H237463   0.072   4.334   1.396  1.6307  0.2382  0.6722
 5350TIP3   OH237464   1.817   6.561  16.421 -0.2323  0.0069 -0.1132
 5350TIP3    H137465   1.868   6.641  16.407 -0.7359  0.0637 -1.8721
 5350TIP3    H237466   1.754   6.560  16.349 -3.0366  0.1558  2.1889
 5351TIP3   OH237467   1.095   4.227   3.219 -0.2576 -0.3931 -0.2186
 5351TIP3    H137468   1.155   4.167   3.174  0.6778 -0.0822  0.5829
 5351TIP3    H237469   1.151   4.276   3.279 -1.1968  0.4920 -0.0491
 5352TIP3   OH237470   2.473   2.267  12.150  0.0924  0.1847  0.3040
 5352TIP3    H137471   2.492   2.201  12.217 -1.2468 -1.2939 -0.6848
 5352TIP3    H237472   2.545   2.259  12.087  1.9373  2.3114  1.9725
 5353TIP3   OH237473   1.529   5.132  16.901 -0.0386  0.5444 -0.2861
 5353TIP3    H137474   1.500   5.221  16.923  1.3909  1.2162 -0.9672
 5353TIP3    H237475   1.537   5.133  16.805  1.1724  0.0712 -0.2041
 5354TIP3   OH237476   0.889   1.961  11.260 -0.0639  0.2760  0.6620
 5354TIP3    H137477   0.939   1.879  11.263  1.0940  0.9880  1.2515
 5354TIP3    H237478   0.855   1.965  11.171 -0.5217 -1.0603  0.7534
 5355TIP3   OH237479   3.010   5.664   2.247 -0.4066  0.3873 -0.3507
 5355TIP3    H137480   3.045   5.614   2.173  0.5744  3.1087 -1.9045
 5355TIP3    H237481   3.084   5.718   2.275 -1.9412  2.6008 -0.3171
 5356TIP3   OH237482   1.236   5.024   5.505 -0.0127 -0.2639  0.1025
 5356TIP3    H137483   1.143   5.040   5.492  0.0584 -0.1495 -0.2651
 5356TIP3    H237484   1.240   4.937   5.546 -0.1266 -1.7561 -2.8062
 5357TIP3   OH237485   2.559   4.474   2.509  0.1405  0.0509 -0.4672
 5357TIP3    H137486   2.537   4.484   2.417  2.8517  1.1605 -1.0897
 5357TIP3    H237487   2.531   4.556   2.550  1.2080  0.6257 -0.8523
 5358TIP3   OH237488   0.858   0.399  12.242  0.6713 -0.5297  0.5131
 5358TIP3    H137489   0.930   0.406  12.305  1.2179 -0.8954 -0.0649
 5358TIP3    H237490   0.820   0.313  12.258 -0.7295  0.2840  1.9468
 5359TIP3   OH237491   6.401   5.168   2.632 -0.0266 -0.3035 -0.6310
 5359TIP3    H137492   6.412   5.075   2.650  0.5638  0.0128  0.8552
 5359TIP3    H237493   6.316   5.176   2.590 -0.5882 -1.4052  0.2494
 5360TIP3   OH237494   2.214   2.300  16.199  0.0049 -0.3818  0.2706
 5360TIP3    H137495   2.287   2.301  16.260 -0.6903 -0.4828  1.1326
 5360TIP3    H237496   2.212   2.389  16.163 -0.7504  0.2903  1.8690
 5361TIP3   OH237497   1.940   4.416  16.311  0.0368  0.5079 -0.6378
 5361TIP3    H137498   1.926   4.492  16.254  0.1733 -0.1911 -1.6492
 5361TIP3    H237499   1.856   4.370  16.311 -0.2733  1.0513  0.5949
 5362TIP3   OH237500   5.536   0.291   2.620  0.1687 -0.3414 -0.0383
 5362TIP3    H137501   5.502   0.222   2.564 -0.1721 -0.5784  0.4447
 5362TIP3    H237502   5.609   0.329   2.572  3.6829 -4.2674  1.6354
 5363TIP3   OH237503   5.959   2.436  12.088  0.0995  0.1848  0.0930
 5363TIP3    H137504   5.913   2.454  12.006  1.1672 -0.5891 -0.7005
 5363TIP3    H237505   5.895   2.458  12.157 -0.9283  0.5178 -0.9423
 5364TIP3   OH237506   2.343   1.145   4.915 -0.3514  0.0995  0.0221
 5364TIP3    H137507   2.349   1.098   4.998 -0.7560  0.6602  0.3767
 5364TIP3    H237508   2.370   1.081   4.849  1.4471  0.0826  0.7195
 5365TIP3   OH237509   3.427   1.485  15.082  0.3095 -0.0043 -0.1129
 5365TIP3    H137510   3.494   1.498  15.150 -0.6233  1.3420  0.5964
 5365TIP3    H237511   3.365   1.556  15.096 -0.0807  0.1119 -2.2173
 5366TIP3   OH237512   3.224   1.352  13.782 -0.3608 -0.0690  0.1452
 5366TIP3    H137513   3.306   1.362  13.830 -0.3411  1.3412 -0.1163
 5366TIP3    H237514   3.165   1.416  13.824 -1.5033 -1.4341  0.6827
 5367TIP3   OH237515   0.783   2.084   1.485  0.1876  0.2089  0.2072
 5367TIP3    H137516   0.827   2.155   1.531  2.3112 -0.1144 -1.2214
 5367TIP3    H237517   0.792   2.009   1.543  2.8716 -0.2043 -0.6395
 5368TIP3   OH237518   5.327   5.275   1.728  0.2207 -0.1909 -0.0216
 5368TIP3    H137519   5.267   5.247   1.659  1.1921 -2.3220 -0.0979
 5368TIP3    H237520   5.276   5.268   1.809  0.5181 -2.9376  0.0382
 5369TIP3   OH237521   2.345   5.915  10.669  0.7044  0.1345  0.0256
 5369TIP3    H137522   2.284   5.939  10.599 -0.9270 -0.2013  1.2537
 5369TIP3    H237523   2.379   5.829  10.643 -1.0930 -0.7294  0.3277
 5370TIP3   OH237524   3.405   1.357  10.955 -0.0816  0.3821  0.1280
 5370TIP3    H137525   3.447   1.271  10.962  0.1492  0.5091  0.3153
 5370TIP3    H237526   3.312   1.337  10.943  0.2868  0.0012 -3.1128
 5371TIP3   OH237527   3.843   1.009   0.763 -0.2917  0.0913 -0.0639
 5371TIP3    H137528   3.895   1.039   0.838 -1.6818  0.9528  0.6056
 5371TIP3    H237529   3.900   1.019   0.688  0.8550  0.0207  0.7690
 5372TIP3   OH237530   0.252   5.144  14.553  0.9037  1.2114  0.3785
 5372TIP3    H137531   0.275   5.237  14.547  2.9984  0.7150 -0.0985
 5372TIP3    H237532   0.336   5.099  14.554 -0.0620 -0.7899 -1.1964
 5373TIP3   OH237533   4.055   3.152   5.113  0.3385  0.0486 -0.6021
 5373TIP3    H137534   4.109   3.120   5.185  0.8964  2.5588  0.1719
 5373TIP3    H237535   4.055   3.080   5.049  1.7728 -1.3141  0.8479
 5374TIP3   OH237536   2.847   5.505   3.214  0.8016  0.3286  0.0235
 5374TIP3    H137537   2.934   5.517   3.252  0.4465 -0.7737  1.2217
 5374TIP3    H237538   2.850   5.417   3.176  0.0609  0.1218  0.4521
 5375TIP3   OH237539   1.600   2.272  11.050  0.0043  0.3957  0.3361
 5375TIP3    H137540   1.682   2.272  11.098 -1.0206 -0.0915  2.1861
 5375TIP3    H237541   1.590   2.182  11.020 -0.3086  0.2219  0.9517
 5376TIP3   OH237542   4.015   2.546  13.186  0.0601 -0.2684  0.3275
 5376TIP3    H137543   3.939   2.543  13.243  0.6901 -0.6895  1.1551
 5376TIP3    H237544   4.089   2.565  13.244  0.5131  0.7537 -0.5445
 5377TIP3   OH237545   5.341   3.364   0.922  0.3519  0.3592  0.2917
 5377TIP3    H137546   5.396   3.356   1.000  0.4262  1.0402  0.3120
 5377TIP3    H237547   5.252   3.371   0.957  0.3734  0.5459  0.3076
 5378TIP3   OH237548   6.077   2.559  13.461 -0.6333  0.2328  0.6191
 5378TIP3    H137549   6.099   2.569  13.554  0.3438  0.2381  0.4004
 5378TIP3    H237550   6.000   2.614  13.449 -2.6026 -2.0091  2.0630
 5379TIP3   OH237551   1.358   4.334   4.475  0.2253  0.1994  0.5161
 5379TIP3    H137552   1.330   4.317   4.385  1.5304 -0.0599  0.1303
 5379TIP3    H237553   1.337   4.253   4.522 -0.8383  0.4875  0.5515
 5380TIP3   OH237554   1.678   3.471  11.216  0.2049 -0.4082 -0.3958
 5380TIP3    H137555   1.613   3.482  11.146  0.8354  0.5538 -0.8472
 5380TIP3    H237556   1.665   3.381  11.247 -0.4857 -0.6500 -1.3443
 5381TIP3   OH237557   4.243   3.957  11.444 -0.3284  0.2055  0.1325
 5381TIP3    H137558   4.299   3.983  11.370 -0.6166  2.5752  0.6465
 5381TIP3    H237559   4.267   3.866  11.462  0.9715  0.1096 -1.7645
 5382TIP3   OH237560   6.626   2.097  11.445 -0.0943 -0.0295  0.0572
 5382TIP3    H137561   6.569   2.161  11.402 -0.9975  0.1682  1.4687
 5382TIP3    H237562   6.638   2.132  11.534 -0.6644 -1.8139  0.8850
 5383TIP3   OH237563   1.290   3.240  15.080 -0.6927 -0.9004 -0.6482
 5383TIP3    H137564   1.351   3.233  15.007 -1.8407  0.8290 -1.8742
 5383TIP3    H237565   1.326   3.183  15.148  2.4606  0.3086 -1.1352
 5384TIP3   OH237566   1.770   3.477   0.665  0.4393 -0.8218 -0.1756
 5384TIP3    H137567   1.843   3.449   0.610  0.2705 -0.4680 -0.5845
 5384TIP3    H237568   1.692   3.450   0.617  0.2656  0.5113 -0.6873
 5385TIP3   OH237569   2.121   1.151  13.250  0.0531 -0.5086  0.3259
 5385TIP3    H137570   2.150   1.078  13.306 -0.9972 -0.5815  0.7896
 5385TIP3    H237571   2.051   1.193  13.300 -0.8322 -0.5097 -0.8918
 5386TIP3   OH237572   2.354   0.169   2.346 -0.1952  0.1984  0.2310
 5386TIP3    H137573   2.404   0.238   2.391 -0.1429 -0.7799  1.7369
 5386TIP3    H237574   2.363   0.092   2.403 -2.3512 -0.3629 -0.0995
 5387TIP3   OH237575   0.507   0.255  15.800  0.0499 -0.3788  0.0723
 5387TIP3    H137576   0.485   0.200  15.725  1.9819 -0.6686 -0.3143
 5387TIP3    H237577   0.498   0.344  15.767  1.7293 -0.4997 -0.8072
 5388TIP3   OH237578   2.280   1.259   4.094  0.0382  0.3572  0.3686
 5388TIP3    H137579   2.350   1.261   4.159 -0.0782  1.0524  0.4804
 5388TIP3    H237580   2.199   1.269   4.145 -0.0648  0.7349  0.1350
 5389TIP3   OH237581   2.917   4.747   1.722 -0.3267 -0.3256 -0.7133
 5389TIP3    H137582   2.952   4.756   1.811 -0.8290  1.7266 -0.6641
 5389TIP3    H237583   2.824   4.727   1.735 -0.8450  1.8346 -0.6784
 5390TIP3   OH237584   1.900   5.560   0.968  0.1468  0.3582 -0.3055
 5390TIP3    H137585   1.899   5.646   0.925  0.3760  1.2294  1.3492
 5390TIP3    H237586   1.821   5.559   1.021  0.3769 -0.2772  0.0328
 5391TIP3   OH237587   6.413   6.330   4.824  0.2262  0.5808  0.3484
 5391TIP3    H137588   6.322   6.299   4.825 -0.6877  3.0529  0.2184
 5391TIP3    H237589   6.414   6.406   4.883  2.7785 -0.6905  2.1540
 5392TIP3   OH237590   2.836   2.021   4.901 -0.0954 -0.4760 -0.3415
 5392TIP3    H137591   2.914   2.066   4.867 -0.1862 -0.8526 -1.0845
 5392TIP3    H237592   2.829   1.943   4.846 -0.6665 -0.7430  0.1073
 5393TIP3   OH237593   3.866   2.273  12.836  0.4540 -0.1430  0.4412
 5393TIP3    H137594   3.807   2.251  12.908 -2.8950  0.9511 -1.7106
 5393TIP3    H237595   3.941   2.315  12.878 -1.4982  0.8030  3.2892
 5394TIP3   OH237596   6.565   3.660  13.441  0.1447 -0.3187  0.5441
 5394TIP3    H137597   6.653   3.692  13.460  0.2911 -0.3447 -0.0465
 5394TIP3    H237598   6.570   3.632  13.349 -0.9088  1.1233  0.0264
 5395TIP3   OH237599   0.417   1.194  16.404 -0.0064 -0.0603  0.3592
 5395TIP3    H137600   0.456   1.203  16.491  1.1368 -0.9901 -0.0329
 5395TIP3    H237601   0.434   1.278  16.361 -1.6226  0.8538  1.4065
 5396TIP3   OH237602   5.564   1.730  11.822  0.2075 -0.0061 -0.8567
 5396TIP3    H137603   5.557   1.706  11.730 -1.4136  0.1635 -0.8064
 5396TIP3    H237604   5.647   1.777  11.828  0.9393 -1.0807 -1.9707
 5397TIP3   OH237605   5.525   1.874   2.361  0.1191  0.3038 -0.0068
 5397TIP3    H137606   5.598   1.917   2.406  1.6897 -2.1188 -0.0451
 5397TIP3    H237607   5.532   1.905   2.270  1.3330 -0.1180 -0.0799
 5398TIP3   OH237608   0.105   0.028  12.890  0.0446  0.4751 -0.6340
 5398TIP3    H137609   0.076  -0.025  12.965  2.6781 -0.3793 -0.1074
 5398TIP3    H237610   0.047   0.001  12.819 -0.6248 -0.9156  0.3728
 5399TIP3   OH237611   2.656   2.108   2.912  0.3674  0.2022  0.1544
 5399TIP3    H137612   2.642   2.112   3.006 -0.3670 -0.2237  0.0755
 5399TIP3    H237613   2.592   2.044   2.881 -0.7942  1.8064 -0.8944
 5400TIP3   OH237614   3.439   4.597  15.282 -0.6966 -0.1089  0.4616
 5400TIP3    H137615   3.350   4.625  15.302 -0.8706 -0.7421  0.5832
 5400TIP3    H237616   3.465   4.650  15.208 -1.4257 -0.4061 -0.0153
 5401TIP3   OH237617   5.364   0.106   3.587  0.0706  0.6247  0.6904
 5401TIP3    H137618   5.311   0.168   3.638 -2.4482  0.1799 -1.1927
 5401TIP3    H237619   5.315   0.024   3.592 -0.9115  0.8115 -3.1627
 5402TIP3   OH237620   4.299   4.824  12.360  0.2294  0.1820 -0.2446
 5402TIP3    H137621   4.248   4.748  12.389 -0.4751  0.3949 -0.8952
 5402TIP3    H237622   4.349   4.792  12.285 -0.7659  0.5876 -1.0954
 5403TIP3   OH237623   3.502   0.463   1.415 -0.4015  0.1425 -0.0701
 5403TIP3    H137624   3.530   0.514   1.339 -1.4286  0.4499 -0.2679
 5403TIP3    H237625   3.493   0.373   1.381 -1.1557  0.3348 -0.4119
 5404TIP3   OH237626   4.459   4.799  11.515  0.1559 -0.1439 -0.1686
 5404TIP3    H137627   4.365   4.813  11.530  0.0541  0.4601 -1.2871
 5404TIP3    H237628   4.493   4.885  11.490  0.8072 -0.5524 -0.7445
 5405TIP3   OH237629   5.833   1.784   5.327 -0.0910 -0.6579 -0.2771
 5405TIP3    H137630   5.888   1.759   5.402  0.1464 -2.4815 -1.0016
 5405TIP3    H237631   5.895   1.800   5.256 -0.4051 -2.5292 -1.0442
 5406TIP3   OH237632   1.399   0.378   4.397 -0.3921  0.0373  0.7095
 5406TIP3    H137633   1.396   0.398   4.303  0.3459 -1.0089  0.4466
 5406TIP3    H237634   1.491   0.391   4.421 -0.5843  0.3361  1.3106
 5407TIP3   OH237635   4.810   2.244  16.467  0.5250  0.8914  0.2140
 5407TIP3    H137636   4.799   2.338  16.459 -0.2669  0.9786  1.9324
 5407TIP3    H237637   4.792   2.225  16.560  1.0060 -0.8934 -0.0156
 5408TIP3   OH237638   1.958   3.120   2.946 -0.4607 -0.0177 -0.5384
 5408TIP3    H137639   1.866   3.094   2.937 -0.5618 -0.3454  1.0877
 5408TIP3    H237640   1.957   3.215   2.939 -1.0049  0.0185 -0.0713
 5409TIP3   OH237641   6.061   3.034   0.069 -0.2543 -0.5020 -0.2287
 5409TIP3    H137642   6.136   3.088   0.045 -0.1101 -1.4196 -1.9316
 5409TIP3    H237643   6.004   3.036  -0.007 -0.2804 -2.6593 -0.3355
 5410TIP3   OH237644   1.840   0.407  14.098 -0.3339 -0.0210 -0.2227
 5410TIP3    H137645   1.931   0.393  14.072 -0.4090 -1.1868  0.0725
 5410TIP3    H237646   1.824   0.341  14.165 -1.0271  0.9989  0.6526
 5411TIP3   OH237647   2.055   3.297  16.371  0.2609  0.2936 -0.3983
 5411TIP3    H137648   2.118   3.337  16.431  0.0777 -1.4976  1.1033
 5411TIP3    H237649   2.044   3.208  16.404 -2.6607  0.3480 -0.9175
 5412TIP3   OH237650   4.672   1.818  12.330 -0.3017  0.1589  0.6763
 5412TIP3    H137651   4.580   1.829  12.305 -0.6057 -2.2385  0.4106
 5412TIP3    H237652   4.677   1.855  12.418 -1.7336 -0.3047  0.9949
 5413TIP3   OH237653   5.595   5.936   4.339 -0.4300  0.4222 -0.3623
 5413TIP3    H137654   5.516   5.974   4.378 -1.4737 -2.8140  0.9867
 5413TIP3    H237655   5.563   5.880   4.268  0.4233 -1.8460  0.9297
 5414TIP3   OH237656   3.857   3.035  12.304 -0.1144 -0.5116 -0.0348
 5414TIP3    H137657   3.825   3.071  12.386 -0.9718  1.9645 -1.3389
 5414TIP3    H237658   3.925   3.096  12.275 -0.3205 -0.9167 -1.4851
 5415TIP3   OH237659   0.161   6.329   0.293  0.3443 -0.1175  0.3973
 5415TIP3    H137660   0.067   6.318   0.305  0.2677  0.6919  0.5735
 5415TIP3    H237661   0.194   6.357   0.378  0.5389  0.8897  0.0000
 5416TIP3   OH237662   6.317   4.043   4.485  0.4742 -0.5838 -0.0116
 5416TIP3    H137663   6.285   4.131   4.502  0.2242 -0.5308 -0.6984
 5416TIP3    H237664   6.408   4.055   4.460  0.0146 -0.3229 -1.7080
 5417TIP3   OH237665   1.491   4.287   0.177 -0.7654  0.0353 -0.1156
 5417TIP3    H137666   1.467   4.317   0.090 -1.1133 -1.0672 -0.4242
 5417TIP3    H237667   1.524   4.365   0.222 -1.7899  0.8871 -0.7995
 5418TIP3   OH237668   2.508   0.489   0.115 -0.2117  0.6429  0.2188
 5418TIP3    H137669   2.438   0.543   0.152 -0.1554  2.0576 -1.6289
 5418TIP3    H237670   2.502   0.502   0.021  1.2468 -0.8456 -0.1273
 5419TIP3   OH237671   5.790   3.338  11.500 -0.2047  0.0066 -0.0080
 5419TIP3    H137672   5.884   3.349  11.492 -0.3907  0.4581 -1.8594
 5419TIP3    H237673   5.758   3.332  11.410 -1.7834 -1.6030  0.5974
 5420TIP3   OH237674   5.850   6.183  14.246  0.0595 -0.0128  0.0083
 5420TIP3    H137675   5.915   6.253  14.253 -0.1350  0.4873 -2.3849
 5420TIP3    H237676   5.772   6.218  14.289  0.4659  0.5735  0.2711
 5421TIP3   OH237677   4.893   5.919  12.639  0.0650  0.2000  0.1976
 5421TIP3    H137678   4.834   5.858  12.595 -0.0463  1.0323 -0.8584
 5421TIP3    H237679   4.837   5.969  12.697 -0.2150  0.6791 -0.4676
 5422TIP3   OH237680   6.277   2.248   2.830  0.8209  0.3875 -0.1065
 5422TIP3    H137681   6.355   2.200   2.803  1.5302  1.7103 -0.5333
 5422TIP3    H237682   6.282   2.331   2.782 -0.9840  0.4178 -0.3238
 5423TIP3   OH237683   1.070   3.778  16.086  0.4013  0.5122  0.3017
 5423TIP3    H137684   1.163   3.797  16.095  0.4146  0.2860  0.6233
 5423TIP3    H237685   1.027   3.863  16.100  0.6683  1.1081 -1.9992
 5424TIP3   OH237686   5.183   3.374  14.827 -0.2713 -0.2593  0.3411
 5424TIP3    H137687   5.200   3.463  14.797 -0.3162 -0.1709  0.5785
 5424TIP3    H237688   5.097   3.379  14.869 -0.6435 -0.5850 -0.3555
 5425TIP3   OH237689   3.346   2.132   4.180  0.7073 -0.3890 -0.7200
 5425TIP3    H137690   3.405   2.080   4.235 -1.2832 -1.4960  0.4945
 5425TIP3    H237691   3.325   2.075   4.106 -1.1605 -1.2412  0.4065
 5426TIP3   OH237692   6.462   3.125   5.201  0.3682 -0.5281  0.2898
 5426TIP3    H137693   6.531   3.093   5.258 -0.4833 -0.7079  1.2432
 5426TIP3    H237694   6.493   3.105   5.112  1.3457 -0.9605  0.7173
 5427TIP3   OH237695   1.980   4.544   1.557  0.2296 -0.6468 -0.3007
 5427TIP3    H137696   2.040   4.474   1.581  0.6135  0.1050  1.0069
 5427TIP3    H237697   2.015   4.622   1.601 -1.5629 -0.1420  0.3089
 5428TIP3   OH237698   0.253   2.728  11.501  0.2617 -0.6435  0.1487
 5428TIP3    H137699   0.160   2.738  11.481  0.5253  0.8783 -0.4953
 5428TIP3    H237700   0.262   2.757  11.591  0.1341 -0.6752  0.1714
 5429TIP3   OH237701   6.005   1.696  15.924 -0.1643  0.0720 -0.4750
 5429TIP3    H137702   6.089   1.741  15.921  0.4109 -0.7579  1.5297
 5429TIP3    H237703   5.986   1.674  15.832  1.0169  1.6332 -1.1300
 5430TIP3   OH237704   6.175   1.821   1.741 -0.5106  0.1825  0.5425
 5430TIP3    H137705   6.253   1.857   1.698  1.5314 -2.3353  1.8948
 5430TIP3    H237706   6.140   1.758   1.677 -0.4345  0.0762  0.6059
 5431TIP3   OH237707   5.440   4.508  11.334  0.5951  0.3277  0.2854
 5431TIP3    H137708   5.446   4.439  11.400 -0.1286 -1.0732 -1.0472
 5431TIP3    H237709   5.410   4.463  11.255 -0.3156  2.2492 -0.5265
 5432TIP3   OH237710   6.759   6.408  16.973  0.4177  0.3635 -0.3506
 5432TIP3    H137711   6.825   6.355  17.018  1.2637  0.5681 -1.3091
 5432TIP3    H237712   6.720   6.461  17.043 -0.6947 -1.6930  0.6879
 5433TIP3   OH237713   6.728   1.875   2.796 -0.0339  0.1218 -0.4642
 5433TIP3    H137714   6.819   1.898   2.778  0.1747 -0.1006  0.2687
 5433TIP3    H237715   6.731   1.823   2.877 -0.7546 -0.3371 -0.7100
 5434TIP3   OH237716   2.181   3.646   2.711 -0.6994 -0.0176  0.3090
 5434TIP3    H137717   2.092   3.675   2.692 -0.1923  0.9983 -0.7087
 5434TIP3    H237718   2.172   3.554   2.736 -2.0344  0.0999  0.3377
 5435TIP3   OH237719   0.134   0.390   3.778  0.4743 -0.0503 -0.1446
 5435TIP3    H137720   0.079   0.346   3.714  0.0378  0.3602 -0.0553
 5435TIP3    H237721   0.088   0.471   3.799  0.7922 -0.0030  0.4098
 5436TIP3   OH237722   3.838   1.576  16.117 -0.6044  0.4554  0.1549
 5436TIP3    H137723   3.911   1.541  16.066 -1.1918 -1.1625  0.3695
 5436TIP3    H237724   3.860   1.668  16.129  0.5031  0.4268 -1.3276
 5437TIP3   OH237725   4.264   3.476   3.795 -0.2613  0.3520  0.3399
 5437TIP3    H137726   4.240   3.513   3.880 -1.0976  0.4073  0.0908
 5437TIP3    H237727   4.348   3.432   3.811 -0.2425  0.6404  1.1097
 5438TIP3   OH237728   3.246   4.513   1.195 -0.0869 -0.0019  0.2147
 5438TIP3    H137729   3.182   4.573   1.155 -1.0398 -0.5515  0.8594
 5438TIP3    H237730   3.329   4.559   1.188 -0.3781  0.3430 -1.5002
 5439TIP3   OH237731   0.867   5.419   0.022 -0.0495 -0.1149 -0.0421
 5439TIP3    H137732   0.911   5.493  -0.019  0.7076 -0.0192  0.8791
 5439TIP3    H237733   0.939   5.369   0.063 -0.6652 -0.7203  0.3228
 5440TIP3   OH237734   4.563   0.057  15.051  0.0873 -0.7557  0.0035
 5440TIP3    H137735   4.584   0.121  14.982 -0.8492  1.0465  1.3057
 5440TIP3    H237736   4.468   0.051  15.049 -0.0764  0.3891  1.9795
 5441TIP3   OH237737   1.181   4.768  11.601 -0.3466  0.8963  0.4621
 5441TIP3    H137738   1.122   4.782  11.528 -1.4822  1.0731  1.3751
 5441TIP3    H237739   1.269   4.781  11.565 -0.7648 -0.6806 -1.2262
 5442TIP3   OH237740   4.327   6.749   0.322 -0.1934  0.5405  0.0259
 5442TIP3    H137741   4.371   6.726   0.404  1.3215  0.8305 -0.6639
 5442TIP3    H237742   4.237   6.768   0.347 -0.0300 -0.4401  1.4504
 5443TIP3   OH237743   3.367   3.044  15.573 -0.2969  0.0868 -0.1807
 5443TIP3    H137744   3.401   2.989  15.644  2.4292 -0.9192 -2.0697
 5443TIP3    H237745   3.308   2.986  15.524  1.2654 -0.7239 -1.1965
 5444TIP3   OH237746   6.330   2.059  16.337 -0.3367  0.1355 -0.6981
 5444TIP3    H137747   6.423   2.048  16.355 -0.8981 -0.3189  2.5798
 5444TIP3    H237748   6.290   2.074  16.423 -3.3223  0.1536 -1.9461
 5445TIP3   OH237749   2.619   1.566  12.395  0.1787 -0.0712 -0.3768
 5445TIP3    H137750   2.673   1.496  12.359  1.0765  0.2233  0.3459
 5445TIP3    H237751   2.552   1.520  12.447 -0.2527 -0.4367 -1.2351
 5446TIP3   OH237752   6.639   4.712   0.842  0.3156  0.2639  0.0886
 5446TIP3    H137753   6.604   4.769   0.774 -0.9506  0.4172  0.8357
 5446TIP3    H237754   6.579   4.637   0.842  0.8634 -0.1774  0.3964
 5447TIP3   OH237755   4.520   1.893   1.223 -0.4140 -0.2170 -0.0681
 5447TIP3    H137756   4.575   1.874   1.147 -0.2152 -0.6715  0.1867
 5447TIP3    H237757   4.581   1.909   1.294 -0.5896  0.9317 -0.1608
 5448TIP3   OH237758   2.082   3.716   2.024  0.3929  0.5513  0.1203
 5448TIP3    H137759   2.051   3.652   2.088 -0.4601  2.2840  1.5145
 5448TIP3    H237760   2.156   3.672   1.981  1.6527 -0.3740  2.9396
 5449TIP3   OH237761   0.514   4.695  15.604  0.0125  0.3448  0.2440
 5449TIP3    H137762   0.565   4.775  15.592  0.0765  0.4485  1.1184
 5449TIP3    H237763   0.496   4.664  15.516  1.0522  0.6503 -0.0856
 5450TIP3   OH237764   4.850   5.753  12.284  0.1207  0.1245 -0.1737
 5450TIP3    H137765   4.939   5.734  12.314 -0.6651  0.0596  2.2694
 5450TIP3    H237766   4.862   5.815  12.212  2.1477 -0.2328 -0.1973
 5451TIP3   OH237767   3.856   5.024   4.247 -0.9045  0.0245 -0.3402
 5451TIP3    H137768   3.922   5.035   4.179 -2.6393 -0.5747 -2.2229
 5451TIP3    H237769   3.847   5.110   4.288  1.6541 -0.1030  0.6335
 5452TIP3   OH237770   6.735   5.653   2.803 -0.6638  0.1426  0.0530
 5452TIP3    H137771   6.799   5.629   2.736 -0.0014 -0.1276  0.7689
 5452TIP3    H237772   6.690   5.730   2.767 -0.3327 -0.0030 -0.6989
 5453TIP3   OH237773   0.333   3.765  13.061  0.3663 -0.3720 -0.2181
 5453TIP3    H137774   0.266   3.707  13.097  0.4961  0.2135  0.9927
 5453TIP3    H237775   0.413   3.744  13.110  0.5845  0.3361 -0.2588
 5454TIP3   OH237776   2.596   2.563   1.011  0.1907  0.1286 -0.3974
 5454TIP3    H137777   2.540   2.495   1.049 -0.4230 -0.1443 -1.7208
 5454TIP3    H237778   2.684   2.528   1.020  0.1221  0.2682  1.1270
 5455TIP3   OH237779   5.029   0.770   3.523  0.1023  0.1316 -0.1102
 5455TIP3    H137780   4.990   0.699   3.472  0.4126 -0.0405 -0.1110
 5455TIP3    H237781   5.094   0.728   3.578  0.8678  0.5113 -0.7000
 5456TIP3   OH237782   1.127   3.431  13.353  0.1496 -0.1066  0.1657
 5456TIP3    H137783   1.160   3.365  13.413 -1.7547  0.7165  2.2690
 5456TIP3    H237784   1.065   3.384  13.297 -0.5990 -0.3008  1.1276
 5457TIP3   OH237785   2.336   0.844  13.654  0.1489  0.2625 -0.5370
 5457TIP3    H137786   2.431   0.846  13.662  0.3590 -0.6490 -2.3086
 5457TIP3    H237787   2.318   0.771  13.595 -1.8150 -1.0304  1.5130
 5458TIP3   OH237788   5.014   5.242  11.219 -0.0612 -0.0552  0.3827
 5458TIP3    H137789   5.063   5.166  11.251 -0.2451 -0.5404 -0.4505
 5458TIP3    H237790   5.020   5.306  11.289 -0.1056 -0.9339  1.2024
 5459TIP3   OH237791   5.762   2.832   0.320  0.9404  0.5774  0.4689
 5459TIP3    H137792   5.804   2.915   0.298 -0.0282  0.9855  0.1205
 5459TIP3    H237793   5.674   2.855   0.348  0.6753 -0.3239  0.4292
 5460TIP3   OH237794   1.445   5.426  15.768 -0.2721 -0.4479 -0.2620
 5460TIP3    H137795   1.352   5.433  15.791  0.0297  0.6488  0.7050
 5460TIP3    H237796   1.484   5.376  15.840 -0.5648 -3.5852 -2.0790
 5461TIP3   OH237797   2.109   4.766  15.912  0.5978 -0.3836  0.3446
 5461TIP3    H137798   2.124   4.860  15.908 -1.9146  0.0420 -1.7103
 5461TIP3    H237799   2.036   4.755  15.973 -0.7724 -0.6483 -1.2592
 5462TIP3   OH237800   4.791   0.981   3.501  0.8449  0.9355  0.6583
 5462TIP3    H137801   4.698   0.956   3.499  0.9699  0.4367 -0.9302
 5462TIP3    H237802   4.838   0.898   3.506  1.2307  1.2349  2.6930
 5463TIP3   OH237803   3.120   4.520  16.970  0.1171  0.4550  0.4120
 5463TIP3    H137804   3.082   4.469  16.899  0.4688 -0.1396  0.6463
 5463TIP3    H237805   3.119   4.611  16.938 -1.1277  0.3991  0.2675
 5464TIP3   OH237806   2.996   5.517   4.588 -0.4687 -0.5705 -0.0992
 5464TIP3    H137807   2.935   5.542   4.519 -0.0564  0.0714 -0.2434
 5464TIP3    H237808   3.031   5.432   4.560  0.6917  0.2858 -1.3783
 5465TIP3   OH237809   5.145   4.614  15.572  0.2805  0.5383  0.6533
 5465TIP3    H137810   5.054   4.612  15.542  0.5078 -1.0436 -0.0037
 5465TIP3    H237811   5.152   4.695  15.622 -1.1645  1.2905 -0.3095
 5466TIP3   OH237812   2.264   1.869  14.620  0.2808 -0.2836  0.7956
 5466TIP3    H137813   2.314   1.876  14.539 -1.6981 -0.8857 -0.5689
 5466TIP3    H237814   2.320   1.820  14.680  1.9228  0.4769 -0.0695
 5467TIP3   OH237815   1.456   3.369  14.774  0.1423 -0.1813 -0.0774
 5467TIP3    H137816   1.504   3.440  14.815 -0.2152 -0.0278  0.0789
 5467TIP3    H237817   1.524   3.308  14.744  0.5412  0.8620 -1.4094
 5468TIP3   OH237818   2.195   2.845  13.858  0.1591  0.6525 -0.1088
 5468TIP3    H137819   2.268   2.834  13.797  0.1013  0.7384 -0.1948
 5468TIP3    H237820   2.135   2.774  13.837  1.8611 -1.6835  2.3713
 5469TIP3   OH237821   1.353   4.665  13.094  0.0552  0.4646 -0.1116
 5469TIP3    H137822   1.337   4.655  13.188  0.0859 -1.1917 -0.2603
 5469TIP3    H237823   1.436   4.712  13.088 -0.8147  2.2196  0.6615
 5470TIP3   OH237824   3.242   1.425   3.987  0.0122  0.2801 -0.1047
 5470TIP3    H137825   3.304   1.497   4.004 -1.1021  1.1213  0.6076
 5470TIP3    H237826   3.296   1.354   3.954  1.2057  1.3511 -0.5611
 5471TIP3   OH237827   4.216   2.546   3.853 -0.2791 -0.5748 -0.3330
 5471TIP3    H137828   4.182   2.576   3.769 -0.0253  0.2389 -0.1543
 5471TIP3    H237829   4.270   2.618   3.885  0.3317 -1.2144  0.1307
 5472TIP3   OH237830   5.333   5.813   5.854 -0.3447  0.1337 -0.6047
 5472TIP3    H137831   5.241   5.809   5.829 -0.5901 -0.3001  0.3198
 5472TIP3    H237832   5.333   5.857   5.938  0.1946 -0.6462 -0.1778
 5473TIP3   OH237833   0.559   1.936  11.432  0.5637  0.7215 -0.1734
 5473TIP3    H137834   0.493   2.005  11.432  0.9547  1.1376 -1.9195
 5473TIP3    H237835   0.519   1.863  11.386  0.1298 -0.3058  1.7215
 5474TIP3   OH237836   0.613   1.874  11.833 -0.0320 -0.3774 -0.8048
 5474TIP3    H137837   0.559   1.841  11.904 -0.6602 -0.6077 -1.3780
 5474TIP3    H237838   0.702   1.871  11.867 -0.1205 -2.1290 -0.6436
 5475TIP3   OH237839   0.696   5.720  15.852  0.0438  0.0385  0.3858
 5475TIP3    H137840   0.658   5.719  15.940  0.2869  0.7359  0.5036
 5475TIP3    H237841   0.629   5.762  15.798  1.0986  2.4698  0.8336
 5476TIP3   OH237842   3.361   3.970   1.184 -0.4260  0.5942 -0.2800
 5476TIP3    H137843   3.347   3.913   1.260 -0.7648  0.1275 -0.6840
 5476TIP3    H237844   3.320   4.053   1.208 -0.2801  0.5452  0.1568
 5477TIP3   OH237845   0.366   3.148   2.781 -0.2370  0.2329  0.0387
 5477TIP3    H137846   0.313   3.122   2.856 -1.3859  1.9580 -0.1127
 5477TIP3    H237847   0.354   3.078   2.717 -1.2839 -0.0301  0.5100
 5478TIP3   OH237848   1.214   1.280   4.152  0.1024 -0.2103 -0.6774
 5478TIP3    H137849   1.294   1.330   4.133 -0.2972  1.0120  0.6535
 5478TIP3    H237850   1.221   1.258   4.245 -0.5465 -1.1572 -0.8420
 5479TIP3   OH237851   1.187   0.895  11.786 -0.3586 -0.7919 -0.0284
 5479TIP3    H137852   1.220   0.984  11.775 -0.2027 -1.0048 -1.4689
 5479TIP3    H237853   1.242   0.857  11.855 -0.1866  0.1055  0.3344
 5480TIP3   OH237854   1.498   0.510  17.035  0.5591  0.0884  0.0889
 5480TIP3    H137855   1.430   0.564  17.075  1.5365  0.5294  1.2352
 5480TIP3    H237856   1.457   0.426  17.021  0.1443 -0.1033  2.1034
 5481TIP3   OH237857   4.195   2.200  15.570  0.2571 -0.5912 -0.4565
 5481TIP3    H137858   4.260   2.212  15.501 -1.6597 -0.1448 -2.3012
 5481TIP3    H237859   4.238   2.232  15.649  1.4649  1.9784 -2.0207
 5482TIP3   OH237860   0.998   5.574   4.035  0.2862 -0.3689  0.7276
 5482TIP3    H137861   0.956   5.534   4.111 -0.3184 -1.2422 -0.0505
 5482TIP3    H237862   0.988   5.510   3.965  1.4986  0.0912  0.0927
 5483TIP3   OH237863   4.634   4.385   4.257 -0.0220  0.4646 -0.4011
 5483TIP3    H137864   4.556   4.361   4.207 -0.2259 -0.0806  0.1584
 5483TIP3    H237865   4.704   4.389   4.192 -1.0801  4.3879 -1.5589
 5484TIP3   OH237866   4.613   2.340   1.878 -0.0593 -0.0886  0.3024
 5484TIP3    H137867   4.671   2.405   1.920  1.4226 -1.1174 -0.0577
 5484TIP3    H237868   4.650   2.256   1.903  0.4806 -0.7577 -2.4228
 5485TIP3   OH237869   0.843   6.026  17.220 -0.1330  0.6655  0.5911
 5485TIP3    H137870   0.906   6.089  17.255  1.6403  0.7387 -2.3847
 5485TIP3    H237871   0.837   5.959  17.288  2.7575  0.9569  1.2694
 5486TIP3   OH237872   0.135   4.172  15.216 -0.1733  0.5925 -0.0727
 5486TIP3    H137873   0.123   4.145  15.125 -0.2617  2.0546 -0.5270
 5486TIP3    H237874   0.200   4.111  15.251 -0.2219 -0.0618 -1.0811
 5487TIP3   OH237875   1.590   3.125  11.449  0.0319 -0.4112  0.3730
 5487TIP3    H137876   1.599   3.047  11.393 -0.8542 -0.6250  0.5092
 5487TIP3    H237877   1.519   3.175  11.408  2.1808  1.5953 -1.1557
 5488TIP3   OH237878   5.355   5.743  13.143 -0.5447  0.4010  0.1318
 5488TIP3    H137879   5.355   5.745  13.238 -0.7284 -1.5748  0.2201
 5488TIP3    H237880   5.447   5.733  13.119 -0.5979 -0.2173  0.1665
 5489TIP3   OH237881   5.801   6.034  13.829  0.0978 -0.3320  0.0265
 5489TIP3    H137882   5.817   6.121  13.865 -0.1637 -0.1484 -0.3052
 5489TIP3    H237883   5.723   6.044  13.775 -2.8779 -1.7499  3.6705
 5490TIP3   OH237884   1.498   2.190  15.151  0.3706  0.0918 -0.0186
 5490TIP3    H137885   1.468   2.133  15.221 -0.9241  0.9152  0.1271
 5490TIP3    H237886   1.488   2.138  15.071 -1.8129  0.3997 -0.0173
 5491TIP3   OH237887   1.892   1.383   1.135  0.2044 -0.2811  0.1286
 5491TIP3    H137888   1.979   1.415   1.159 -0.0691  1.2735 -0.7615
 5491TIP3    H237889   1.831   1.447   1.173 -0.3535  0.6536 -2.1459
 5492TIP3   OH237890   3.075   2.395   0.699  0.1160  0.5624 -0.3825
 5492TIP3    H137891   3.063   2.480   0.742  1.2967  0.9166 -0.7095
 5492TIP3    H237892   3.125   2.343   0.761 -0.8776 -0.0120 -0.0548
 5493TIP3   OH237893   6.126   1.691   0.786 -0.4174  0.5317  0.0730
 5493TIP3    H137894   6.206   1.712   0.738 -1.5351  1.1271 -1.6149
 5493TIP3    H237895   6.147   1.612   0.835  0.9193  0.1410 -1.0772
 5494TIP3   OH237896   1.689   2.220   2.155  0.4531 -0.1009 -1.0560
 5494TIP3    H137897   1.619   2.180   2.207  2.0963 -0.7328  0.7530
 5494TIP3    H237898   1.709   2.301   2.200  0.9858  0.0166 -1.4950
 5495TIP3   OH237899   4.815   0.210  11.995 -0.6921  0.5100 -0.0086
 5495TIP3    H137900   4.737   0.223  12.048 -1.3151 -1.6189 -0.3198
 5495TIP3    H237901   4.854   0.129  12.029  2.5661  2.4765  1.4993
 5496TIP3   OH237902   4.274   5.242   0.763 -0.0353 -0.6261 -0.4435
 5496TIP3    H137903   4.185   5.220   0.735 -0.4582 -0.9509  1.0200
 5496TIP3    H237904   4.310   5.159   0.795  1.1101 -0.6674 -1.7498
 5497TIP3   OH237905   5.598   6.591   4.515  0.1212  0.5997  0.4690
 5497TIP3    H137906   5.508   6.561   4.527 -0.5771  2.1753 -0.5941
 5497TIP3    H237907   5.627   6.550   4.434  0.4739 -0.0983  0.9331
 5498TIP3   OH237908   2.705   2.813  15.436 -0.7573  0.1945 -0.2572
 5498TIP3    H137909   2.626   2.841  15.390 -1.1937 -1.1944 -0.3938
 5498TIP3    H237910   2.673   2.765  15.512 -0.0650 -0.4183 -0.3357
 5499TIP3   OH237911   2.173   2.791   4.457 -0.4764 -0.2496  0.5634
 5499TIP3    H137912   2.163   2.838   4.374 -1.2315  0.6896  1.1642
 5499TIP3    H237913   2.174   2.699   4.433  0.0266  0.0254 -0.5532
 5500TIP3   OH237914   3.962   0.607  11.749 -0.1885  0.1078 -0.0056
 5500TIP3    H137915   4.009   0.674  11.798  0.8314 -0.3670 -0.2969
 5500TIP3    H237916   3.871   0.635  11.750 -0.0279  0.6248  1.2906
 5501TIP3   OH237917   4.072   3.312   2.915 -0.4003  0.8990 -0.4197
 5501TIP3    H137918   4.009   3.384   2.907  1.3330  2.4723 -0.5316
 5501TIP3    H237919   4.050   3.271   2.998 -1.2466  1.7544 -0.1968
 5502TIP3   OH237920   2.478   5.647  11.416  0.4185 -0.7751 -0.2783
 5502TIP3    H137921   2.388   5.654  11.382  1.1158 -0.5330 -2.2248
 5502TIP3    H237922   2.477   5.567  11.468 -0.7863 -1.1339 -0.7983
 5503TIP3   OH237923   3.884   5.437  15.634 -0.1264 -0.4124 -0.1442
 5503TIP3    H137924   3.870   5.344  15.649 -1.8137 -0.0648  0.5514
 5503TIP3    H237925   3.927   5.441  15.548  0.8689 -1.8628  0.2581
 5504TIP3   OH237926   3.129   4.443  14.460 -0.1254 -0.1593  0.6659
 5504TIP3    H137927   3.147   4.376  14.394 -4.0551  0.9684 -1.9054
 5504TIP3    H237928   3.183   4.517  14.433  1.2013 -0.9163  1.1327
 5505TIP3   OH237929   2.898   6.523  14.967  0.1642 -0.0625 -0.1585
 5505TIP3    H137930   2.817   6.474  14.958 -0.9585  1.4518  1.1591
 5505TIP3    H237931   2.962   6.474  14.914 -1.7127 -0.9722 -1.7005
 5506TIP3   OH237932   2.597   1.608   3.605  0.2618 -0.2098  0.5551
 5506TIP3    H137933   2.655   1.678   3.577 -0.3312  0.1475  0.1932
 5506TIP3    H237934   2.634   1.529   3.565  0.2491  0.0804 -0.0531
 5507TIP3   OH237935   4.439   0.401   5.825  0.3011  0.2674 -0.1300
 5507TIP3    H137936   4.371   0.417   5.760  0.7620  0.1564 -0.6494
 5507TIP3    H237937   4.444   0.482   5.876  1.0461  0.9676 -1.2711
 5508TIP3   OH237938   2.880   4.368  15.528 -0.0652  0.7373 -0.3588
 5508TIP3    H137939   2.910   4.456  15.504  1.2037  0.9767  1.9123
 5508TIP3    H237940   2.942   4.309  15.486  0.1791  0.9976 -0.3644
 5509TIP3   OH237941   4.347   5.816   1.831 -0.1702 -0.6334 -0.2102
 5509TIP3    H137942   4.428   5.811   1.781  0.2025  0.7673  0.2002
 5509TIP3    H237943   4.365   5.767   1.911 -0.4610 -2.1037 -1.0166
 5510TIP3   OH237944   2.783   0.640   2.350 -0.1508  0.0749 -0.1545
 5510TIP3    H137945   2.780   0.643   2.255 -0.8634  0.5460 -0.1255
 5510TIP3    H237946   2.779   0.731   2.378  1.1650  0.0131  0.3154
 5511TIP3   OH237947   3.317   6.318   3.148  0.7257  0.0709 -0.3034
 5511TIP3    H137948   3.259   6.248   3.178  0.7993  0.3361  0.4803
 5511TIP3    H237949   3.403   6.296   3.186  0.8616  0.3236 -0.4613
 5512TIP3   OH237950   3.362   0.939  12.381  0.1727 -0.0444  0.2711
 5512TIP3    H137951   3.269   0.925  12.362 -0.4433 -0.5231  3.2255
 5512TIP3    H237952   3.408   0.876  12.324 -1.4354 -1.2246  0.2314
 5513TIP3   OH237953   3.819   3.594   4.063  0.2224  0.2804  0.0401
 5513TIP3    H137954   3.835   3.500   4.057 -0.3148  0.1163  1.0193
 5513TIP3    H237955   3.904   3.634   4.042  0.6462 -0.4367  0.3576
 5514TIP3   OH237956   2.439   3.196   3.734  0.6109  0.0513 -1.3923
 5514TIP3    H137957   2.483   3.125   3.782 -0.3848 -0.5018 -1.2868
 5514TIP3    H237958   2.507   3.229   3.675  1.9885  0.9810  0.5773
 5515TIP3   OH237959   0.363   1.024   1.108 -0.5326 -0.3034 -0.5095
 5515TIP3    H137960   0.288   0.995   1.055 -2.0515  0.9520  0.8230
 5515TIP3    H237961   0.353   0.977   1.191  0.6102 -0.6993 -0.5908
 5516TIP3   OH237962   4.752   3.307   3.637 -0.1717  0.0818  0.4130
 5516TIP3    H137963   4.806   3.289   3.560 -3.0155  1.1139 -2.0463
 5516TIP3    H237964   4.730   3.220   3.671  0.7150 -0.4252 -0.2563
 5517TIP3   OH237965   6.226   4.233  11.005 -0.3666  0.4315 -0.4564
 5517TIP3    H137966   6.286   4.303  11.031  1.2503 -0.2005 -2.2397
 5517TIP3    H237967   6.264   4.197  10.925 -1.5612 -2.0017 -0.0248
 5518TIP3   OH237968   5.558   5.810  12.545  0.3328  0.4079  0.4105
 5518TIP3    H137969   5.641   5.835  12.586  0.1514  0.3172  0.8412
 5518TIP3    H237970   5.536   5.726  12.585  0.6170 -0.1324 -0.5592
 5519TIP3   OH237971   5.165   2.722  12.380  0.0513  0.1689  0.6505
 5519TIP3    H137972   5.240   2.683  12.336 -0.0266  2.1877 -1.4720
 5519TIP3    H237973   5.175   2.817  12.366 -1.7147  0.6646  2.2579
 5520TIP3   OH237974   0.295   2.763   1.955  0.1868 -0.6871  0.0307
 5520TIP3    H137975   0.367   2.700   1.959 -0.4672 -1.4113  0.9555
 5520TIP3    H237976   0.223   2.714   1.916  0.8132  0.7306 -3.2752
 5521TIP3   OH237977   5.091   6.175  12.761 -0.4614  0.5565 -0.1468
 5521TIP3    H137978   5.181   6.173  12.793 -0.7300  0.3773  0.6171
 5521TIP3    H237979   5.062   6.266  12.775 -0.9976  0.1821  1.3464
 5522TIP3   OH237980   2.222   3.726   6.142 -0.3581 -0.4358  0.3097
 5522TIP3    H137981   2.287   3.787   6.177  0.4034 -0.8475 -0.3679
 5522TIP3    H237982   2.263   3.688   6.065 -1.3866 -0.7488 -0.1025
 5523TIP3   OH237983   6.246   0.107  15.678 -0.2146  0.1003 -0.3078
 5523TIP3    H137984   6.274   0.032  15.731 -1.2521  0.4421  0.7806
 5523TIP3    H237985   6.212   0.170  15.742  0.0486  1.2420 -1.2541
 5524TIP3   OH237986   0.436   5.417  14.125 -0.4599 -0.3465  0.3483
 5524TIP3    H137987   0.394   5.347  14.075  0.7583 -1.2198  0.4866
 5524TIP3    H237988   0.529   5.410  14.102 -0.0563  0.0313  1.7911
 5525TIP3   OH237989   0.358   2.463   1.589 -0.1852  0.4172  0.3397
 5525TIP3    H137990   0.409   2.533   1.629  1.2724  0.7046 -1.7925
 5525TIP3    H237991   0.425   2.405   1.551 -1.3989 -0.1814 -0.9848
 5526TIP3   OH237992   0.617   3.963   2.846  0.5317  0.3345 -0.1354
 5526TIP3    H137993   0.613   4.032   2.912  1.1982 -0.5150  0.8339
 5526TIP3    H237994   0.705   3.927   2.854  0.6533  0.2539 -1.5653
 5527TIP3   OH237995   2.988   4.498   3.009 -0.6036  0.4188 -0.5226
 5527TIP3    H137996   3.025   4.434   2.948 -0.2843  1.3187 -1.3023
 5527TIP3    H237997   2.901   4.518   2.974 -0.9016  0.0394  0.0001
 5528TIP3   OH237998   3.776   5.931   1.582 -0.1233 -0.4558 -0.0632
 5528TIP3    H137999   3.854   5.880   1.605  0.7749 -0.4355 -2.7118
 5528TIP3    H238000   3.726   5.872   1.524  0.0230  0.9521 -1.6999
 5529TIP3   OH238001   0.077   0.671   6.013 -0.6499 -0.2125  0.5293
 5529TIP3    H138002  -0.011   0.639   5.996 -0.8823  0.1733  0.9779
 5529TIP3    H238003   0.095   0.644   6.103 -0.6881  0.5390  0.7729
 5530TIP3   OH238004   1.604   1.871  12.732 -0.1269 -0.4901 -0.2081
 5530TIP3    H138005   1.638   1.792  12.774 -1.0130 -0.3482  0.8237
 5530TIP3    H238006   1.679   1.931  12.730  0.3415 -1.0675 -0.2644
 5531TIP3   OH238007   3.090   3.412  10.702 -0.1724  0.3564  0.0382
 5531TIP3    H138008   3.005   3.451  10.724 -0.7910 -1.5147  1.3252
 5531TIP3    H238009   3.103   3.432  10.610 -1.7486  1.1750 -0.0381
 5532TIP3   OH238010   6.064   4.076  14.606  0.3108  0.1937 -0.3521
 5532TIP3    H138011   6.051   4.161  14.564 -2.8057  0.9775  1.7787
 5532TIP3    H238012   6.007   4.079  14.683  1.3314 -3.2520  0.7278
 5533TIP3   OH238013   1.085   4.314  16.959 -0.6356  0.5906 -0.5683
 5533TIP3    H138014   1.062   4.222  16.970 -0.5521  0.6433  0.0640
 5533TIP3    H238015   1.181   4.315  16.962 -0.6067  0.6233 -1.2184
 5534TIP3   OH238016   3.212   2.503   0.385  0.0577 -0.1120 -1.1054
 5534TIP3    H138017   3.266   2.430   0.416 -0.9606 -0.2855  0.3952
 5534TIP3    H238018   3.149   2.463   0.325  0.5617 -0.1721 -1.6025
 5535TIP3   OH238019   4.779   1.266   0.163  0.1315 -0.1113  0.5915
 5535TIP3    H138020   4.853   1.318   0.194 -0.3788  0.1128  1.4576
 5535TIP3    H238021   4.756   1.211   0.238 -0.3051 -0.4930  0.1831
 5536TIP3   OH238022   5.749   2.829  16.426 -0.5707 -0.0473  0.1940
 5536TIP3    H138023   5.724   2.754  16.373 -0.0228  0.0130 -0.1569
 5536TIP3    H238024   5.763   2.900  16.363 -2.1550  0.6772  0.5979
 5537TIP3   OH238025   2.388   1.620   0.375 -0.2219  0.0201 -0.2805
 5537TIP3    H138026   2.379   1.597   0.468  0.7885 -0.2211 -0.2344
 5537TIP3    H238027   2.345   1.705   0.368 -0.6651 -0.1449  0.3273
 5538TIP3   OH238028   3.321   3.964  13.970  0.5270  0.4295  0.2937
 5538TIP3    H138029   3.401   3.988  13.923 -0.2207  0.0470 -1.2502
 5538TIP3    H238030   3.251   4.007  13.922 -0.2026  1.1239  1.8868
 5539TIP3   OH238031   0.710   5.241  14.809 -0.5656  0.1771  0.1985
 5539TIP3    H138032   0.633   5.235  14.753  0.9264 -0.5149 -1.9186
 5539TIP3    H238033   0.775   5.289  14.757  1.2381 -1.3851  0.8661
 5540TIP3   OH238034   5.692   5.215  12.191 -0.0497  0.0349  0.1624
 5540TIP3    H138035   5.612   5.200  12.140  1.4205 -2.2365 -1.6578
 5540TIP3    H238036   5.739   5.282  12.141  0.5116 -0.7922 -0.4374
 5541TIP3   OH238037   5.106   1.879  10.505 -0.5325  0.1114  0.1913
 5541TIP3    H138038   5.174   1.943  10.524  0.4959 -1.3807  1.9127
 5541TIP3    H238039   5.041   1.926  10.453  0.4770  2.3429  0.8678
 5542TIP3   OH238040   5.636   1.971   3.575 -0.1217  0.3465  0.3852
 5542TIP3    H138041   5.698   1.898   3.580  1.3818  1.3801 -1.5225
 5542TIP3    H238042   5.555   1.932   3.542  0.3878 -0.6055  0.2290
 5543TIP3   OH238043   1.453   2.042   1.812  0.2216 -0.4342  0.0978
 5543TIP3    H138044   1.403   1.982   1.758 -0.0599  0.0347 -0.1647
 5543TIP3    H238045   1.513   2.085   1.751 -3.2314  3.5768 -0.8707
 5544TIP3   OH238046   2.954   6.015   4.597 -0.0563 -0.1721 -0.2232
 5544TIP3    H138047   2.862   5.997   4.580 -0.0242  0.6720 -1.3394
 5544TIP3    H238048   3.000   5.981   4.521  0.5366 -0.3011  0.1836
 5545TIP3   OH238049   0.946   4.264  13.225 -0.1775 -0.4203  1.3873
 5545TIP3    H138050   0.945   4.290  13.317 -0.9958  0.8194  1.0585
 5545TIP3    H238051   0.860   4.290  13.193  0.8581  1.1912 -0.2583
 5546TIP3   OH238052   1.725   1.555   5.836 -0.1201 -0.2298  0.3196
 5546TIP3    H138053   1.749   1.536   5.746  0.3439 -0.3678  0.4705
 5546TIP3    H238054   1.629   1.552   5.837 -0.0991 -2.9448  0.4189
 5547TIP3   OH238055   4.108   1.596   5.995  0.4035  0.1384  0.2142
 5547TIP3    H138056   4.134   1.537   6.066 -0.1159  1.6019  1.6812
 5547TIP3    H238057   4.180   1.659   5.988  1.0473 -0.7313 -1.4734
 5548TIP3   OH238058   4.337   4.912  14.984 -0.6075  0.2102  0.5216
 5548TIP3    H138059   4.330   4.929  15.078  0.8996  1.5256  0.4341
 5548TIP3    H238060   4.334   4.999  14.944  1.1184 -0.1347 -0.4473
 5549TIP3   OH238061   5.251   6.173   1.522  0.3603  0.1656  0.0511
 5549TIP3    H138062   5.335   6.186   1.566  0.3322 -2.2944  0.9485
 5549TIP3    H238063   5.257   6.086   1.482 -1.8886 -0.2537  0.4940
 5550TIP3   OH238064   2.207   6.550   3.713 -0.0799  0.0417 -0.1633
 5550TIP3    H138065   2.127   6.560   3.661 -0.2014  1.0172  0.1918
 5550TIP3    H238066   2.232   6.640   3.736 -1.2787 -0.3558  3.2999
 5551TIP3   OH238067   4.037   6.759   1.204  0.2461 -0.5573  0.2004
 5551TIP3    H138068   4.031   6.845   1.246 -0.5900  0.3317 -1.6257
 5551TIP3    H238069   4.074   6.702   1.272 -1.6322  0.6182  2.3766
 5552TIP3   OH238070   4.536   4.954   2.531 -0.8686 -0.0838 -0.8120
 5552TIP3    H138071   4.620   4.954   2.576 -0.5090  2.3849 -1.3462
 5552TIP3    H238072   4.494   5.035   2.558 -2.1954 -0.2743 -2.1420
 5553TIP3   OH238073   3.096   1.053  15.445  0.1713 -0.6373  0.4151
 5553TIP3    H138074   3.032   1.019  15.383 -0.3947 -1.2154  1.2910
 5553TIP3    H238075   3.059   1.136  15.475  1.8534  1.1994 -2.2015
 5554TIP3   OH238076   6.270   0.980   4.235  0.1944 -0.4498 -0.4024
 5554TIP3    H138077   6.184   0.941   4.222 -0.5656  1.3260 -0.9882
 5554TIP3    H238078   6.308   0.985   4.147  0.1952  0.2748 -0.3687
 5555TIP3   OH238079   2.549   0.260  14.470  0.1959  0.2770  0.2126
 5555TIP3    H138080   2.597   0.342  14.465 -0.0460  0.3622 -1.0248
 5555TIP3    H238081   2.587   0.214  14.545  1.8329  0.5829 -0.3967
 5556TIP3   OH238082   5.732   6.114   4.865 -0.4006  0.0542 -0.4076
 5556TIP3    H138083   5.778   6.195   4.890  0.8031 -0.3410 -1.2298
 5556TIP3    H238084   5.801   6.048   4.862 -1.6693 -1.5693  2.4559
 5557TIP3   OH238085   2.788   0.401  15.231  0.1758  0.3226  0.4151
 5557TIP3    H138086   2.819   0.465  15.295 -1.1521  0.2009  1.2273
 5557TIP3    H238087   2.850   0.407  15.158  1.2564  1.0415  1.3659
 5558TIP3   OH238088   0.547   5.054  15.992 -0.3879 -0.3842  0.0962
 5558TIP3    H138089   0.468   5.067  16.045  0.0677  0.9460  0.4852
 5558TIP3    H238090   0.519   5.071  15.902 -0.8694 -1.3968  0.0367
 5559TIP3   OH238091   4.853   5.471   5.383 -0.0632  0.4730  0.6767
 5559TIP3    H138092   4.875   5.564   5.383  0.5600  0.3329  0.0477
 5559TIP3    H238093   4.832   5.452   5.475 -0.8278  1.3696  0.6997
 5560TIP3   OH238094   6.173   4.287   4.021  0.2458 -0.4264  0.0306
 5560TIP3    H138095   6.211   4.280   4.109  1.2138 -0.3815 -0.3647
 5560TIP3    H238096   6.112   4.360   4.027  0.3973 -0.3413  0.6392
 5561TIP3   OH238097   5.921   0.619  14.736 -0.2720  0.0124  0.7763
 5561TIP3    H138098   5.850   0.657  14.788 -2.1969 -0.5262 -1.3074
 5561TIP3    H238099   5.887   0.534  14.707  1.8285 -0.9220  0.9008
 5562TIP3   OH238100   2.464   6.606   2.991 -0.3379  0.0832  0.1888
 5562TIP3    H138101   2.454   6.519   3.031 -0.4221  0.0998  0.2042
 5562TIP3    H238102   2.555   6.609   2.962  0.2993  0.8335  2.1719
 5563TIP3   OH238103   6.572   3.364   3.810 -0.5261  0.0632  0.0432
 5563TIP3    H138104   6.594   3.453   3.782  1.2476 -0.1941  0.4819
 5563TIP3    H238105   6.524   3.327   3.736 -1.9103  1.5740  0.1153
 5564TIP3   OH238106   2.770   2.330   2.810 -0.0489  0.1042 -0.4416
 5564TIP3    H138107   2.814   2.394   2.866  0.2599  0.6228 -1.2669
 5564TIP3    H238108   2.756   2.254   2.867  1.5438  0.0792 -0.0449
 5565TIP3   OH238109   0.977   4.330  13.485 -0.5861  0.2447 -0.0113
 5565TIP3    H138110   1.030   4.350  13.563  0.0432 -1.3531  0.0016
 5565TIP3    H238111   0.913   4.266  13.516  0.2889 -1.1541 -0.9815
 5566TIP3   OH238112   6.548   0.093  15.166 -0.3137 -0.0434  0.0160
 5566TIP3    H138113   6.519   0.158  15.101 -0.9697 -0.7102 -0.3839
 5566TIP3    H238114   6.578   0.144  15.240  1.3731  0.7768 -1.1816
 5567TIP3   OH238115   5.131   5.709  17.131 -0.0764 -0.0566  0.0561
 5567TIP3    H138116   5.108   5.784  17.077 -0.5105 -0.5731 -0.4848
 5567TIP3    H238117   5.057   5.649  17.122  0.7471 -1.0313 -0.4065
 5568TIP3   OH238118   5.316   5.205  15.982  0.0320  0.5767 -0.2009
 5568TIP3    H138119   5.241   5.148  15.967  0.3618 -0.3156  1.3581
 5568TIP3    H238120   5.389   5.161  15.940 -0.2663  1.4134 -1.6612
 5569TIP3   OH238121   1.026   1.193  13.354 -0.7696 -0.1976 -0.5751
 5569TIP3    H138122   1.114   1.174  13.387 -0.1480  0.9956 -1.4592
 5569TIP3    H238123   0.989   1.252  13.420 -0.9915 -0.8205 -0.1244
 5570TIP3   OH238124   0.610   2.141   2.765  0.0440  0.0874  0.7473
 5570TIP3    H138125   0.536   2.192   2.732  0.3290 -0.0674 -0.1644
 5570TIP3    H238126   0.578   2.051   2.771 -0.0200  0.1225  0.9326
 5571TIP3   OH238127   2.971   4.654  14.858 -0.3872 -0.9892  0.5296
 5571TIP3    H138128   3.041   4.597  14.826 -1.3055 -0.6725 -2.3024
 5571TIP3    H238129   2.900   4.594  14.882 -1.2397 -1.1724 -2.1589
 5572TIP3   OH238130   5.169   2.048   0.787  0.1165  0.3785 -0.4464
 5572TIP3    H138131   5.158   2.098   0.707 -0.9145  0.6229 -0.1555
 5572TIP3    H238132   5.179   1.957   0.757 -0.9468  0.3722 -0.8275
 5573TIP3   OH238133   5.850   5.855  13.249 -0.2777 -0.4465 -0.8518
 5573TIP3    H138134   5.774   5.855  13.190  0.8262  1.1642 -2.4041
 5573TIP3    H238135   5.813   5.850  13.336 -2.2914  1.4155 -1.5041
 5574TIP3   OH238136   5.064   6.187   2.232 -0.7168  0.2613 -0.0974
 5574TIP3    H138137   5.099   6.217   2.148  0.4233 -1.2059 -0.1735
 5574TIP3    H238138   4.971   6.173   2.215 -0.1767 -1.8966 -1.7256
 5575TIP3   OH238139   2.686   1.879   4.217  0.3109 -0.2375  0.0247
 5575TIP3    H138140   2.701   1.804   4.159  2.0578  0.0804  0.0146
 5575TIP3    H238141   2.746   1.947   4.185  0.3175  0.4165  1.3467
 5576TIP3   OH238142   4.724   0.470   3.420  0.0088  0.3706 -0.2486
 5576TIP3    H138143   4.708   0.482   3.514  1.5919 -1.9170  0.3964
 5576TIP3    H238144   4.820   0.465   3.413 -0.1398 -1.0367 -1.7554
 5577TIP3   OH238145   0.946   2.844   1.366  0.5907 -0.1202 -0.8890
 5577TIP3    H138146   0.958   2.756   1.403 -0.4652 -0.1119 -0.4868
 5577TIP3    H238147   1.034   2.881   1.363  0.9923 -1.0198 -0.6268
 5578TIP3   OH238148   1.563   2.435   4.493  0.5690  0.1700 -0.0772
 5578TIP3    H138149   1.519   2.366   4.543  0.9893  0.3601  0.5701
 5578TIP3    H238150   1.592   2.497   4.559 -0.4159  1.3333 -0.7000
 5579TIP3   OH238151   3.865   6.535  16.999  0.5090 -0.0419 -0.1513
 5579TIP3    H138152   3.788   6.498  17.042 -0.9581  1.8348 -1.0090
 5579TIP3    H238153   3.844   6.532  16.905  1.4183  0.6371 -0.3947
 5580TIP3   OH238154   6.691   2.941  13.348 -0.0883 -0.3434  0.2149
 5580TIP3    H138155   6.703   2.855  13.388 -0.8468 -0.4906  0.1470
 5580TIP3    H238156   6.651   2.923  13.263  0.6002  0.0288 -0.2018
 5581TIP3   OH238157   2.817   0.902   2.426 -0.5555  0.1218 -0.3288
 5581TIP3    H138158   2.820   0.964   2.353 -1.7080  1.1019  0.4217
 5581TIP3    H238159   2.838   0.954   2.503  0.5962 -0.8941  0.0778
 5582TIP3   OH238160   6.017   2.599  12.876  0.3861 -0.1516  0.7147
 5582TIP3    H138161   5.955   2.538  12.914  1.3897 -1.0155  1.0219
 5582TIP3    H238162   6.083   2.612  12.944  0.9884  0.0787  0.0972
 5583TIP3   OH238163   3.647   5.189  15.827  0.3034  0.0615  0.0343
 5583TIP3    H138164   3.667   5.097  15.809 -2.6460 -0.5657 -0.6505
 5583TIP3    H238165   3.602   5.187  15.912  0.6788  0.9548  0.2622
 5584TIP3   OH238166   0.673   3.015  14.388  0.2249 -0.4089 -0.4836
 5584TIP3    H138167   0.621   3.092  14.363 -0.4001 -0.9487 -0.8683
 5584TIP3    H238168   0.637   2.988  14.473  0.7151 -0.0409 -0.1539
 5585TIP3   OH238169   6.105   6.194  16.916  0.0431 -0.1605  0.0863
 5585TIP3    H138170   6.165   6.147  16.859 -1.7490 -1.4778 -0.8454
 5585TIP3    H238171   6.148   6.277  16.934  2.7034 -1.5240  0.5704
 5586TIP3   OH238172   0.473   0.346   2.171 -0.1642  0.2692  0.1812
 5586TIP3    H138173   0.447   0.309   2.255  1.8998  0.6638  1.0322
 5586TIP3    H238174   0.495   0.270   2.117 -2.6114 -0.0672 -0.4900
 5587TIP3   OH238175   0.834   0.714   3.621 -0.5308  0.7453  0.2442
 5587TIP3    H138176   0.794   0.629   3.602  3.2859 -1.5663  1.5152
 5587TIP3    H238177   0.885   0.735   3.543  1.6314 -0.2243  1.3111
 5588TIP3   OH238178   0.942   4.045   3.857 -0.1262 -0.0773  0.5431
 5588TIP3    H138179   1.022   4.067   3.810  1.5093 -1.9749  2.2670
 5588TIP3    H238180   0.923   3.955   3.831 -1.7862  0.3447  0.1335
 5589TIP3   OH238181   5.420   0.643   4.858  0.0023 -0.3338 -0.1311
 5589TIP3    H138182   5.472   0.579   4.908  1.2257  1.3875  0.8920
 5589TIP3    H238183   5.354   0.590   4.814  2.2227 -2.5865 -0.9881
 5590TIP3   OH238184   1.176   4.343   2.891 -0.1735 -0.5160  0.1144
 5590TIP3    H138185   1.106   4.373   2.833  0.6431  1.8353  0.2178
 5590TIP3    H238186   1.176   4.406   2.963  0.4364 -1.9492  1.4242
 5591TIP3   OH238187   5.501   2.000   1.862  0.0270  0.1847  0.3489
 5591TIP3    H138188   5.432   1.951   1.817 -0.8780  2.2827 -0.6737
 5591TIP3    H238189   5.560   2.029   1.792 -0.1335  1.5489  0.7424
 5592TIP3   OH238190   2.934   3.842  13.483  0.3235  0.1574 -0.1190
 5592TIP3    H138191   2.892   3.923  13.513 -0.2363 -0.0331 -0.3577
 5592TIP3    H238192   3.009   3.871  13.432  1.6378  0.4803  1.9082
 5593TIP3   OH238193   5.797   2.376  13.332  0.1890  0.0405 -0.0093
 5593TIP3    H138194   5.840   2.382  13.247  0.0311 -0.6766 -0.1382
 5593TIP3    H238195   5.858   2.326  13.386 -0.6832 -1.4152 -0.3317
 5594TIP3   OH238196   5.835   2.418  16.064  0.2747 -0.0539 -0.0422
 5594TIP3    H138197   5.797   2.428  15.977  0.0664 -1.9895 -0.2095
 5594TIP3    H238198   5.903   2.351  16.053  0.5599  0.0045  1.1962
 5595TIP3   OH238199   4.030   2.529  13.542 -0.1686 -0.8753  0.2530
 5595TIP3    H138200   4.011   2.620  13.567 -0.3268 -1.4618  2.4573
 5595TIP3    H238201   3.952   2.501  13.495 -0.7484 -0.3065  0.8407
 5596TIP3   OH238202   5.412   0.136  16.407  0.2132  0.2564 -0.2064
 5596TIP3    H138203   5.439   0.215  16.454  1.4572 -0.6598  0.6969
 5596TIP3    H238204   5.338   0.102  16.457  0.6898  0.0008  0.3309
 5597TIP3   OH238205   1.686   5.725   1.043 -0.1038  0.4086 -0.1938
 5597TIP3    H138206   1.686   5.781   1.120 -1.1353  0.1567 -0.0002
 5597TIP3    H238207   1.621   5.764   0.985  0.9141  0.8053 -1.1078
 5598TIP3   OH238208   5.850   4.612  14.596  0.0472  0.2699  0.2332
 5598TIP3    H138209   5.935   4.576  14.621  0.2959  0.4453 -0.3353
 5598TIP3    H238210   5.867   4.658  14.514 -0.3177  1.4443  0.7865
 5599TIP3   OH238211   2.773   2.421  16.245 -0.0758 -0.8643 -0.1467
 5599TIP3    H138212   2.774   2.360  16.171 -1.2865 -1.3772  0.2311
 5599TIP3    H238213   2.748   2.368  16.320  1.0560 -0.3254  0.6282
 5600TIP3   OH238214   1.617   4.129  10.944 -0.4711  0.6492  0.6033
 5600TIP3    H138215   1.645   4.218  10.966 -2.1962  1.2725  0.3866
 5600TIP3    H238216   1.528   4.123  10.978 -0.0390 -1.3712  1.5323
 5601TIP3   OH238217   5.995   3.780   6.611  0.3946  0.2881 -0.4852
 5601TIP3    H138218   6.057   3.841   6.651  1.4821 -0.6716 -0.6367
 5601TIP3    H238219   5.942   3.834   6.553  1.1114  1.1352 -0.3697
 5602TIP3   OH238220   0.689   5.243  15.564 -0.1009  0.2512  0.6539
 5602TIP3    H138221   0.751   5.214  15.631 -1.5258  0.0879  1.9535
 5602TIP3    H238222   0.652   5.324  15.599 -1.7287 -0.4531  0.6739
 5603TIP3   OH238223   4.633   3.874  15.957 -0.1837  0.5252  0.2662
 5603TIP3    H138224   4.672   3.790  15.978  0.3025  1.0830  1.7300
 5603TIP3    H238225   4.676   3.901  15.876  0.3924 -0.1660  0.3333
 5604TIP3   OH238226   2.407   4.465   4.931  1.0163  0.3531  0.0507
 5604TIP3    H138227   2.479   4.449   4.992 -0.5714  0.6846  2.1565
 5604TIP3    H238228   2.358   4.538   4.970  1.2113  2.2363 -2.9214
 5605TIP3   OH238229   5.655   4.663  11.590 -0.1461 -0.4363  0.2351
 5605TIP3    H138230   5.661   4.716  11.511 -1.1481 -0.5065  0.0982
 5605TIP3    H238231   5.738   4.676  11.635  0.4792 -0.5004 -0.8947
 5606TIP3   OH238232   6.129   3.687  16.652 -0.4229  0.1286 -0.0648
 5606TIP3    H138233   6.106   3.778  16.638 -0.9317  0.0936  0.4894
 5606TIP3    H238234   6.133   3.678  16.747  1.8420  0.1158 -0.1145
 5607TIP3   OH238235   6.372   2.831   4.621 -0.0096  0.1324 -0.1206
 5607TIP3    H138236   6.357   2.806   4.529  0.6704  0.6158 -0.3685
 5607TIP3    H238237   6.388   2.748   4.665 -0.5587 -0.1269 -0.3932
 5608TIP3   OH238238   5.662   5.210  14.703  0.1698 -0.2302  0.2217
 5608TIP3    H138239   5.645   5.285  14.646  0.1358  0.1284  0.6930
 5608TIP3    H238240   5.662   5.247  14.791  2.7024 -0.3328  0.3144
 5609TIP3   OH238241   5.950   1.319   2.765 -0.5925  0.2343  0.2986
 5609TIP3    H138242   6.018   1.384   2.781 -0.7703  0.3936  0.4107
 5609TIP3    H238243   5.885   1.365   2.711  0.5934 -0.6418 -2.0057
 5610TIP3   OH238244   0.966   0.134  11.693  0.0807  0.1490  0.5095
 5610TIP3    H138245   0.964   0.161  11.785 -1.0470  1.1447  0.2164
 5610TIP3    H238246   0.888   0.079  11.683 -0.0545  0.4237  0.0439
 5611TIP3   OH238247   0.203   3.144   3.022  0.5072 -0.1382 -0.1240
 5611TIP3    H138248   0.123   3.091   3.011  1.5936 -1.9672  0.3838
 5611TIP3    H238249   0.176   3.215   3.080 -0.9229 -0.3241 -0.5024
 5612TIP3   OH238250   0.756   5.540  14.141  0.2922  0.6182 -0.2228
 5612TIP3    H138251   0.743   5.453  14.103  0.4371  0.7941 -0.6937
 5612TIP3    H238252   0.851   5.552  14.141  0.3779  0.1380  1.3411
 5613TIP3   OH238253   2.673   5.551  14.960  0.2489 -0.0542 -0.0431
 5613TIP3    H138254   2.694   5.644  14.952 -1.8741  0.5249  0.3710
 5613TIP3    H238255   2.750   5.512  15.002  0.6294  1.7807  1.0722
 5614TIP3   OH238256   0.181   1.957   0.831 -0.1162  0.0461  0.1355
 5614TIP3    H138257   0.167   1.994   0.744  0.7822  0.3249  0.1068
 5614TIP3    H238258   0.093   1.953   0.870 -0.7418 -1.3911 -1.2947
 5615TIP3   OH238259   4.895   0.598  13.070 -0.4736 -0.6274 -0.3314
 5615TIP3    H138260   4.829   0.664  13.048  0.4793 -0.8759 -5.0134
 5615TIP3    H238261   4.849   0.534  13.123 -2.6829  1.4560  0.4265
 5616TIP3   OH238262   4.713   3.219  12.158 -0.1732  0.3496 -0.2662
 5616TIP3    H138263   4.686   3.307  12.181 -1.6273 -0.1056 -0.1010
 5616TIP3    H238264   4.809   3.223  12.152 -0.2302  1.9455 -0.3915
 5617TIP3   OH238265   0.880   3.818   0.874 -0.2652  0.2412 -0.1359
 5617TIP3    H138266   0.834   3.748   0.921 -0.7663  0.2963 -0.5384
 5617TIP3    H238267   0.829   3.897   0.892 -1.4735 -0.0045 -2.1078
 5618TIP3   OH238268   2.426   4.972  15.500  0.4915  0.1304  0.5529
 5618TIP3    H138269   2.454   5.058  15.471 -0.2089  0.2478  0.2064
 5618TIP3    H238270   2.339   4.961  15.462  0.7077 -0.8613  0.3196
 5619TIP3   OH238271   3.928   2.803   1.533 -0.3946 -0.5516 -0.2419
 5619TIP3    H138272   3.998   2.866   1.516 -0.0607 -0.2264  2.0046
 5619TIP3    H238273   3.857   2.855   1.572 -0.8805 -1.2535 -0.1661
 5620TIP3   OH238274   4.524   5.247   5.303 -0.3580  0.0034 -0.2001
 5620TIP3    H138275   4.541   5.189   5.377  2.2192  1.3397  0.3864
 5620TIP3    H238276   4.550   5.196   5.226  0.4423 -0.1580  0.1708
 5621TIP3   OH238277   2.432   1.600   5.933  0.1274  0.3580  0.1460
 5621TIP3    H138278   2.393   1.589   6.020  0.8620  0.7800  0.5461
 5621TIP3    H238279   2.498   1.531   5.928  0.2775  0.5090  0.0355
 5622TIP3   OH238280   1.024   0.529  15.501 -0.6807 -0.5431  0.0531
 5622TIP3    H138281   0.982   0.517  15.415 -0.7657  0.4652 -0.0521
 5622TIP3    H238282   1.004   0.619  15.525  2.0676  0.2772 -0.3799
 5623TIP3   OH238283   4.019   0.901  14.461  0.1758 -0.1551  0.1091
 5623TIP3    H138284   3.955   0.970  14.480  0.8392  0.8972 -1.2528
 5623TIP3    H238285   4.055   0.877  14.546  0.8960  2.1747  0.5214
 5624TIP3   OH238286   3.281   3.915  17.213  0.1051  0.4589 -0.0734
 5624TIP3    H138287   3.248   3.993  17.168 -0.3013  0.9507  1.0297
 5624TIP3    H238288   3.237   3.842  17.168 -0.1236  0.9117 -0.6060
 5625TIP3   OH238289   0.940   4.982   1.854  0.2410 -0.2758  0.0751
 5625TIP3    H138290   0.926   5.024   1.769 -0.8932 -0.8837 -0.0541
 5625TIP3    H238291   0.908   5.046   1.918  1.0101  0.1443  0.0513
 5626TIP3   OH238292   6.240   4.069   0.399  0.4315  0.2442  0.1067
 5626TIP3    H138293   6.252   3.996   0.460 -2.3680 -1.0976 -0.7728
 5626TIP3    H238294   6.273   4.037   0.315 -0.4196  0.1121 -0.1900
 5627TIP3   OH238295   6.742   0.332  10.656 -0.9787  0.4462 -0.1009
 5627TIP3    H138296   6.800   0.262  10.628 -0.3216  0.1095  1.9594
 5627TIP3    H238297   6.763   0.405  10.599 -0.5534 -0.5334 -1.2370
 5628TIP3   OH238298   6.018   0.737  13.020  0.5114  0.5573  0.4469
 5628TIP3    H138299   5.968   0.657  13.034  0.6784  0.2804 -0.4742
 5628TIP3    H238300   6.057   0.727  12.933  0.7024  1.5509  0.3969
 5629TIP3   OH238301   0.165   4.631  15.914 -0.1788 -0.4663  0.1616
 5629TIP3    H138302   0.195   4.678  15.836 -1.5589  2.3211  1.1719
 5629TIP3    H238303   0.223   4.661  15.984  0.8083 -2.6466  0.3339
 5630TIP3   OH238304   5.230   5.921   1.394 -0.0675 -0.2304 -0.0607
 5630TIP3    H138305   5.194   5.833   1.401  2.0767 -1.2474 -0.8258
 5630TIP3    H238306   5.282   5.919   1.313 -0.8626  2.0909 -0.6864
 5631TIP3   OH238307   2.876   0.130  16.719 -0.3555 -0.2253 -0.1887
 5631TIP3    H138308   2.787   0.100  16.696 -1.0032  0.4141  1.3551
 5631TIP3    H238309   2.879   0.124  16.814  0.7995  1.0203 -0.1228
 5632TIP3   OH238310   0.971   5.084  13.019  0.1005  0.0669  0.6855
 5632TIP3    H138311   0.941   5.086  12.928 -2.5936  0.5120  1.4937
 5632TIP3    H238312   0.973   5.177  13.045 -4.0920 -0.1511  2.4416
 5633TIP3   OH238313   2.126   6.090  12.292  0.6391  0.1812 -0.0967
 5633TIP3    H138314   2.133   6.181  12.265 -1.8362  1.0856  1.9657
 5633TIP3    H238315   2.085   6.045  12.218  3.0867  0.3525 -1.6579
 5634TIP3   OH238316   5.532   2.057   4.952  0.6874 -0.2343  0.0707
 5634TIP3    H138317   5.596   2.067   4.882  1.4567  1.3136  0.9541
 5634TIP3    H238318   5.452   2.098   4.918  1.5480  2.0771  0.6799
 5635TIP3   OH238319   1.690   6.023   1.654 -0.0294 -0.1396 -0.6448
 5635TIP3    H138320   1.622   6.053   1.594 -1.5592 -0.9450  0.6159
 5635TIP3    H238321   1.693   6.090   1.722 -2.2361 -1.8522  1.2596
 5636TIP3   OH238322   4.696   3.979  12.651  0.5161 -0.0790  0.2228
 5636TIP3    H138323   4.636   4.004  12.581  0.0330 -0.4966  0.4733
 5636TIP3    H238324   4.683   4.045  12.719 -0.0488 -0.4525  0.4888
 5637TIP3   OH238325   6.365   2.648   0.332 -0.0280  0.2111  0.2233
 5637TIP3    H138326   6.342   2.714   0.267  1.0178 -1.3209 -1.7985
 5637TIP3    H238327   6.311   2.671   0.408 -1.6690  1.8043 -1.2965
 5638TIP3   OH238328   4.685   1.315   5.388 -0.3059  0.2844  0.2618
 5638TIP3    H138329   4.750   1.305   5.458 -0.0236  1.2255  0.1558
 5638TIP3    H238330   4.601   1.314   5.433 -0.1117  1.2049  0.6661
 5639TIP3   OH238331   0.460   3.593  14.907 -0.6532 -0.7257  0.3868
 5639TIP3    H138332   0.492   3.623  14.992 -0.8409 -1.0823  0.5838
 5639TIP3    H238333   0.501   3.652  14.844 -1.0806  0.0118  0.7784
 5640TIP3   OH238334   2.875   2.881   1.908  0.4965 -0.3366  0.1945
 5640TIP3    H138335   2.809   2.823   1.948 -1.5420  0.5108 -1.6939
 5640TIP3    H238336   2.913   2.929   1.982 -1.4803 -0.4237  1.3528
 5641TIP3   OH238337   1.970   3.503   2.202 -0.4189 -0.2186  0.0932
 5641TIP3    H138338   1.995   3.414   2.175 -1.4412 -1.5578  3.1359
 5641TIP3    H238339   2.023   3.520   2.280  0.6741  2.4608 -1.0810
 5642TIP3   OH238340   3.006   3.259   3.950 -0.5666 -0.2295  0.5492
 5642TIP3    H138341   3.051   3.273   3.867 -0.8368 -1.2408  0.2191
 5642TIP3    H238342   2.941   3.329   3.954 -1.4673 -0.9415 -0.7513
 5643TIP3   OH238343   4.840   1.251  14.929 -0.3258  0.0278  0.1161
 5643TIP3    H138344   4.779   1.178  14.933  2.7104 -2.6986  1.1915
 5643TIP3    H238345   4.820   1.303  15.007 -0.1022 -1.8730  1.4984
 5644TIP3   OH238346   0.183   1.445  10.985  0.5057 -0.0099 -0.3353
 5644TIP3    H138347   0.271   1.456  10.947  0.5736  0.3417 -0.0822
 5644TIP3    H238348   0.130   1.512  10.942 -0.1221 -1.4323 -1.9010
 5645TIP3   OH238349   3.163   3.180   5.398  0.1973 -0.0012  0.3862
 5645TIP3    H138350   3.135   3.163   5.308  0.5367 -1.2561  0.5043
 5645TIP3    H238351   3.148   3.098   5.444  1.8274  0.0209  1.0190
 5646TIP3   OH238352   1.769   5.832   5.592 -0.4452  0.0592  0.1760
 5646TIP3    H138353   1.838   5.859   5.531 -0.7365 -0.1722 -0.2629
 5646TIP3    H238354   1.739   5.748   5.558  0.7374 -1.0673  1.7572
 5647TIP3   OH238355   1.282   1.124  12.739  0.1667  0.1876  0.1535
 5647TIP3    H138356   1.195   1.121  12.780 -0.5347 -0.0453 -1.2851
 5647TIP3    H238357   1.319   1.207  12.769 -1.4951  1.4135 -0.9346
 5648TIP3   OH238358   1.207   3.766  11.210  0.2766 -0.2556 -0.1225
 5648TIP3    H138359   1.152   3.795  11.138 -0.9563 -0.2432  0.7889
 5648TIP3    H238360   1.162   3.688  11.244  0.2306  0.3683  1.3061
 5649TIP3   OH238361   4.939   5.102   0.335 -0.3472  0.2802 -0.0968
 5649TIP3    H138362   5.015   5.085   0.391 -0.6531 -0.0463  0.2269
 5649TIP3    H238363   4.946   5.195   0.313 -0.3586  0.4804  0.7097
 5650TIP3   OH238364   3.566   2.679  13.468 -0.2691  0.0361 -0.4704
 5650TIP3    H138365   3.471   2.665  13.465 -0.3664  0.6651 -0.4158
 5650TIP3    H238366   3.588   2.708  13.379 -0.1728  0.1846 -0.3968
 5651TIP3   OH238367   2.227   3.773   6.440 -0.4617  0.2033 -0.0065
 5651TIP3    H138368   2.170   3.844   6.470 -1.5190 -0.1538 -1.0818
 5651TIP3    H238369   2.210   3.768   6.346 -0.0314 -1.1493 -0.0202
 5652TIP3   OH238370   4.485   1.383   5.711  0.0174 -0.4387  0.5164
 5652TIP3    H138371   4.477   1.470   5.673 -1.5380 -0.8689 -0.2456
 5652TIP3    H238372   4.428   1.383   5.787 -0.1091 -0.8336  0.4277
 5653TIP3   OH238373   2.516   3.987  15.271 -0.3514 -0.2556 -0.3596
 5653TIP3    H138374   2.459   4.039  15.214 -1.9115 -1.0977  0.3735
 5653TIP3    H238375   2.472   3.989  15.356  0.7422 -0.9099  0.2377
 5654TIP3   OH238376   5.782   0.214  11.301 -0.4519  0.5328  0.3535
 5654TIP3    H138377   5.773   0.309  11.295 -0.6345  0.4683 -0.5502
 5654TIP3    H238378   5.860   0.195  11.249 -1.1719  0.0714 -0.5924
 5655TIP3   OH238379   2.193   3.879  12.608  0.2213 -0.0564 -0.3593
 5655TIP3    H138380   2.145   3.954  12.643  3.6239  1.1534  2.1850
 5655TIP3    H238381   2.237   3.914  12.530  3.4031  1.4491  1.8987
 5656TIP3   OH238382   2.310   0.863   3.633  0.9824 -0.8105  0.6217
 5656TIP3    H138383   2.275   0.926   3.697  0.6209 -0.7385  0.3581
 5656TIP3    H238384   2.250   0.788   3.638 -0.9474  0.3994 -1.7980
 5657TIP3   OH238385   1.644   1.941  16.789 -0.1627  0.2943  0.5259
 5657TIP3    H138386   1.619   1.899  16.872  1.3383  0.6684  1.1980
 5657TIP3    H238387   1.561   1.973  16.753 -0.7551  1.0045  2.3756
 5658TIP3   OH238388   2.360   5.112   1.006 -0.1542  0.3007 -0.0802
 5658TIP3    H138389   2.325   5.134   1.093 -0.0953  1.5391 -0.3470
 5658TIP3    H238390   2.360   5.196   0.959 -1.0976 -0.5214 -1.6125
 5659TIP3   OH238391   0.340   0.917   2.442 -0.0908 -0.3229  0.5385
 5659TIP3    H138392   0.382   0.984   2.389  0.5282 -1.1373 -0.0180
 5659TIP3    H238393   0.294   0.966   2.510 -1.2096  0.7584 -0.9393
 5660TIP3   OH238394   1.238   3.059  14.281 -0.2322 -0.0736  0.9287
 5660TIP3    H138395   1.254   3.148  14.312 -0.1839  0.7920 -1.3437
 5660TIP3    H238396   1.142   3.051  14.281 -0.2127 -0.6578  2.6691
 5661TIP3   OH238397   5.027   3.110   2.388  0.9550 -0.2046 -0.5616
 5661TIP3    H138398   5.066   3.154   2.312  0.6513  0.3131 -0.4248
 5661TIP3    H238399   5.049   3.166   2.462 -1.4678  1.0741 -0.6897
 5662TIP3   OH238400   0.175   5.604   6.332 -0.5891 -0.1820 -0.4024
 5662TIP3    H138401   0.187   5.510   6.319  0.1718 -0.0587 -0.5994
 5662TIP3    H238402   0.225   5.623   6.412 -0.2563  0.1591 -0.6900
 5663TIP3   OH238403   1.218   3.288   2.970 -0.0255 -0.4312  0.0669
 5663TIP3    H138404   1.171   3.241   2.901  0.5382  0.2519 -0.7910
 5663TIP3    H238405   1.155   3.352   3.003  0.4889  0.9478 -1.5481
 5664TIP3   OH238406   4.166   4.568  12.329 -0.3071  0.8361 -0.5514
 5664TIP3    H138407   4.173   4.540  12.238  2.3008  1.9367 -0.7758
 5664TIP3    H238408   4.214   4.502  12.379 -0.7191  0.8537 -0.1216
 5665TIP3   OH238409   1.769   1.406   0.875  0.6531 -0.1368  0.1140
 5665TIP3    H138410   1.801   1.355   0.949  0.7635  0.4303  0.4608
 5665TIP3    H238411   1.709   1.470   0.914 -0.8715 -1.1273 -0.5006
 5666TIP3   OH238412   3.786   2.944  14.435  0.2105  0.2159  0.4479
 5666TIP3    H138413   3.744   3.009  14.491  0.3821  0.5314  0.2110
 5666TIP3    H238414   3.716   2.912  14.378  0.2912  0.7432  0.0509
 5667TIP3   OH238415   5.640   0.668   6.182 -0.5863  0.4497 -0.8223
 5667TIP3    H138416   5.659   0.577   6.205  1.7354  0.9611 -0.4926
 5667TIP3    H238417   5.595   0.662   6.098 -1.2006 -1.0226 -0.4323
 5668TIP3   OH238418   3.210   5.963   0.021 -0.5788  0.2067  0.6780
 5668TIP3    H138419   3.145   5.902  -0.014 -1.6887  0.8496  1.5352
 5668TIP3    H238420   3.249   6.005  -0.055 -0.0459 -1.3066  0.0905
 5669TIP3   OH238421   6.751   4.043   3.773 -0.1712 -0.1289 -0.0095
 5669TIP3    H138422   6.715   4.083   3.694  1.3568 -0.1521 -0.7550
 5669TIP3    H238423   6.759   3.950   3.751  0.2804 -0.1316  0.1481
 5670TIP3   OH238424   1.169   0.031   4.086 -0.6417  0.7959  0.6251
 5670TIP3    H138425   1.091   0.001   4.133 -0.6632  1.1867  0.8397
 5670TIP3    H238426   1.242  -0.013   4.129 -0.7669  0.1378  0.1906
 5671TIP3   OH238427   1.990   0.918  16.720  0.3337 -0.4303 -0.0603
 5671TIP3    H138428   1.945   0.844  16.760  1.4668 -0.9006  0.3652
 5671TIP3    H238429   1.923   0.959  16.664 -0.1785 -2.0470 -0.6905
 5672TIP3   OH238430   4.565   6.245  13.009 -0.9156  0.3392  0.3289
 5672TIP3    H138431   4.629   6.308  13.044  0.3835  0.4654 -2.0169
 5672TIP3    H238432   4.602   6.159  13.031 -0.2791  0.4179 -0.3662
 5673TIP3   OH238433   5.100   2.474   5.798 -0.0814  0.9905  0.0739
 5673TIP3    H138434   5.015   2.515   5.786 -0.8320 -0.1810  1.1510
 5673TIP3    H238435   5.147   2.491   5.716 -2.0220  0.0795 -1.2970
 5674TIP3   OH238436   6.471   5.351   0.200 -0.6206 -0.6441 -0.3717
 5674TIP3    H138437   6.516   5.284   0.149 -2.8338 -1.6251 -1.1672
 5674TIP3    H238438   6.380   5.321   0.203 -0.9981  0.4852  2.3495
 5675TIP3   OH238439   6.435   1.851  15.402  0.7145 -0.1034  0.2383
 5675TIP3    H138440   6.403   1.921  15.346  2.6469  1.4834  1.0149
 5675TIP3    H238441   6.418   1.882  15.491 -0.5787 -1.7356  0.6088
 5676TIP3   OH238442   3.869   1.527  17.196  0.1467 -0.4247 -0.2565
 5676TIP3    H138443   3.824   1.477  17.128 -1.3635  0.4816  0.0320
 5676TIP3    H238444   3.919   1.593  17.147  1.4642 -1.6188 -0.5918
 5677TIP3   OH238445   6.460   0.057   3.817 -0.2093  0.4294  0.4665
 5677TIP3    H138446   6.462  -0.025   3.768 -1.2779  0.5933  0.1302
 5677TIP3    H238447   6.549   0.066   3.853 -0.1465 -0.9926  0.7172
 5678TIP3   OH238448   1.665   4.191   4.754 -0.2432 -0.4407  0.3671
 5678TIP3    H138449   1.588   4.173   4.808 -0.5588  0.7589  0.3629
 5678TIP3    H238450   1.647   4.277   4.716  0.0471 -1.1720 -1.5291
 5679TIP3   OH238451   1.948   1.650  16.519  0.4497 -0.3662 -0.3607
 5679TIP3    H138452   2.027   1.597  16.515 -0.2143 -1.3327 -1.1294
 5679TIP3    H238453   1.955   1.712  16.446 -0.2368 -1.5499 -1.4703
 5680TIP3   OH238454   3.584   6.755   5.622 -0.0261 -0.1055 -0.8153
 5680TIP3    H138455   3.594   6.751   5.717  0.2802  0.6091 -0.8112
 5680TIP3    H238456   3.655   6.702   5.587 -1.3944 -2.1667 -0.6219
 5681TIP3   OH238457   1.787   0.699   1.900  0.3570  0.2759 -0.1833
 5681TIP3    H138458   1.816   0.783   1.935 -0.2001  0.9287 -1.2355
 5681TIP3    H238459   1.696   0.714   1.875  0.3995 -0.5004 -0.8288
 5682TIP3   OH238460   5.326   5.992   2.389 -0.0711 -0.3394  0.4231
 5682TIP3    H138461   5.386   6.061   2.418  0.0614  0.0736 -0.7692
 5682TIP3    H238462   5.365   5.911   2.422  0.0266  0.1126  1.4388
 5683TIP3   OH238463   0.562   3.607  12.578 -0.1309  0.4613  0.0360
 5683TIP3    H138464   0.512   3.604  12.660  0.5032 -0.1239  0.4182
 5683TIP3    H238465   0.616   3.527  12.580  0.9035  1.1250 -0.2905
 5684TIP3   OH238466   1.497   0.167  14.096 -0.1420  0.3315 -0.5105
 5684TIP3    H138467   1.579   0.139  14.136  1.8358  1.2526 -3.6245
 5684TIP3    H238468   1.440   0.090  14.102  2.0651 -1.4464 -1.0127
 5685TIP3   OH238469   5.328   0.643  15.268  0.3019  0.7654 -0.0912
 5685TIP3    H138470   5.250   0.686  15.233 -0.0510  0.1531 -0.0793
 5685TIP3    H238471   5.333   0.670  15.359 -0.0947  0.5314 -0.0016
 5686TIP3   OH238472   5.542   2.100  17.250  0.1426 -0.2188 -0.3279
 5686TIP3    H138473   5.564   2.153  17.173  2.6048 -2.7086 -1.5381
 5686TIP3    H238474   5.606   2.127  17.316 -1.0836  0.9382  0.4328
 5687TIP3   OH238475   4.309   5.893   5.005 -0.2293 -0.1286  0.5198
 5687TIP3    H138476   4.279   5.855   4.922  0.4462 -0.3773  0.3835
 5687TIP3    H238477   4.371   5.829   5.039 -1.2789 -0.5505  1.7473
 5688TIP3   OH238478   3.289   5.068  14.358  0.1447  0.1643  0.0918
 5688TIP3    H138479   3.256   4.994  14.307  2.5771  0.1931 -1.6988
 5688TIP3    H238480   3.344   5.028  14.425  0.1442  0.2714  0.1556
 5689TIP3   OH238481   3.179   6.339  13.206  0.1670  0.7576 -0.1537
 5689TIP3    H138482   3.243   6.267  13.201 -0.2624  0.3968 -0.5128
 5689TIP3    H238483   3.149   6.338  13.297 -0.6472 -0.2368 -0.4106
 5690TIP3   OH238484   6.683   2.996  15.244  0.0338  0.0312 -0.3583
 5690TIP3    H138485   6.750   3.012  15.310 -0.3098  0.2057 -0.0485
 5690TIP3    H238486   6.613   2.950  15.292 -0.5402  0.8149 -0.4293
 5691TIP3   OH238487   4.340   5.445   4.053  0.0334  0.1593  0.3292
 5691TIP3    H138488   4.432   5.426   4.036  0.1248  0.0613  0.9327
 5691TIP3    H238489   4.312   5.497   3.977  0.8027  0.9051  0.5474
 5692TIP3   OH238490   3.451   0.273  11.608 -0.0467 -0.0937 -0.2758
 5692TIP3    H138491   3.408   0.194  11.574 -1.2045 -0.5713  2.0576
 5692TIP3    H238492   3.381   0.339  11.610 -0.0634 -0.1278  1.1939
 5693TIP3   OH238493   1.534   5.712   3.962 -0.3881  0.6386  0.1476
 5693TIP3    H138494   1.533   5.659   3.883 -0.4221  1.3670 -0.3472
 5693TIP3    H238495   1.450   5.757   3.962  0.4224  2.2338 -0.5146
 5694TIP3   OH238496   4.606   5.306  15.660 -0.6113 -0.3542 -0.7044
 5694TIP3    H138497   4.648   5.389  15.682  1.1198 -0.7241 -2.3666
 5694TIP3    H238498   4.520   5.331  15.624 -0.3925  0.6660 -0.5471
 5695TIP3   OH238499   5.537   2.688  14.751 -0.2936 -0.6093 -0.4075
 5695TIP3    H138500   5.622   2.693  14.795 -0.4885 -2.8892  0.3880
 5695TIP3    H238501   5.506   2.779  14.748  0.7329 -0.0765  2.2357
 5696TIP3   OH238502   6.188   4.772   4.750 -0.0543 -0.4363  0.2162
 5696TIP3    H138503   6.211   4.863   4.732 -0.8230 -0.0038  1.3000
 5696TIP3    H238504   6.269   4.723   4.737 -0.1591 -0.0086 -2.8579
 5697TIP3   OH238505   1.236   4.239  11.948  0.0052 -0.3376  0.0401
 5697TIP3    H138506   1.212   4.273  11.862 -0.9130 -1.3462 -0.1188
 5697TIP3    H238507   1.209   4.308  12.009 -1.3652 -0.5392 -0.3092
 5698TIP3   OH238508   5.228   4.874   2.501  0.4128  0.0562 -0.0239
 5698TIP3    H138509   5.184   4.823   2.568 -1.8021  1.1019 -0.6009
 5698TIP3    H238510   5.234   4.815   2.425  0.4954 -0.2574  0.2248
 5699TIP3   OH238511   5.039   1.693  13.663  0.1751  0.2062  0.3509
 5699TIP3    H138512   5.071   1.760  13.602 -1.0522 -0.1478 -0.7168
 5699TIP3    H238513   4.955   1.727  13.695 -0.4102 -0.7509 -0.1139
 5700TIP3   OH238514   0.334   2.072  10.782 -0.6332 -0.2958  0.1047
 5700TIP3    H138515   0.419   2.061  10.825  0.4211 -0.2351 -1.8447
 5700TIP3    H238516   0.283   2.124  10.843  0.5722 -0.7388  1.5377
 5701TIP3   OH238517   4.156   2.199  13.382  0.2389 -0.1879 -0.1924
 5701TIP3    H138518   4.202   2.267  13.433  2.0985 -0.8804 -0.8607
 5701TIP3    H238519   4.130   2.134  13.447 -1.8396  1.2292  0.5074
 5702TIP3   OH238520   3.752   6.307   2.186  0.5494 -0.0452 -0.0299
 5702TIP3    H138521   3.782   6.339   2.101  0.5101 -2.2778 -0.9523
 5702TIP3    H238522   3.657   6.294   2.174 -0.0270  2.3991  1.3349
 5703TIP3   OH238523   5.427   3.065  11.596 -0.2564  0.3670  0.0025
 5703TIP3    H138524   5.440   3.134  11.531 -0.0859  0.1351 -0.2097
 5703TIP3    H238525   5.332   3.059  11.606 -0.2972  0.1578 -0.4880
 5704TIP3   OH238526   0.099   6.617  16.418 -0.0545  0.1315  0.0308
 5704TIP3    H138527   0.090   6.645  16.327  1.6102 -1.6491 -0.7419
 5704TIP3    H238528   0.136   6.529  16.413  1.3089  0.4667  2.4470
 5705TIP3   OH238529   1.092   6.216  15.499  0.4845 -1.1550 -0.5010
 5705TIP3    H138530   1.144   6.296  15.504 -0.6748 -0.4374  0.7975
 5705TIP3    H238531   1.148   6.154  15.452  1.1879  0.5756 -2.0827
 5706TIP3   OH238532   4.537   5.578  13.853 -0.1536 -0.2437  0.6741
 5706TIP3    H138533   4.474   5.522  13.898 -1.5859  0.6530 -0.1356
 5706TIP3    H238534   4.560   5.529  13.774  0.0574 -0.5089  0.8984
 5707TIP3   OH238535   4.643   0.643   0.254 -0.0658  0.4203 -0.6575
 5707TIP3    H138536   4.605   0.660   0.167  0.1917 -0.2796 -0.9177
 5707TIP3    H238537   4.727   0.688   0.252  1.5201 -2.2936 -2.0736
 5708TIP3   OH238538   5.899   5.599  16.022  0.1773  0.0106 -0.0157
 5708TIP3    H138539   5.954   5.658  15.971 -0.2853 -0.3777 -0.9903
 5708TIP3    H238540   5.880   5.526  15.963 -1.6272  0.2724  0.1803
 5709TIP3   OH238541   4.068   6.575  12.047 -0.0950  0.8513 -0.2767
 5709TIP3    H138542   3.993   6.559  11.990 -0.0887  0.3929 -0.1647
 5709TIP3    H238543   4.035   6.561  12.135  0.5158 -1.1571 -0.2983
 5710TIP3   OH238544   6.020   3.598   0.932  0.2179 -0.0703 -0.2211
 5710TIP3    H138545   5.927   3.577   0.926  0.1682  0.5000 -1.6039
 5710TIP3    H238546   6.030   3.636   1.020 -0.5243 -1.6262  0.5812
 5711TIP3   OH238547   0.436   1.771   0.649 -0.5970 -0.1016 -0.1063
 5711TIP3    H138548   0.463   1.860   0.625  1.3466 -0.6030  0.0373
 5711TIP3    H238549   0.341   1.775   0.654 -0.5689  1.8852 -0.4493
 5712TIP3   OH238550   5.278   3.840  16.295  0.7329 -0.1061  0.0699
 5712TIP3    H138551   5.233   3.805  16.372 -0.6012  0.0936 -0.5877
 5712TIP3    H238552   5.252   3.932  16.292  2.3929  0.4114  0.5000
 5713TIP3   OH238553   3.942   3.751  13.536  0.5069  0.1723  0.1627
 5713TIP3    H138554   3.966   3.794  13.454  1.7608  0.6261  0.7238
 5713TIP3    H238555   3.881   3.682  13.511  2.0251 -0.7107 -1.3608
 5714TIP3   OH238556   4.619   1.679  14.275 -0.0823  0.4683 -0.1973
 5714TIP3    H138557   4.625   1.707  14.366 -1.0084 -0.5868  0.2168
 5714TIP3    H238558   4.634   1.584  14.278  1.1832  0.6044 -1.3195
 5715TIP3   OH238559   4.579   2.634  11.944  0.0152  0.1785 -0.2735
 5715TIP3    H138560   4.577   2.576  12.020  0.2482  0.9290  0.3176
 5715TIP3    H238561   4.672   2.646  11.926 -0.0325  0.3561 -0.3990
 5716TIP3   OH238562   5.656   2.984  16.907 -0.0361 -0.2085  0.1753
 5716TIP3    H138563   5.677   2.963  16.998  0.8108 -1.4596 -0.2844
 5716TIP3    H238564   5.741   2.988  16.863 -0.4787 -0.3610 -0.7159
 5717TIP3   OH238565   0.700   6.645  13.626 -0.6240  0.2295  0.0702
 5717TIP3    H138566   0.734   6.555  13.623  0.0455  0.4767 -0.0356
 5717TIP3    H238567   0.605   6.635  13.628 -0.5514 -0.4889  0.3089
 5718TIP3   OH238568   5.890   4.570   1.199  0.0635 -0.7021 -0.6741
 5718TIP3    H138569   5.916   4.505   1.264  1.4188  1.3990  1.0066
 5718TIP3    H238570   5.969   4.623   1.185 -1.6910  2.4045  0.2806
 5719TIP3   OH238571   3.011   6.575   5.548  0.3086 -0.1716 -0.7162
 5719TIP3    H138572   3.060   6.649   5.584  0.1077 -0.1691 -0.4502
 5719TIP3    H238573   3.042   6.499   5.597 -0.1032 -0.1405 -0.4048
 5720TIP3   OH238574   1.355   5.453  13.097  0.1019  0.4516 -0.0941
 5720TIP3    H138575   1.424   5.402  13.140 -0.1015  0.7412  0.5842
 5720TIP3    H238576   1.345   5.411  13.011  0.8993  0.2139 -0.0799
 5721TIP3   OH238577   4.839   6.214  11.838  0.1613  0.4683  0.1628
 5721TIP3    H138578   4.918   6.213  11.784 -0.0597 -1.3901 -0.1591
 5721TIP3    H238579   4.826   6.124  11.865 -1.0019  0.9968  1.4924
 5722TIP3   OH238580   2.477   4.583   0.213 -0.8192 -0.4361  0.3279
 5722TIP3    H138581   2.410   4.537   0.162 -1.9878  1.1920  0.3054
 5722TIP3    H238582   2.430   4.657   0.253  1.2987  2.0106 -1.3224
 5723TIP3   OH238583   0.637   2.867  12.435  0.2541  0.1337  0.4682
 5723TIP3    H138584   0.623   2.924  12.360  1.2907  0.2643  0.3558
 5723TIP3    H238585   0.675   2.925  12.501  0.0681 -0.1488  0.8246
 5724TIP3   OH238586   2.164   1.005  15.904  0.6198  0.2984  0.3467
 5724TIP3    H138587   2.221   1.003  15.980  0.3796 -3.1259  0.5560
 5724TIP3    H238588   2.075   1.008  15.941  0.5410  1.3662  0.1041
 5725TIP3   OH238589   0.093   0.424  12.178 -0.1827 -1.3209  0.0630
 5725TIP3    H138590   0.072   0.411  12.271  0.7174  0.4145  0.5655
 5725TIP3    H238591   0.184   0.394  12.170 -0.4375 -1.9741 -0.3881
 5726TIP3   OH238592   1.490   6.394  14.648 -0.0911  0.4173 -0.0474
 5726TIP3    H138593   1.449   6.445  14.578 -0.8906 -1.0677 -0.7072
 5726TIP3    H238594   1.419   6.376  14.710 -0.3934 -1.6896 -0.9116
 5727TIP3   OH238595   6.543   0.639   3.287 -0.2892  0.0355  0.9190
 5727TIP3    H138596   6.587   0.642   3.202 -0.9016 -2.0900  0.4423
 5727TIP3    H238597   6.537   0.545   3.306 -0.6150  0.4609  3.0880
 5728TIP3   OH238598   3.974   5.260   1.368  0.0555  0.1036 -0.0832
 5728TIP3    H138599   3.950   5.250   1.461 -0.7553  0.1048 -0.2811
 5728TIP3    H238600   4.017   5.178   1.346  2.2018  0.9081  0.8394
 5729TIP3   OH238601   5.113   1.814  14.518  0.4124  0.4232 -0.6686
 5729TIP3    H138602   5.079   1.902  14.506  1.2654  0.7151 -1.0238
 5729TIP3    H238603   5.068   1.761  14.452 -1.8154  0.0808  1.0037
 5730TIP3   OH238604   1.180   5.205  16.879 -0.2271  0.2200  0.0075
 5730TIP3    H138605   1.167   5.118  16.840  1.0252  1.0928 -2.5989
 5730TIP3    H238606   1.250   5.192  16.943  0.2819 -0.6303 -0.6917
 5731TIP3   OH238607   5.804   2.386  11.607  0.2836  0.7908  0.3861
 5731TIP3    H138608   5.715   2.372  11.639 -0.3579  3.1318 -0.1355
 5731TIP3    H238609   5.800   2.471  11.563  2.1977 -0.1834 -1.8748
 5732TIP3   OH238610   2.128   2.922   4.891 -0.5449 -0.0562 -0.6088
 5732TIP3    H138611   2.040   2.914   4.927 -0.7967  0.4499 -1.0915
 5732TIP3    H238612   2.145   3.017   4.890  0.3942 -0.2021  0.4002
 5733TIP3   OH238613   5.840   0.084   1.453  0.0443 -0.1438  0.2233
 5733TIP3    H138614   5.895   0.147   1.499  1.6192 -1.3440  0.0858
 5733TIP3    H238615   5.766   0.069   1.511 -0.1300  1.4548  0.4571
 5734TIP3   OH238616   3.589   5.787   0.013 -0.2447  0.1701  0.0103
 5734TIP3    H138617   3.681   5.785   0.037 -0.1167  0.9038 -0.3799
 5734TIP3    H238618   3.585   5.745  -0.073 -0.5774 -1.6651  0.8765
 5735TIP3   OH238619   5.723   4.861  13.784 -0.4483  0.0100 -0.0961
 5735TIP3    H138620   5.712   4.766  13.790 -0.3288 -0.0345 -0.5344
 5735TIP3    H238621   5.708   4.880  13.692 -0.6745  0.4459  0.0310
 5736TIP3   OH238622   3.984   0.619   4.898 -0.2527 -0.0882  0.2112
 5736TIP3    H138623   3.992   0.562   4.974 -1.5817 -1.8220 -0.8684
 5736TIP3    H238624   3.900   0.663   4.909 -0.5515 -0.5124 -0.3467
 5737TIP3   OH238625   1.548   5.912  14.764 -0.4241 -0.1037  0.1654
 5737TIP3    H138626   1.464   5.897  14.719 -0.6040 -1.4666  0.9237
 5737TIP3    H238627   1.546   5.853  14.839  1.1720 -0.0609  0.2645
 5738TIP3   OH238628   1.301   0.913  15.385 -0.3730 -0.1087  0.3776
 5738TIP3    H138629   1.208   0.888  15.390 -0.4103 -0.0062  0.1854
 5738TIP3    H238630   1.308   0.965  15.305  0.0744 -1.0427 -0.2045
 5739TIP3   OH238631   2.963   0.642   0.061  0.4592  0.1956 -0.1105
 5739TIP3    H138632   2.895   0.698   0.098  0.9640  1.0017 -0.3827
 5739TIP3    H238633   2.923   0.607  -0.019  1.0509  2.3262 -1.4137
 5740TIP3   OH238634   1.047   1.897  16.882  0.0494 -0.1449 -0.1296
 5740TIP3    H138635   0.970   1.848  16.854  0.2869 -0.3355 -0.4614
 5740TIP3    H238636   1.048   1.974  16.824  0.1838 -0.2136 -0.2203
 5741TIP3   OH238637   5.793   5.816   3.904 -0.3318 -0.0173  0.2477
 5741TIP3    H138638   5.802   5.856   3.990 -0.7514  0.2027  0.1950
 5741TIP3    H238639   5.882   5.790   3.880  0.2372  2.2207 -0.3519
 5742TIP3   OH238640   3.892   2.317   1.279 -0.1481  0.1781  0.1783
 5742TIP3    H138641   3.904   2.328   1.373  0.4286 -2.5098  0.5020
 5742TIP3    H238642   3.804   2.278   1.270 -0.0511  0.0642 -0.3418
 5743TIP3   OH238643   2.508   5.451  15.168 -0.4149 -0.1686 -0.2129
 5743TIP3    H138644   2.445   5.463  15.097  0.0302  0.2727 -0.5349
 5743TIP3    H238645   2.592   5.479  15.131  0.8840 -4.6491 -1.2313
 5744TIP3   OH238646   2.296   6.421   0.066 -0.2059 -0.0333 -0.2191
 5744TIP3    H138647   2.317   6.460  -0.019  0.6064 -0.3445 -0.1737
 5744TIP3    H238648   2.341   6.477   0.130  1.3025 -1.2135 -0.1781
 5745TIP3   OH238649   1.083   6.367  15.185 -0.4538  0.1844  0.1260
 5745TIP3    H138650   1.086   6.430  15.257 -0.7880 -1.2466  1.4419
 5745TIP3    H238651   1.175   6.345  15.169 -0.3282  1.0659 -0.4200
 5746TIP3   OH238652   2.746   2.159   6.016 -0.0765  0.3020  0.1676
 5746TIP3    H138653   2.666   2.137   5.969 -0.2495  1.5279 -0.1252
 5746TIP3    H238654   2.809   2.092   5.988 -0.7993 -0.2723 -0.1149
 5747TIP3   OH238655   3.507   4.680  12.963  0.3264  0.7006 -0.0184
 5747TIP3    H138656   3.467   4.600  12.930 -1.4386  2.1081 -1.4398
 5747TIP3    H238657   3.551   4.719  12.888  1.1663  1.1112  0.6564
 5748TIP3   OH238658   6.577   5.435   4.097  0.3044  0.5685  0.0146
 5748TIP3    H138659   6.522   5.358   4.081  0.5598  0.5421 -0.8172
 5748TIP3    H238660   6.514   5.505   4.117 -0.4080  1.3539 -4.0607
 5749TIP3   OH238661   0.815   0.206   2.212 -0.1988 -0.1364 -0.2099
 5749TIP3    H138662   0.730   0.170   2.188 -0.0037 -2.2100  1.8751
 5749TIP3    H238663   0.871   0.186   2.137 -1.1823 -0.0583 -0.9885
 5750TIP3   OH238664   0.612   4.409   6.190 -0.4067  0.3517 -0.4152
 5750TIP3    H138665   0.700   4.394   6.156 -0.2600  0.0862  0.0705
 5750TIP3    H238666   0.626   4.452   6.274 -0.7918  2.5783 -1.4081
 5751TIP3   OH238667   2.109   6.158   4.649  0.2147 -0.7097 -0.3513
 5751TIP3    H138668   2.187   6.192   4.692 -1.7522  4.3405 -0.0961
 5751TIP3    H238669   2.068   6.103   4.715  1.8572 -0.7212  0.7218
 5752TIP3   OH238670   5.082   0.769  15.224 -0.0800  0.6151 -0.4523
 5752TIP3    H138671   5.011   0.710  15.197  0.6142 -0.1145 -0.7280
 5752TIP3    H238672   5.039   0.835  15.279 -1.0233  0.3866 -0.8925
 5753TIP3   OH238673   4.453   4.032   3.936  0.0281 -0.1148  0.1865
 5753TIP3    H138674   4.451   4.019   3.842  2.8512  0.0277  0.0294
 5753TIP3    H238675   4.436   3.946   3.973  0.0517 -0.4067 -0.4717
 5754TIP3   OH238676   5.999   5.065   3.519 -0.1059  0.2991  0.5299
 5754TIP3    H138677   6.090   5.085   3.498 -0.4509  0.6557 -0.6725
 5754TIP3    H238678   5.950   5.088   3.440 -1.3506  0.9340  1.4515
 5755TIP3   OH238679   6.745   3.057  12.471  0.3007  0.2848 -0.0989
 5755TIP3    H138680   6.694   3.104  12.405  0.1269  0.1154 -0.0839
 5755TIP3    H238681   6.707   2.969  12.473  1.4756 -0.2801 -1.0807
 5756TIP3   OH238682   4.228   3.521  12.332  0.0398  0.3699  0.1406
 5756TIP3    H138683   4.241   3.569  12.250 -0.2318  0.9228  0.4149
 5756TIP3    H238684   4.284   3.444  12.324  0.6538  0.8390 -0.2287
 5757TIP3   OH238685   5.844   4.907  14.028  0.1538 -0.2654  0.1638
 5757TIP3    H138686   5.785   4.882  13.958  1.3678 -1.7648 -0.3650
 5757TIP3    H238687   5.851   5.002  14.020 -1.5693 -0.1286 -0.2064
 5758TIP3   OH238688   5.742   1.247   3.779  0.0528  0.1196  0.2907
 5758TIP3    H138689   5.794   1.170   3.759 -0.3521 -0.4171  1.2338
 5758TIP3    H238690   5.652   1.223   3.756  0.0439  0.6209 -0.2234
 5759TIP3   OH238691   0.552   5.805   5.194  0.5154 -0.9703 -0.0297
 5759TIP3    H138692   0.604   5.839   5.267  1.6752 -2.1741 -0.2690
 5759TIP3    H238693   0.467   5.849   5.203  2.1441  2.7368 -0.8647
 5760TIP3   OH238694   4.810   3.269  14.196  0.2241  0.0838  0.2339
 5760TIP3    H138695   4.743   3.205  14.174  0.5659 -0.0481 -0.4577
 5760TIP3    H238696   4.851   3.290  14.112  0.4476  0.8338  0.5208
 5761TIP3   OH238697   4.893   4.403   4.992  0.0785  0.1659 -0.1830
 5761TIP3    H138698   4.930   4.349   5.062  0.9391 -1.5211 -1.8485
 5761TIP3    H238699   4.965   4.461   4.966 -0.6090  1.6533  1.0816
 5762TIP3   OH238700   3.812   6.587  12.832 -0.4279 -0.1603 -0.1881
 5762TIP3    H138701   3.764   6.563  12.753 -1.4621  0.2512  0.3006
 5762TIP3    H238702   3.754   6.564  12.904 -0.4891  1.6123  0.3744
 5763TIP3   OH238703   5.159   0.013  15.742  0.4076  0.2681  0.3441
 5763TIP3    H138704   5.151   0.107  15.759 -1.6214  0.2606 -0.2172
 5763TIP3    H238705   5.168  -0.027  15.829  2.4046  1.0151  0.5280
 5764TIP3   OH238706   4.836   3.298   0.830  0.3541 -0.2564  0.1578
 5764TIP3    H138707   4.770   3.252   0.777  0.6179 -0.6390  0.1559
 5764TIP3    H238708   4.808   3.282   0.920  0.6014 -0.6617  0.1649
 5765TIP3   OH238709   3.156   2.970  16.842  0.1225  0.1898 -0.1597
 5765TIP3    H138710   3.173   2.923  16.761  0.4203 -1.7275  0.9396
 5765TIP3    H238711   3.220   2.935  16.904 -0.5536  1.0726  1.0941
 5766TIP3   OH238712   4.780   2.484  14.937 -0.7659  0.8310 -0.1666
 5766TIP3    H138713   4.782   2.438  14.853 -2.2242 -0.3021  0.3598
 5766TIP3    H238714   4.689   2.477  14.965  0.1399 -1.0192  2.6716
 5767TIP3   OH238715   5.565   3.921   3.163 -0.1897  0.2523 -0.4248
 5767TIP3    H138716   5.646   3.960   3.129 -0.2734  0.0741 -0.8369
 5767TIP3    H238717   5.506   3.921   3.089 -1.2699  2.1905  0.3533
 5768TIP3   OH238718   0.989   2.951   5.863 -0.4139  0.1671  0.7540
 5768TIP3    H138719   0.917   2.993   5.911 -0.6798  1.0093 -0.3280
 5768TIP3    H238720   1.024   3.021   5.807  1.2010 -0.2562  1.1933
 5769TIP3   OH238721   6.219   3.057  12.977  0.6190  0.7075  0.4004
 5769TIP3    H138722   6.231   3.143  13.018  1.4700  1.4221 -1.2687
 5769TIP3    H238723   6.287   3.002  13.017 -0.8999  0.2976  2.6292
 5770TIP3   OH238724   0.137   2.090  16.855  0.1682  0.3183 -0.6902
 5770TIP3    H138725   0.153   2.002  16.891 -1.3891  0.4165  0.3204
 5770TIP3    H238726   0.097   2.073  16.769  0.5881  0.0679 -0.8453
 5771TIP3   OH238727   3.490   5.710   5.193 -0.3481  0.3563  0.4395
 5771TIP3    H138728   3.472   5.739   5.104 -0.2639  1.5692  0.7985
 5771TIP3    H238729   3.525   5.622   5.183 -1.1026  0.1570 -0.6682
 5772TIP3   OH238730   3.448   4.062  15.707  0.2554 -0.0476 -0.2806
 5772TIP3    H138731   3.464   4.053  15.613 -1.8032 -0.5499 -0.6208
 5772TIP3    H238732   3.410   4.150  15.716  0.3360 -0.0499  0.0746
 5773TIP3   OH238733   6.481   0.113  11.958 -0.0234  0.3378  0.0171
 5773TIP3    H138734   6.471   0.177  11.887  1.4013  0.8924  0.2744
 5773TIP3    H238735   6.558   0.144  12.007  1.3865 -2.1456 -0.4648
 5774TIP3   OH238736   0.156   1.507   5.544  0.0503 -0.0869  0.0845
 5774TIP3    H138737   0.176   1.505   5.450 -1.1093  0.3470 -0.1872
 5774TIP3    H238738   0.212   1.439   5.581  0.1225 -0.6518 -1.0048
 5775TIP3   OH238739   5.594   6.418   3.414 -0.3274 -0.0531 -0.5383
 5775TIP3    H138740   5.565   6.477   3.345  2.9466  0.3928 -1.7223
 5775TIP3    H238741   5.588   6.470   3.494  0.2946  1.1191 -1.2200
 5776TIP3   OH238742   4.320   3.110  11.668 -0.7409  0.6112  0.2309
 5776TIP3    H138743   4.336   3.176  11.602 -1.0783  0.5821  0.1179
 5776TIP3    H238744   4.397   3.054  11.666 -1.5900 -0.5716 -1.5388
 5777TIP3   OH238745   2.013   6.174   2.714 -0.0739 -0.0377 -0.4501
 5777TIP3    H138746   1.987   6.163   2.806  0.3035  2.5251  0.0407
 5777TIP3    H238747   2.094   6.123   2.706 -0.5411 -0.9472  0.4129
 5778TIP3   OH238748   4.736   5.582   3.401  0.1987  0.8073  0.8286
 5778TIP3    H138749   4.735   5.637   3.480 -2.2553  0.6190  1.0125
 5778TIP3    H238750   4.762   5.642   3.331 -0.7075  1.7978  1.3107
 5779TIP3   OH238751   1.219   0.506   1.341 -0.0965 -0.1012  0.2043
 5779TIP3    H138752   1.189   0.421   1.374  1.0557 -0.8098 -0.5131
 5779TIP3    H238753   1.138   0.555   1.323 -0.7846 -1.1825  0.2591
 5780TIP3   OH238754   2.103   6.405  14.035 -0.5129 -0.3203  0.5046
 5780TIP3    H138755   2.193   6.407  14.066 -0.8558 -0.6455  1.5815
 5780TIP3    H238756   2.067   6.323  14.068 -1.2210 -0.1620  0.1608
 5781TIP3   OH238757   5.740   3.397   0.725 -0.2850 -0.1209  0.1769
 5781TIP3    H138758   5.759   3.392   0.819 -2.9975 -0.8592  0.7934
 5781TIP3    H238759   5.648   3.424   0.721 -0.5747 -1.2167 -2.2295
 5782TIP3   OH238760   4.169   5.058  14.384  0.3183  0.3651  0.0270
 5782TIP3    H138761   4.137   5.069  14.474 -2.2556  0.3698 -0.7818
 5782TIP3    H238762   4.195   4.967  14.379 -0.4681  0.0961  0.5494
 5783TIP3   OH238763   6.143   4.001   6.672 -0.6667  0.3913  0.6253
 5783TIP3    H138764   6.150   4.093   6.644 -0.8021  0.2046 -0.0581
 5783TIP3    H238765   6.224   3.985   6.721 -0.5067  0.7964  0.5030
 5784TIP3   OH238766   6.375   1.575   3.120  0.0501  0.1853  0.3112
 5784TIP3    H138767   6.311   1.575   3.191 -1.3565  0.3339 -0.9344
 5784TIP3    H238768   6.352   1.650   3.066  3.2933  2.3037  1.5268
 5785TIP3   OH238769   5.260   5.299  16.964  0.2710 -0.3070 -0.2950
 5785TIP3    H138770   5.167   5.310  16.983  0.3854 -0.3864  0.3503
 5785TIP3    H238771   5.281   5.370  16.903  0.6920  2.4134  2.6883
 5786TIP3   OH238772   5.393   0.695  14.918 -0.6274  0.4869 -0.3401
 5786TIP3    H138773   5.311   0.648  14.933 -0.2073 -1.1152 -2.6901
 5786TIP3    H238774   5.405   0.695  14.823  1.0085  2.6460 -0.2173
 5787TIP3   OH238775   1.537   4.440   2.649 -0.6535  0.2140  0.0964
 5787TIP3    H138776   1.485   4.376   2.600 -0.4526  0.3364 -0.2783
 5787TIP3    H238777   1.576   4.390   2.721 -2.0609  0.3045  0.9624
 5788TIP3   OH238778   1.396   3.314  10.527 -0.1110  0.4342  0.4418
 5788TIP3    H138779   1.462   3.261  10.571  1.4140  0.1735 -2.0028
 5788TIP3    H238780   1.338   3.251  10.484 -0.8352  0.7054  0.9931
 5789TIP3   OH238781   2.123   3.914   1.848 -0.4567  0.1570  0.1494
 5789TIP3    H138782   2.110   3.857   1.772  3.0044 -1.0656  0.3175
 5789TIP3    H238783   2.085   3.864   1.921 -2.2999  0.5965 -0.4560
 5790TIP3   OH238784   5.278   1.028   1.642 -0.1179 -0.3109  0.2265
 5790TIP3    H138785   5.201   1.016   1.698  0.7904 -1.6691  1.2251
 5790TIP3    H238786   5.261   0.974   1.565 -1.0077  0.9276 -0.4804
 5791TIP3   OH238787   4.909   3.348  10.844  0.7201 -0.2021  0.1395
 5791TIP3    H138788   4.916   3.440  10.868 -0.9367 -0.7632  3.2411
 5791TIP3    H238789   4.979   3.305  10.893  0.2772 -0.8222  0.2413
 5792TIP3   OH238790   0.429   0.672  11.686  0.0944 -0.1899  0.3110
 5792TIP3    H138791   0.349   0.721  11.672 -0.6891 -0.9084  1.9057
 5792TIP3    H238792   0.497   0.721  11.639 -0.9867  1.3173  0.2585
 5793TIP3   OH238793   2.949   3.442  12.058  0.2271 -0.0891 -0.1214
 5793TIP3    H138794   2.874   3.434  11.999 -0.0850  1.2881  0.0570
 5793TIP3    H238795   2.956   3.536  12.076  1.4098 -0.2951  0.6287
 5794TIP3   OH238796   5.339   6.693  15.556 -0.6578  0.2133 -0.6875
 5794TIP3    H138797   5.384   6.614  15.586 -0.5088  0.9341  1.1507
 5794TIP3    H238798   5.264   6.701  15.615 -1.5195  0.6409 -1.8182
 5795TIP3   OH238799   1.013   0.688  13.812 -0.2727  0.3326 -0.1502
 5795TIP3    H138800   0.959   0.629  13.865 -1.5203 -0.3137 -2.0475
 5795TIP3    H238801   0.957   0.765  13.799  0.4775  0.9878  0.4027
 5796TIP3   OH238802   2.852   3.354  14.421 -0.0025  0.7076  1.0736
 5796TIP3    H138803   2.898   3.422  14.372  0.7060  0.9196  1.9926
 5796TIP3    H238804   2.908   3.337  14.497 -0.1599 -0.9295  0.8493
 5797TIP3   OH238805   6.047   3.621  15.351 -0.3311  0.4423  0.0504
 5797TIP3    H138806   6.001   3.539  15.334 -1.5447  1.0299  0.3941
 5797TIP3    H238807   6.133   3.594  15.384 -0.6134 -0.6789 -0.0985
 5798TIP3   OH238808   5.885   5.189  14.018 -0.0154  0.1970 -0.0449
 5798TIP3    H138809   5.895   5.216  13.927  0.8575 -0.3902 -0.1316
 5798TIP3    H238810   5.973   5.193  14.055 -0.0713 -1.2718  0.2902
 5799TIP3   OH238811   4.960   4.498   6.206  0.2034  0.2858 -0.3181
 5799TIP3    H138812   4.906   4.437   6.257 -1.6916  1.7343 -0.4417
 5799TIP3    H238813   4.994   4.560   6.271  1.8844 -0.6744 -0.2292
 5800TIP3   OH238814   3.990   3.375   1.567 -0.0067 -0.4857 -0.0662
 5800TIP3    H138815   3.982   3.459   1.612 -1.8518 -1.6189  1.9052
 5800TIP3    H238816   3.908   3.366   1.518  0.5748 -0.7544 -1.0346
 5801TIP3   OH238817   2.241   0.927  12.653  0.1340 -0.2163 -0.2883
 5801TIP3    H138818   2.308   0.960  12.594 -1.2294  1.8567 -0.7944
 5801TIP3    H238819   2.208   1.005  12.698 -0.0475 -1.5205  1.9823
 5802TIP3   OH238820   5.746   0.944  11.236 -0.0130 -0.0951  0.1664
 5802TIP3    H138821   5.722   1.037  11.238 -2.4400 -0.6069 -0.6699
 5802TIP3    H238822   5.770   0.928  11.144 -2.2990 -0.7857 -0.3897
 5803TIP3   OH238823   1.413   3.982   4.556 -0.5060 -0.3730  0.2785
 5803TIP3    H138824   1.350   4.054   4.562 -0.7308 -0.5013 -0.5113
 5803TIP3    H238825   1.360   3.903   4.566 -0.3378 -0.4562  0.5467
 5804TIP3   OH238826   3.939   1.081  10.587  0.7378 -0.1588 -0.0716
 5804TIP3    H138827   4.003   1.058  10.654  1.2600  0.9671 -0.1608
 5804TIP3    H238828   3.990   1.122  10.518  0.0977 -0.6089 -0.8231
 5805TIP3   OH238829   1.435   3.765  10.383 -0.4566  0.2994  0.2463
 5805TIP3    H138830   1.453   3.853  10.416 -1.0014  0.5437 -0.1004
 5805TIP3    H238831   1.370   3.777  10.314  1.0580 -0.1480 -1.3154
 5806TIP3   OH238832   5.867   4.365   2.533 -0.0792 -0.0611  0.2126
 5806TIP3    H138833   5.865   4.459   2.555 -0.5207 -0.2655  1.0898
 5806TIP3    H238834   5.875   4.364   2.438  0.7292  0.8667  0.2517
 5807TIP3   OH238835   3.370   0.732  12.046 -0.3285 -0.2554  0.6446
 5807TIP3    H138836   3.314   0.658  12.022 -0.9503  0.8019 -1.4483
 5807TIP3    H238837   3.335   0.806  11.995 -0.1229  1.6650  3.0973
 5808TIP3   OH238838   3.303   3.275   3.326 -0.1406 -0.8768 -0.5009
 5808TIP3    H138839   3.394   3.307   3.331 -0.0157 -1.3562  2.3799
 5808TIP3    H238840   3.284   3.270   3.233  1.7782  2.0739 -1.2085
 5809TIP3   OH238841   5.456   1.790   2.929  0.2339 -0.3579  0.3720
 5809TIP3    H138842   5.460   1.823   3.019 -1.4701  0.4956  0.1727
 5809TIP3    H238843   5.501   1.857   2.877  0.6603 -0.5387  0.5046
 5810TIP3   OH238844   1.449   2.356   6.391  0.3818 -0.0463  0.1287
 5810TIP3    H138845   1.393   2.361   6.468  1.3680  0.5698  0.8312
 5810TIP3    H238846   1.533   2.392   6.420  0.6384  0.6225 -1.3443
 5811TIP3   OH238847   3.449   2.394   5.402 -0.3336 -0.2590  0.1457
 5811TIP3    H138848   3.357   2.420   5.396  0.0843  1.1117 -0.6933
 5811TIP3    H238849   3.450   2.302   5.376 -1.7391 -0.9418  2.2744
 5812TIP3   OH238850   6.114   2.710   4.418 -0.5549 -0.3199 -0.2883
 5812TIP3    H138851   6.049   2.647   4.450 -1.2108  0.1807 -0.5944
 5812TIP3    H238852   6.061   2.781   4.380  0.1662 -0.3902 -1.4925
 5813TIP3   OH238853   2.118   6.293  11.000  0.5582 -0.1372  0.1046
 5813TIP3    H138854   2.146   6.295  10.908  0.6412  2.1917  0.0992
 5813TIP3    H238855   2.027   6.323  10.998 -0.3178 -2.5807  0.6017
 5814TIP3   OH238856   1.717   6.579  13.970  0.1695 -0.3310 -0.3412
 5814TIP3    H138857   1.742   6.513  14.035 -1.3132 -1.1007 -0.5026
 5814TIP3    H238858   1.622   6.569  13.962  0.0352  1.2550 -1.0137
 5815TIP3   OH238859   2.519   0.306   3.038 -0.2695 -0.1473  0.7849
 5815TIP3    H138860   2.523   0.401   3.042  1.4409 -0.1488 -0.0047
 5815TIP3    H238861   2.557   0.283   2.953 -0.1272 -1.5575  1.1996
 5816TIP3   OH238862   2.651   1.042  11.792  0.1335 -0.2407 -0.1408
 5816TIP3    H138863   2.682   1.101  11.861  0.7053  0.1448 -0.7127
 5816TIP3    H238864   2.731   1.013  11.747 -0.0933 -1.8332  0.4236
 5817TIP3   OH238865   4.948   1.628   2.844  0.2021 -0.4969 -0.0846
 5817TIP3    H138866   4.927   1.553   2.900  0.3962 -0.2485  0.3235
 5817TIP3    H238867   4.991   1.690   2.902  0.5806 -0.3151 -0.5583
 5818TIP3   OH238868   1.288   0.397   0.206  0.2478  0.1155  0.2517
 5818TIP3    H138869   1.197   0.370   0.191  0.7166 -0.9760 -0.8763
 5818TIP3    H238870   1.328   0.395   0.119  1.0115  2.0022  0.5158
 5819TIP3   OH238871   2.465   2.600   2.033 -0.2507  0.1587 -0.7557
 5819TIP3    H138872   2.378   2.602   1.991  0.1839  1.2320 -1.6502
 5819TIP3    H238873   2.446   2.606   2.126 -1.2424 -2.1875 -0.7153
 5820TIP3   OH238874   0.977   1.229  15.217  0.0584 -0.1157  0.2335
 5820TIP3    H138875   0.914   1.292  15.181  0.1302  0.5790  1.2634
 5820TIP3    H238876   0.928   1.180  15.282  0.8888  1.4989  2.1994
 5821TIP3   OH238877   3.879   5.630  13.896 -0.9631  1.0847  0.2171
 5821TIP3    H138878   3.943   5.560  13.895 -1.1632  0.6768  3.6851
 5821TIP3    H238879   3.873   5.659  13.805  1.8439 -0.8741 -0.7085
 5822TIP3   OH238880   2.167   4.371   2.948 -0.1785  0.0017 -0.2419
 5822TIP3    H138881   2.101   4.357   2.880 -1.9237  0.7572  1.2065
 5822TIP3    H238882   2.134   4.323   3.024 -1.1218  3.3122  1.6780
 5823TIP3   OH238883   0.076   6.541   2.141  0.3666 -0.4934 -0.1989
 5823TIP3    H138884   0.079   6.540   2.236 -2.7408 -2.9870  0.0157
 5823TIP3    H238885   0.158   6.499   2.114  1.6364  0.9102  1.2587
 5824TIP3   OH238886   0.582   0.320  16.203  0.5748  0.0060 -0.1912
 5824TIP3    H138887   0.541   0.327  16.289  2.9640  1.5163  0.9334
 5824TIP3    H238888   0.512   0.341  16.141 -1.2127 -1.1606  1.3343
 5825TIP3   OH238889   4.485   2.199   0.481  0.2086 -0.5669  0.0726
 5825TIP3    H138890   4.433   2.161   0.552 -0.6899 -2.0216 -1.3100
 5825TIP3    H238891   4.455   2.155   0.402 -1.0925  3.1636 -1.7712
 5826TIP3   OH238892   6.123   3.900   3.402 -0.2040  0.6557  0.0633
 5826TIP3    H138893   6.131   3.988   3.365 -0.6055  1.1799  1.1781
 5826TIP3    H238894   6.200   3.891   3.458  1.0508 -0.5939 -1.7398
 5827TIP3   OH238895   1.165   6.359  13.120 -0.3975  0.3576 -0.3884
 5827TIP3    H138896   1.110   6.385  13.046 -0.2233 -1.9644 -1.4322
 5827TIP3    H238897   1.207   6.278  13.091  0.2325 -0.2540  2.0062
 5828TIP3   OH238898   1.098   3.456  16.745  0.3992  0.5831 -0.3711
 5828TIP3    H138899   1.062   3.503  16.820 -0.4730  2.0869 -1.6487
 5828TIP3    H238900   1.136   3.525  16.690  1.1436 -0.4844 -1.2466
 5829TIP3   OH238901   5.131   6.293  10.545  0.5578  0.0658  0.0599
 5829TIP3    H138902   5.144   6.282  10.639 -2.0891 -1.3307  0.3519
 5829TIP3    H238903   5.196   6.235  10.504 -0.0902 -1.4513  1.1225
 5830TIP3   OH238904   4.534   5.141   1.241  0.1184  0.7579  0.6524
 5830TIP3    H138905   4.610   5.132   1.299  0.3843 -0.7104  0.1205
 5830TIP3    H238906   4.571   5.153   1.154 -0.2372 -0.2776  0.3429
 5831TIP3   OH238907   1.076   0.794  16.648  0.1708  0.5918  0.1827
 5831TIP3    H138908   1.134   0.770  16.576 -2.1329  1.4083 -2.1072
 5831TIP3    H238909   1.061   0.712  16.696  0.0093 -0.4975 -1.6506
 5832TIP3   OH238910   5.178   1.790  11.318 -0.6672 -0.2772  0.0095
 5832TIP3    H138911   5.146   1.754  11.235  0.1640  0.4631 -0.6612
 5832TIP3    H238912   5.111   1.767  11.382 -1.2911 -0.9335 -0.8580
 5833TIP3   OH238913   6.078   2.994  16.238  0.1612  0.6271 -0.1338
 5833TIP3    H138914   6.137   2.938  16.289 -1.2856  1.0940  2.1994
 5833TIP3    H238915   6.081   3.078  16.282 -0.0481  1.5212 -1.7552
 5834TIP3   OH238916   4.855   0.124   4.914 -0.7754  0.0410 -0.1309
 5834TIP3    H138917   4.846   0.031   4.935 -0.1069  0.1879  0.8660
 5834TIP3    H238918   4.933   0.129   4.858  0.0503  0.1361  0.9746
 5835TIP3   OH238919   0.511   5.212   1.171  0.1414  0.1819  0.0910
 5835TIP3    H138920   0.577   5.143   1.177  0.7715  0.6325 -1.4146
 5835TIP3    H238921   0.531   5.270   1.245  0.1420 -0.7555  0.8525
 5836TIP3   OH238922   0.673   4.615   5.443  0.4179  0.0270  0.4636
 5836TIP3    H138923   0.646   4.531   5.404 -1.3944  0.6875  0.1901
 5836TIP3    H238924   0.722   4.658   5.373  2.1592 -1.1492  0.9124
 5837TIP3   OH238925   1.860   3.772  12.313 -0.1138  0.4976 -0.2705
 5837TIP3    H138926   1.789   3.828  12.283  1.0422  2.8750  1.1860
 5837TIP3    H238927   1.939   3.824  12.301  0.9752 -0.5876  1.6452
 5838TIP3   OH238928   1.447   5.072  15.520 -0.5178  0.7020  0.5157
 5838TIP3    H138929   1.485   5.068  15.608 -1.2394  1.5629  0.8783
 5838TIP3    H238930   1.424   5.164  15.507 -0.9538  0.4845 -0.3456
 5839TIP3   OH238931   4.278   3.648  12.076  0.1484 -0.6560 -0.1854
 5839TIP3    H138932   4.280   3.635  11.982  0.2074  0.6904 -0.4018
 5839TIP3    H238933   4.366   3.679  12.098  0.1779 -1.0985  0.3313
 5840TIP3   OH238934   0.547   3.005  15.934 -0.2546  0.2987 -0.0181
 5840TIP3    H138935   0.454   2.993  15.950 -0.4462 -2.4727 -2.4674
 5840TIP3    H238936   0.556   3.098  15.911 -2.7793  0.2160 -1.6604
 5841TIP3   OH238937   6.441   6.378   0.081 -0.6135 -0.1067  0.4550
 5841TIP3    H138938   6.472   6.434   0.152 -0.9649 -2.0645  2.2645
 5841TIP3    H238939   6.346   6.380   0.089 -0.6300 -1.0349  0.6639
 5842TIP3   OH238940   2.870   0.893  11.682  0.2248  0.0527 -0.1071
 5842TIP3    H138941   2.958   0.893  11.721  0.5667  0.1384 -0.8643
 5842TIP3    H238942   2.885   0.879  11.589 -0.2330  4.0328 -0.9635
 5843TIP3   OH238943   5.434   5.800  14.377  0.3822  0.0486  0.4851
 5843TIP3    H138944   5.511   5.802  14.435 -0.1531  1.9193  1.2157
 5843TIP3    H238945   5.361   5.781  14.436  0.1664 -1.0868 -0.1098
 5844TIP3   OH238946   4.383   0.114  16.872 -0.0773 -0.1936  0.2798
 5844TIP3    H138947   4.319   0.132  16.803 -0.9827 -0.4590  1.0279
 5844TIP3    H238948   4.367   0.181  16.938 -0.7920 -1.2767  1.2603
 5845TIP3   OH238949   1.643   1.275   3.945 -0.0937 -0.3522  0.0611
 5845TIP3    H138950   1.706   1.297   3.877 -0.1307  2.2271  0.7262
 5845TIP3    H238951   1.695   1.231   4.013  1.3472  2.5759  1.0351
 5846TIP3   OH238952   3.864   4.448  15.941  0.3465  0.1830  0.3734
 5846TIP3    H138953   3.941   4.451  15.998 -1.4481  2.6841  2.9940
 5846TIP3    H238954   3.803   4.389  15.985 -0.0049 -0.1814 -0.5747
 5847TIP3   OH238955   6.034   5.494   0.042  0.3783 -0.2234  0.3354
 5847TIP3    H138956   6.031   5.589   0.032  1.6965 -0.1689  0.3745
 5847TIP3    H238957   5.942   5.467   0.042  0.0281  0.8658 -1.3979
 5848TIP3   OH238958   2.895   3.607   1.250 -0.2435 -0.5227  0.3242
 5848TIP3    H138959   2.842   3.675   1.209  0.5906  0.2364  0.4816
 5848TIP3    H238960   2.871   3.611   1.343  0.3995  0.1276  0.4711
 5849TIP3   OH238961   6.035   3.052   5.982 -0.5551 -0.1182 -0.0712
 5849TIP3    H138962   5.973   3.030   5.912 -0.2459 -2.0998  0.2092
 5849TIP3    H238963   5.980   3.067   6.059 -0.9740  3.0980 -0.8865
 5850TIP3   OH238964   3.571   6.066  16.788 -0.5200 -0.1965  0.4652
 5850TIP3    H138965   3.495   6.107  16.747 -0.3052  0.2150  0.4770
 5850TIP3    H238966   3.625   6.036  16.715  0.8058  2.2278  0.3592
 5851TIP3   OH238967   2.726   1.731  15.594 -0.8237 -0.1762  0.4047
 5851TIP3    H138968   2.784   1.726  15.670 -0.0598  2.1355  0.0520
 5851TIP3    H238969   2.638   1.733  15.631 -0.6431 -1.8904  1.0335
 5852TIP3   OH238970   3.545   5.274  14.491 -0.0235  0.5147 -0.5048
 5852TIP3    H138971   3.480   5.205  14.476  0.3650 -0.0597  0.4008
 5852TIP3    H238972   3.499   5.337  14.547  0.1398  0.1951 -0.0087
 5853TIP3   OH238973   6.419   2.766  14.957 -0.5708  0.0616  0.2764
 5853TIP3    H138974   6.464   2.727  15.032 -1.0161 -2.5218 -0.7099
 5853TIP3    H238975   6.469   2.846  14.939  2.9339 -1.9431  0.0456
 5854TIP3   OH238976   3.716   1.292   0.740 -0.1367  0.0979  0.4177
 5854TIP3    H138977   3.649   1.283   0.671 -0.6861  0.2960  0.9176
 5854TIP3    H238978   3.751   1.203   0.750  0.5438  0.2196 -0.6963
 5855TIP3   OH238979   1.843   0.236  12.069  0.3197 -0.9873 -0.3045
 5855TIP3    H138980   1.828   0.324  12.035 -1.2610 -1.3818 -0.6897
 5855TIP3    H238981   1.933   0.238  12.100  0.1895  0.8889  0.0706
 5856TIP3   OH238982   4.473   3.339   0.977 -0.3427 -0.7356 -0.0361
 5856TIP3    H138983   4.401   3.388   0.937 -0.5958 -0.8462  0.2862
 5856TIP3    H238984   4.552   3.383   0.944 -0.5582  1.0352  1.6165
 5857TIP3   OH238985   1.005   0.315   3.900 -0.7914 -0.3291 -0.3360
 5857TIP3    H138986   0.910   0.305   3.909 -0.9774  1.0594 -0.5695
 5857TIP3    H238987   1.033   0.351   3.984 -0.5071 -0.5114 -0.3530
 5858TIP3   OH238988   0.844   2.305   1.738 -0.2181  0.0757  0.6089
 5858TIP3    H138989   0.800   2.380   1.698 -0.6823 -0.5918 -0.1561
 5858TIP3    H238990   0.936   2.328   1.739 -0.1359 -0.0606 -1.2502
 5859TIP3   OH238991   1.381   4.477  12.690  0.0285 -0.2575 -0.0266
 5859TIP3    H138992   1.416   4.532  12.620 -1.3836  0.2451 -0.3747
 5859TIP3    H238993   1.329   4.411  12.644 -1.8048  0.7265  0.5575
 5860TIP3   OH238994   3.302   0.483   4.125  1.0851 -0.0061 -0.1634
 5860TIP3    H138995   3.356   0.545   4.077  1.9710 -0.5145  0.1538
 5860TIP3    H238996   3.321   0.501   4.217  0.5243 -0.0307 -0.0372
 5861TIP3   OH238997   1.913   3.608  11.118 -0.6848  0.0199  0.2383
 5861TIP3    H138998   1.942   3.607  11.027 -0.8888 -0.2773  0.1765
 5861TIP3    H238999   1.840   3.546  11.121 -0.2105 -0.5336  0.7586
 5862TIP3   OH239000   0.500   5.860   0.091  0.7239  0.1854 -0.1094
 5862TIP3    H139001   0.557   5.787   0.067 -0.1379 -0.9487  1.1194
 5862TIP3    H239002   0.412   5.822   0.095  0.1837  1.3977  0.0987
 5863TIP3   OH239003   4.611   3.005   4.089 -0.3327  0.0740 -0.1609
 5863TIP3    H139004   4.565   2.983   4.170 -0.3712 -0.8433 -0.4209
 5863TIP3    H239005   4.577   3.091   4.064 -0.9917 -0.0475  0.3057
 5864TIP3   OH239006   6.399   2.650  14.492  0.2724  0.0004  0.0570
 5864TIP3    H139007   6.321   2.603  14.521 -0.5311  2.2064  1.7998
 5864TIP3    H239008   6.469   2.618  14.549  0.3096 -0.8747 -0.4743
 5865TIP3   OH239009   4.478   3.773   5.004 -0.2796 -0.3950 -0.3959
 5865TIP3    H139010   4.551   3.825   5.039 -0.1499  0.1615 -1.4662
 5865TIP3    H239011   4.403   3.800   5.057 -0.2089  0.8713 -0.9089
 5866TIP3   OH239012   2.868   6.577   0.083 -0.0525 -0.2203 -0.5953
 5866TIP3    H139013   2.787   6.526   0.074  0.9834 -1.7392 -1.9651
 5866TIP3    H239014   2.891   6.568   0.176 -1.0964 -0.3441 -0.3384
 5867TIP3   OH239015   1.287   3.582   0.757  0.3223 -0.4807 -0.5188
 5867TIP3    H139016   1.244   3.668   0.755  0.3068 -0.4682 -2.6335
 5867TIP3    H239017   1.338   3.581   0.838 -0.1733  1.2635 -0.1565
 5868TIP3   OH239018   0.684   4.320  15.214  0.3848  0.1726  0.6255
 5868TIP3    H139019   0.695   4.246  15.273  0.3550 -0.8004 -0.5516
 5868TIP3    H239020   0.770   4.331  15.174 -0.0897 -0.4892 -0.6219
 5869TIP3   OH239021   6.585   0.178  11.393  0.6935  0.0755  0.5567
 5869TIP3    H139022   6.661   0.154  11.446  1.0892  0.6098  0.2422
 5869TIP3    H239023   6.524   0.104  11.403  1.2204 -0.3230  0.8697
 5870TIP3   OH239024   5.304   1.175   0.075 -0.0736 -1.1791 -0.2500
 5870TIP3    H139025   5.253   1.211   0.147  0.3232 -1.4836  0.1888
 5870TIP3    H239026   5.364   1.113   0.116  0.5278 -0.9603 -0.7746
 5871TIP3   OH239027   0.877   5.717  16.257 -0.1487 -0.7430  0.2169
 5871TIP3    H139028   0.849   5.804  16.228  1.8319  0.0979  0.6552
 5871TIP3    H239029   0.798   5.663  16.252 -1.7207  1.3565  1.0532
 5872TIP3   OH239030   2.954   2.334  12.084  0.4955 -0.1046 -0.6639
 5872TIP3    H139031   2.927   2.311  12.173 -1.1498  0.6554 -0.9417
 5872TIP3    H239032   2.917   2.265  12.029 -1.0792  0.9845 -1.0534
 5873TIP3   OH239033   0.558   2.622   6.220 -0.1289 -0.0722 -0.5782
 5873TIP3    H139034   0.518   2.708   6.228 -1.3835 -0.7791  1.3336
 5873TIP3    H239035   0.650   2.640   6.199  0.4277  1.9137  2.8098
 5874TIP3   OH239036   2.602   4.193  14.890 -0.4282  0.2281 -0.2792
 5874TIP3    H139037   2.637   4.112  14.927 -1.0557 -0.2541 -0.7232
 5874TIP3    H239038   2.523   4.210  14.940  0.8932  1.8611  1.4035
 5875TIP3   OH239039   0.962   2.098   5.075  0.0791  0.8733  0.0189
 5875TIP3    H139040   1.025   2.031   5.049 -0.7752  0.3641 -0.8251
 5875TIP3    H239041   1.005   2.181   5.056 -0.1127  0.5310 -2.1895
 5876TIP3   OH239042   2.947   1.240   0.035  0.0081  0.2264  0.0680
 5876TIP3    H139043   2.940   1.172  -0.033 -2.0261  0.1852  0.2461
 5876TIP3    H239044   2.868   1.228   0.088  0.9612  1.0277  1.7463
 5877TIP3   OH239045   5.997   2.040  12.675 -0.7674  0.1825 -0.4785
 5877TIP3    H139046   6.078   2.017  12.629 -0.8400  1.1603 -1.1123
 5877TIP3    H239047   5.963   2.115  12.627 -1.4027  0.5591  0.5440
 5878TIP3   OH239048   3.132   2.623   0.867  0.4472 -0.0834  0.9729
 5878TIP3    H139049   3.222   2.645   0.890  0.5194  1.0932 -0.3316
 5878TIP3    H239050   3.082   2.639   0.947  1.4027 -0.9737  1.7838
 5879TIP3   OH239051   4.912   6.322  16.792 -0.5154 -0.0476 -0.0941
 5879TIP3    H139052   5.004   6.335  16.767 -0.7975  0.3719 -0.9620
 5879TIP3    H239053   4.881   6.410  16.813 -0.4557 -0.3167  1.1839
 5880TIP3   OH239054   3.305   6.134   4.282 -0.0373 -0.6406  0.0466
 5880TIP3    H139055   3.255   6.212   4.261 -2.2493 -1.5165  1.6726
 5880TIP3    H239056   3.392   6.166   4.305  0.0612  0.9929 -2.3169
 5881TIP3   OH239057   3.353   2.688   0.534  0.1742 -0.0161  0.3026
 5881TIP3    H139058   3.300   2.632   0.477  1.4986  0.7992 -1.8212
 5881TIP3    H239059   3.308   2.773   0.532 -0.8385 -0.4566  2.0934
 5882TIP3   OH239060   2.470   5.791   2.082 -0.2037  0.4094  0.1274
 5882TIP3    H139061   2.533   5.746   2.138 -1.2650  0.2882  1.2707
 5882TIP3    H239062   2.504   5.880   2.075 -0.5032  0.6782  1.7276
 5883TIP3   OH239063   3.276   4.846   5.092  0.1325 -0.3256 -0.0775
 5883TIP3    H139064   3.352   4.874   5.040  0.2253  1.1914  0.8217
 5883TIP3    H239065   3.272   4.752   5.079  1.7953 -0.3507 -0.6703
 5884TIP3   OH239066   2.440   5.035  13.223 -0.4866  0.9599 -0.2505
 5884TIP3    H139067   2.442   5.121  13.181 -0.8491  1.9203  1.5948
 5884TIP3    H239068   2.425   5.054  13.315  0.1084 -1.0648  0.3118
 5885TIP3   OH239069   3.229   6.398  11.801 -0.0790 -0.8097  0.1877
 5885TIP3    H139070   3.271   6.483  11.788 -0.5260 -0.6003  0.0841
 5885TIP3    H239071   3.279   6.338  11.745  0.4761 -0.6951  0.5501
 5886TIP3   OH239072   5.554   1.655  12.085 -0.6038 -0.0099  0.2995
 5886TIP3    H139073   5.562   1.747  12.109 -0.7363 -0.0366  0.4532
 5886TIP3    H239074   5.585   1.650  11.995  1.2087 -0.1358  0.8919
 5887TIP3   OH239075   1.982   5.133  16.344 -0.2528  0.2352  0.0346
 5887TIP3    H139076   1.953   5.047  16.313 -0.2792  0.0769  0.4951
 5887TIP3    H239077   2.071   5.118  16.377 -0.4019  0.3026  0.4727
 5888TIP3   OH239078   3.739   4.964  14.291  0.2877  0.6359  0.9157
 5888TIP3    H139079   3.759   4.954  14.384  1.0218 -1.5074  0.5684
 5888TIP3    H239080   3.645   4.947  14.284  0.6512 -1.6888  0.9994
 5889TIP3   OH239081   4.518   2.898  11.868 -0.6864 -0.2030  0.6465
 5889TIP3    H139082   4.548   2.828  11.926 -1.0621 -2.2807 -1.5212
 5889TIP3    H239083   4.435   2.867  11.833 -0.6341  1.1130 -0.7485
 5890TIP3   OH239084   3.495   0.120   5.321  0.2364  0.1300  0.3127
 5890TIP3    H139085   3.462   0.052   5.379  1.0609 -0.1636  0.4546
 5890TIP3    H239086   3.557   0.075   5.264 -0.0895  0.5383 -0.3862
 5891TIP3   OH239087   3.755   2.593  14.078  0.4412 -0.7632  0.4540
 5891TIP3    H139088   3.781   2.613  14.167 -0.4233 -0.0632  0.5564
 5891TIP3    H239089   3.668   2.555  14.086  0.2732 -0.5109 -0.1081
 5892TIP3   OH239090   1.752   6.332   1.487 -0.0904  0.6056 -0.2616
 5892TIP3    H139091   1.802   6.359   1.410 -0.7883  1.0613 -0.5681
 5892TIP3    H239092   1.804   6.263   1.527 -0.2794 -0.4800 -1.8096
 5893TIP3   OH239093   1.204   0.810  14.789 -0.1089  0.7103 -0.3179
 5893TIP3    H139094   1.171   0.861  14.715 -3.2190  0.6552  0.8901
 5893TIP3    H239095   1.244   0.875  14.847 -2.1923  1.5519  0.2502
 5894TIP3   OH239096   4.869   0.342   6.465 -0.1412 -0.3255 -0.0277
 5894TIP3    H139097   4.931   0.348   6.538  0.5871 -1.1368 -0.5556
 5894TIP3    H239098   4.812   0.418   6.476 -0.3761 -0.6971  1.6841
 5895TIP3   OH239099   6.019   5.713  16.237 -0.3860  0.0657  0.3534
 5895TIP3    H139100   5.960   5.751  16.302 -0.0538  0.9450  0.1536
 5895TIP3    H239101   5.961   5.685  16.166 -0.4589  2.7773 -0.7702
 5896TIP3   OH239102   3.821   1.524   3.284 -0.2349 -0.5788 -0.9047
 5896TIP3    H139103   3.895   1.487   3.235  1.9325  0.3684  1.4258
 5896TIP3    H239104   3.803   1.608   3.240  1.6486  0.2422 -0.2379
 5897TIP3   OH239105   1.601   4.454   0.659  0.1473 -0.8859  0.4503
 5897TIP3    H139106   1.550   4.438   0.738  0.4944 -0.6842  0.7200
 5897TIP3    H239107   1.540   4.496   0.598  0.6671  2.0446  1.7765
 5898TIP3   OH239108   1.783   2.607  11.249 -0.4234 -0.3236 -0.6634
 5898TIP3    H139109   1.840   2.600  11.171  1.1886  2.4409  0.1117
 5898TIP3    H239110   1.705   2.557  11.226  1.6139 -2.9894 -2.4456
 5899TIP3   OH239111   1.456   0.815   1.037 -0.6039  0.3817  0.5595
 5899TIP3    H139112   1.499   0.781   0.958 -3.0159  2.4674 -1.8642
 5899TIP3    H239113   1.435   0.737   1.088  0.6389 -1.1245 -1.0915
 5900TIP3   OH239114   2.377   4.433  11.255 -0.0214  0.2950  0.2139
 5900TIP3    H139115   2.431   4.356  11.241 -0.0190  0.1980  0.7371
 5900TIP3    H239116   2.436   4.507  11.239  0.1739  0.1887  0.4378
 5901TIP3   OH239117   3.458   6.778  12.287 -0.2371 -0.8311  0.4083
 5901TIP3    H139118   3.432   6.686  12.288  0.0661 -0.9930 -1.9858
 5901TIP3    H239119   3.475   6.798  12.379 -0.9959 -2.9541  1.0828
 5902TIP3   OH239120   1.482   6.723   0.967 -0.1663  0.0978 -0.2252
 5902TIP3    H139121   1.548   6.744   1.034  0.1796 -0.1159 -0.4937
 5902TIP3    H239122   1.509   6.637   0.933  0.9224  1.1266 -2.1424
 5903TIP3   OH239123   5.292   2.163   2.956  0.2682  0.3858  0.1011
 5903TIP3    H139124   5.375   2.116   2.967  0.5383  0.7052 -0.4985
 5903TIP3    H239125   5.304   2.212   2.875 -0.9684 -0.5243 -0.6652
 5904TIP3   OH239126   6.780   4.747  13.090  0.5567  0.1624 -0.3224
 5904TIP3    H139127   6.744   4.728  13.003  1.6942 -0.4266 -0.6943
 5904TIP3    H239128   6.743   4.679  13.146 -0.5727  0.8408 -0.2255
 5905TIP3   OH239129   6.074   4.126   3.251 -0.0529  0.5075 -0.7653
 5905TIP3    H139130   6.012   4.198   3.238  0.3411  1.1632  0.7386
 5905TIP3    H239131   6.143   4.164   3.307  0.3940 -0.9194 -0.3107
 5906TIP3   OH239132   0.302   0.578   2.238 -0.1017 -0.0189 -0.0929
 5906TIP3    H139133   0.375   0.516   2.246  0.4218  0.6682  0.5655
 5906TIP3    H239134   0.281   0.602   2.328 -0.7736  0.2193 -0.3112
 5907TIP3   OH239135   3.692   4.217   4.855 -0.2707 -0.2973  0.1200
 5907TIP3    H139136   3.608   4.257   4.834 -0.5362 -0.7702  0.2585
 5907TIP3    H239137   3.670   4.144   4.913  0.1063 -1.2193 -0.8654
 5908TIP3   OH239138   6.019   2.639   1.827 -0.3658  0.1583  0.6169
 5908TIP3    H139139   6.033   2.634   1.732 -0.3654  2.4391  0.4353
 5908TIP3    H239140   5.926   2.620   1.838 -0.9662  2.3301 -0.1842
 5909TIP3   OH239141   3.232   2.587  16.409 -0.3740 -0.0728  0.0756
 5909TIP3    H139142   3.277   2.509  16.376 -0.8173 -0.4479  0.3416
 5909TIP3    H239143   3.294   2.627  16.470 -0.3185 -0.4740  0.2861
 5910TIP3   OH239144   6.496   0.755   1.706 -0.0391 -0.5500 -0.3898
 5910TIP3    H139145   6.586   0.743   1.675 -0.5154 -0.3438 -1.9514
 5910TIP3    H239146   6.442   0.724   1.633 -1.2313  0.0960  0.1987
 5911TIP3   OH239147   1.774   1.682  13.335 -0.2634 -0.5068 -0.0515
 5911TIP3    H139148   1.738   1.697  13.422 -2.1005  0.9284 -0.9813
 5911TIP3    H239149   1.869   1.684  13.348 -0.4349  1.9851  1.6327
 5912TIP3   OH239150   3.890   2.348   4.844 -0.0881 -0.1062 -0.3202
 5912TIP3    H139151   3.965   2.375   4.791 -0.4218 -0.6369 -1.0652
 5912TIP3    H239152   3.929   2.304   4.920  0.3500 -3.3884 -2.2866
 5913TIP3   OH239153   0.377   2.148  11.390  0.2227  0.8181 -0.3627
 5913TIP3    H139154   0.344   2.149  11.479 -0.1531 -1.4606 -0.4225
 5913TIP3    H239155   0.308   2.188  11.337 -0.3574  0.4378  0.1141
 5914TIP3   OH239156   4.085   2.432   0.774  0.2202 -0.3745 -0.3414
 5914TIP3    H139157   4.007   2.480   0.743 -0.2012 -1.6445 -1.3268
 5914TIP3    H239158   4.054   2.385   0.851 -0.0172 -0.9270 -0.7680
 5915TIP3   OH239159   2.415   0.296  16.329  0.2272 -0.0191 -0.4398
 5915TIP3    H139160   2.337   0.243  16.312  1.0024 -1.6660  0.8109
 5915TIP3    H239161   2.434   0.339  16.246 -1.9712  0.3902 -0.7811
 5916TIP3   OH239162   5.524   5.683   5.708 -0.3286 -0.3623  0.0423
 5916TIP3    H139163   5.580   5.653   5.779 -1.2589  0.2234  1.0652
 5916TIP3    H239164   5.456   5.735   5.751 -0.9305  0.0088 -1.2779
 5917TIP3   OH239165   1.827   4.973  13.893  0.3366  0.2232  0.0037
 5917TIP3    H139166   1.763   4.903  13.908 -0.6019  0.7454 -1.3179
 5917TIP3    H239167   1.903   4.928  13.856  0.2449 -0.2464  0.3752
 5918TIP3   OH239168   5.002   3.639  14.127  0.2421 -0.2408 -0.0461
 5918TIP3    H139169   4.922   3.618  14.079 -0.4595  0.0388  0.9600
 5918TIP3    H239170   4.981   3.718  14.176  1.4302  0.3420 -0.4356
 5919TIP3   OH239171   3.380   3.429  15.243 -0.1820  0.3622  0.0718
 5919TIP3    H139172   3.392   3.375  15.321  0.4317 -1.0135 -0.9332
 5919TIP3    H239173   3.327   3.375  15.184  1.5255  0.2891 -1.4700
 5920TIP3   OH239174   2.666   2.025   5.729 -0.2811 -0.0896 -0.1961
 5920TIP3    H139175   2.587   2.079   5.727  0.4718  1.1199  1.1290
 5920TIP3    H239176   2.635   1.938   5.754 -1.1708  0.4679  0.7245
 5921TIP3   OH239177   6.269   5.140   3.471  0.0321 -0.5615 -0.1341
 5921TIP3    H139178   6.243   5.229   3.448 -0.1721 -0.0768  1.7832
 5921TIP3    H239179   6.364   5.142   3.473  0.0213 -0.1805  0.5245
 5922TIP3   OH239180   6.689   4.449  16.134 -0.0877 -0.0360  0.6827
 5922TIP3    H139181   6.685   4.374  16.194  0.0310 -1.1969 -0.6955
 5922TIP3    H239182   6.671   4.411  16.048  0.8542  1.3712 -0.1768
 5923TIP3   OH239183   5.992   2.191  13.562 -0.2173  0.4370  0.0465
 5923TIP3    H139184   5.918   2.131  13.574  0.1248 -0.0594 -0.2975
 5923TIP3    H239185   6.023   2.209  13.651 -1.7582  1.9564  0.3404
 5924TIP3   OH239186   6.487   6.488  10.753 -0.5327 -0.4754  1.1444
 5924TIP3    H139187   6.402   6.522  10.780 -0.5226  1.3209 -0.8664
 5924TIP3    H239188   6.551   6.549  10.790 -0.2880 -0.3635  0.5596
 5925TIP3   OH239189   6.071   3.493   2.826 -0.4473 -0.0459 -0.2645
 5925TIP3    H139190   6.078   3.534   2.912  0.3053  0.4140 -0.5327
 5925TIP3    H239191   6.161   3.481   2.797 -0.6897 -0.1468 -1.0091
 5926TIP3   OH239192   6.479   0.633   1.220 -0.3968  0.1657 -0.6114
 5926TIP3    H139193   6.498   0.578   1.295 -0.6666  0.3823 -0.3850
 5926TIP3    H239194   6.452   0.717   1.257  1.1649  0.8526 -0.9450
 5927TIP3   OH239195   3.776   4.977   2.382  0.1556  0.4618 -0.3950
 5927TIP3    H139196   3.820   5.057   2.411 -1.1836  0.9845  0.2622
 5927TIP3    H239197   3.693   4.977   2.429  0.0322 -1.2109 -0.5631
 5928TIP3   OH239198   1.066   2.301   1.149  0.3519 -0.5172  0.0521
 5928TIP3    H139199   1.095   2.251   1.225 -0.0483  2.4845  2.3836
 5928TIP3    H239200   0.976   2.273   1.135 -0.1040 -0.0254  1.7601
 5929TIP3   OH239201   5.052   3.282   5.597 -0.0154  0.1432  0.0634
 5929TIP3    H139202   5.112   3.209   5.613  1.0654  1.3675  2.0242
 5929TIP3    H239203   5.060   3.299   5.503  0.5423 -1.5247 -0.2334
 5930TIP3   OH239204   4.720   5.966  11.254  0.2968 -0.0997  0.6621
 5930TIP3    H139205   4.789   5.901  11.260 -0.5217 -0.9941  0.5903
 5930TIP3    H239206   4.687   5.975  11.343 -1.1946 -1.5922  0.3066
 5931TIP3   OH239207   1.852   3.907  13.701  0.4500  0.1315 -0.4791
 5931TIP3    H139208   1.884   3.997  13.700 -0.6103  0.5141 -0.4513
 5931TIP3    H239209   1.759   3.914  13.723  1.0066 -1.1644  2.9692
 5932TIP3   OH239210   0.257   3.833   3.952 -0.0046  0.1200 -0.7182
 5932TIP3    H139211   0.296   3.860   3.869 -0.1291  0.1397 -0.7697
 5932TIP3    H239212   0.203   3.907   3.979 -0.2599 -0.0321 -0.8061
 5933TIP3   OH239213   5.232   6.609   1.864  0.0591  0.4760 -0.3434
 5933TIP3    H139214   5.147   6.654   1.867  0.3456  0.9830  0.2685
 5933TIP3    H239215   5.222   6.547   1.792 -0.6064  0.9907 -0.7208
 5934TIP3   OH239216   3.794   3.017  15.894  0.3060  0.2683 -0.3533
 5934TIP3    H139217   3.799   3.046  15.803 -0.9269  0.5377 -0.3476
 5934TIP3    H239218   3.799   3.098  15.946 -1.0290  0.3042 -0.2632
 5935TIP3   OH239219   1.371   4.216  10.393  0.6717  0.0530  0.1095
 5935TIP3    H139220   1.302   4.216  10.459  0.4377  1.7293 -0.1030
 5935TIP3    H239221   1.328   4.239  10.311  1.7434  3.5695  0.3863
 5936TIP3   OH239222   0.327   2.325  16.111  0.7742 -0.0578  0.3630
 5936TIP3    H139223   0.398   2.287  16.163  0.9423 -0.1432  0.0715
 5936TIP3    H239224   0.261   2.349  16.176  0.0334 -2.1309  0.4603
 5937TIP3   OH239225   1.649   3.507  13.058  0.3130 -0.3265 -0.8685
 5937TIP3    H139226   1.707   3.434  13.034  0.7549 -0.7838  1.3501
 5937TIP3    H239227   1.709   3.575  13.089 -0.1373  0.8307 -2.3672
 5938TIP3   OH239228   6.719   5.515  10.466 -0.1212  0.1489 -0.4154
 5938TIP3    H139229   6.777   5.442  10.447 -1.4330 -0.8749 -0.6235
 5938TIP3    H239230   6.775   5.579  10.511  1.1541 -0.7815 -0.6211
 5939TIP3   OH239231   4.386   3.697   5.891 -0.7430 -0.1250 -0.9351
 5939TIP3    H139232   4.329   3.685   5.967 -0.2857  0.2468 -0.5253
 5939TIP3    H239233   4.391   3.792   5.880 -1.0048 -0.1811 -1.5872
 5940TIP3   OH239234   5.095   2.272   0.301 -0.6723  0.4618  0.0721
 5940TIP3    H139235   5.118   2.206   0.236 -0.6528  2.2329 -1.8073
 5940TIP3    H239236   5.050   2.341   0.252 -1.8477  1.3018  2.1584
 5941TIP3   OH239237   0.749   4.184   3.998 -0.0933 -0.0456 -0.5492
 5941TIP3    H139238   0.732   4.127   4.072 -0.9275  2.7704  1.6155
 5941TIP3    H239239   0.827   4.148   3.957 -0.3799 -2.4680  0.8858
 5942TIP3   OH239240   6.232   0.025  11.654 -0.4334 -0.1130  0.3545
 5942TIP3    H139241   6.164   0.040  11.720 -0.7289 -1.0976  0.2901
 5942TIP3    H239242   6.197  -0.045  11.599  0.3284 -0.1317 -0.1227
 5943TIP3   OH239243   4.651   2.745   3.994 -0.5393  0.1499 -0.1700
 5943TIP3    H139244   4.701   2.713   4.069  1.1287  1.0471 -0.8511
 5943TIP3    H239245   4.647   2.840   4.006  0.3359  0.3920 -1.5208
 5944TIP3   OH239246   2.372   5.103  12.867  0.6567  0.2896 -0.0692
 5944TIP3    H139247   2.392   5.196  12.857  0.6465  0.2703 -0.2595
 5944TIP3    H239248   2.406   5.062  12.787 -0.5515  0.3185 -0.6121
 5945TIP3   OH239249   3.813   6.626  16.477  0.1378  0.4439  0.4411
 5945TIP3    H139250   3.887   6.566  16.472 -0.7129 -0.8018  1.8895
 5945TIP3    H239251   3.784   6.637  16.387  0.5714 -1.0201  0.0963
 5946TIP3   OH239252   2.074   6.645  17.245 -0.0260  0.1301 -0.9849
 5946TIP3    H139253   2.032   6.590  17.178  0.5440 -1.5622 -0.0298
 5946TIP3    H239254   2.165   6.652  17.216 -0.1465  0.7593 -1.2112
 5947TIP3   OH239255   5.600   4.598   5.974  0.0013  0.4148 -0.2876
 5947TIP3    H139256   5.603   4.689   5.945 -1.8632  0.6711  0.2455
 5947TIP3    H239257   5.663   4.594   6.046  1.6539  0.7333 -1.6325
 5948TIP3   OH239258   4.343   4.463   6.942  0.2912  0.3482 -0.0899
 5948TIP3    H139259   4.343   4.551   6.907 -0.0750 -0.3338 -1.8879
 5948TIP3    H239260   4.435   4.437   6.943  0.3636  0.6026  0.1006
 5949TIP3   OH239261   0.732   5.650  16.812 -0.2976  0.4646  0.3152
 5949TIP3    H139262   0.637   5.664  16.815  0.0830  3.7753  0.7655
 5949TIP3    H239263   0.756   5.678  16.724  0.1683 -1.9694 -0.4146
 5950TIP3   OH239264   4.999   1.710   1.058  0.2324  0.3918 -0.9826
 5950TIP3    H139265   4.954   1.666   1.130 -0.4475  0.2345 -1.4953
 5950TIP3    H239266   4.998   1.803   1.083 -0.0517  0.3461 -0.8154
 5951TIP3   OH239267   3.389   1.647  17.047 -0.2876 -0.3925  0.0765
 5951TIP3    H139268   3.408   1.575  16.986 -0.3977  0.7713 -1.3756
 5951TIP3    H239269   3.294   1.658  17.041 -0.5306 -1.2422  1.6410
 5952TIP3   OH239270   0.322   3.628  15.868  0.5595 -0.5297 -0.3380
 5952TIP3    H139271   0.238   3.583  15.868 -0.0927  0.6420 -0.3400
 5952TIP3    H239272   0.309   3.704  15.925  1.3414  0.1485 -1.0308
 5953TIP3   OH239273   4.269   0.437   4.434  0.3932 -0.1606 -0.7291
 5953TIP3    H139274   4.192   0.386   4.409 -0.9389  1.3110  0.1774
 5953TIP3    H239275   4.343   0.386   4.401 -0.8998 -2.1104 -0.8067
 5954TIP3   OH239276   4.202   1.416   2.934  0.7020 -0.5868  0.4698
 5954TIP3    H139277   4.258   1.364   2.992  0.3984 -0.6026  0.7494
 5954TIP3    H239278   4.213   1.376   2.847  0.4942 -1.0991  0.6750
 5955TIP3   OH239279   2.861   1.132   2.581  0.1778  0.1513  0.1712
 5955TIP3    H139280   2.825   1.210   2.538  1.4840  0.5145 -0.3264
 5955TIP3    H239281   2.956   1.141   2.570  0.4908 -0.3222  2.1693
 5956TIP3   OH239282   5.922   0.434  12.241  0.5146  0.4758  0.2267
 5956TIP3    H139283   5.860   0.377  12.287  0.6006 -1.1024 -1.4923
 5956TIP3    H239284   5.872   0.470  12.168  1.3380 -0.0686 -0.6319
 5957TIP3   OH239285   1.136   6.641   3.032 -0.0417  0.2075  0.6391
 5957TIP3    H139286   1.046   6.634   3.063 -0.1720 -0.3478  0.1517
 5957TIP3    H239287   1.189   6.634   3.112 -0.3942 -0.6494  0.8140
 5958TIP3   OH239288   1.567   5.628  12.749 -0.1183  0.0280 -0.0108
 5958TIP3    H139289   1.562   5.691  12.821  0.7521  0.0245  0.0708
 5958TIP3    H239290   1.659   5.631  12.722  0.8012 -3.5419  2.1068
 5959TIP3   OH239291   4.699   1.842   1.029 -0.2887  0.0256  0.1673
 5959TIP3    H139292   4.762   1.805   1.091 -0.6162 -0.5806  0.1457
 5959TIP3    H239293   4.744   1.918   0.992  0.1845 -0.0263  0.6196
 5960TIP3   OH239294   0.842   4.103  16.828  0.0341  0.0702 -0.1348
 5960TIP3    H139295   0.775   4.143  16.884  0.3850 -0.9806  1.0861
 5960TIP3    H239296   0.848   4.161  16.752 -0.8630  1.2328  0.6552
 5961TIP3   OH239297   6.517   0.195  13.429  0.6935 -0.4323  0.6623
 5961TIP3    H139298   6.446   0.202  13.493  0.2687  1.8445  0.0336
 5961TIP3    H239299   6.473   0.173  13.347  0.7785  0.2968  0.4151
 5962TIP3   OH239300   3.929   6.321  14.914 -0.1659  0.2076  0.3524
 5962TIP3    H139301   4.010   6.371  14.926  0.2919 -0.3417 -0.3582
 5962TIP3    H239302   3.922   6.268  14.994 -1.2303  2.1389  1.6285
 5963TIP3   OH239303   2.962   4.439   0.264 -0.4656  0.0689  0.3642
 5963TIP3    H139304   3.034   4.498   0.241 -0.8732  0.7826  0.8847
 5963TIP3    H239305   3.000   4.379   0.328 -0.3127  0.3954  0.5840
 5964TIP3   OH239306   4.408   0.410  16.567 -0.3295 -0.2794  0.2535
 5964TIP3    H139307   4.433   0.436  16.655 -1.1529  0.8111  0.1845
 5964TIP3    H239308   4.316   0.383  16.575  0.0556 -1.7756  0.0271
 5965TIP3   OH239309   4.294   0.789  14.030  0.4061 -0.2588 -0.2016
 5965TIP3    H139310   4.227   0.813  13.965  1.0954 -1.6781 -1.5060
 5965TIP3    H239311   4.268   0.836  14.109 -1.8459 -0.3519 -0.7984
 5966TIP3   OH239312   0.792   2.770  11.356 -0.0930 -0.4155  0.0159
 5966TIP3    H139313   0.707   2.761  11.313  0.1530  0.0049 -0.5798
 5966TIP3    H239314   0.774   2.757  11.449 -0.7139 -0.8915 -0.1673
 5967TIP3   OH239315   5.687   1.495  12.488 -0.1151 -0.2323  0.0897
 5967TIP3    H139316   5.660   1.424  12.545 -1.9331 -0.8914 -1.5223
 5967TIP3    H239317   5.640   1.481  12.406 -0.7028  2.9080 -0.2512
 5968TIP3   OH239318   4.083   5.591  11.410  0.4741 -0.2509 -0.4503
 5968TIP3    H139319   4.126   5.528  11.353  1.9699 -2.2840  2.6176
 5968TIP3    H239320   3.993   5.558  11.418  0.2133  0.1238 -1.6199
 5969TIP3   OH239321   6.163   3.308   4.079 -0.0858 -0.3838 -0.6463
 5969TIP3    H139322   6.119   3.378   4.127  2.2552  0.1006  0.9831
 5969TIP3    H239323   6.131   3.227   4.119 -0.4988 -0.0948 -0.3938
 5970TIP3   OH239324   3.442   1.538   3.318 -0.0639  0.1315 -0.6892
 5970TIP3    H139325   3.474   1.544   3.228 -0.6294 -0.2614 -0.9256
 5970TIP3    H239326   3.466   1.622   3.358 -2.0581  1.4030 -1.9570
 5971TIP3   OH239327   0.378   1.268   1.262 -0.4323 -0.1033  0.0441
 5971TIP3    H139328   0.425   1.249   1.343 -2.2416 -0.9563  0.9547
 5971TIP3    H239329   0.385   1.188   1.210 -2.1232 -0.8418  0.8664
 5972TIP3   OH239330   1.179   2.079   3.288  0.2780 -0.3679  0.5179
 5972TIP3    H139331   1.198   2.046   3.375  0.0762  0.3054  0.8292
 5972TIP3    H239332   1.232   2.026   3.229  1.7126  0.2560  1.2004
 5973TIP3   OH239333   1.471   2.747   0.035  0.1243 -0.3089 -0.1836
 5973TIP3    H139334   1.394   2.771  -0.017 -1.1063 -1.8025  0.8482
 5973TIP3    H239335   1.454   2.657   0.063  1.9604 -0.4535  0.6375
 5974TIP3   OH239336   2.470   4.488  10.617 -0.1838 -0.1979  0.2228
 5974TIP3    H139337   2.495   4.396  10.612 -0.5192 -0.2393 -0.9724
 5974TIP3    H239338   2.375   4.488  10.608 -0.0469  0.3555 -1.7900
 5975TIP3   OH239339   6.757   5.133   0.340  0.3096  0.2640 -0.0503
 5975TIP3    H139340   6.685   5.111   0.281  0.5764  0.0416 -0.2922
 5975TIP3    H239341   6.827   5.072   0.317  0.7572  0.8096 -0.1560
 5976TIP3   OH239342   4.061   1.103  16.372 -0.0685  0.2005 -0.3637
 5976TIP3    H139343   4.053   1.014  16.407  1.1688  0.2784  0.1776
 5976TIP3    H239344   4.115   1.092  16.293 -1.1206  0.2982 -1.1178
 5977TIP3   OH239345   5.350   0.287   3.291 -0.1369 -0.1689 -0.2524
 5977TIP3    H139346   5.377   0.350   3.359  1.9665 -1.6306  0.3634
 5977TIP3    H239347   5.394   0.206   3.315 -0.9343 -1.2736 -2.3066
 5978TIP3   OH239348   5.772   3.358   3.591  0.2807  0.0904  0.0150
 5978TIP3    H139349   5.857   3.399   3.578  0.8223 -1.1783 -0.6879
 5978TIP3    H239350   5.758   3.358   3.686  1.4544 -0.4203  0.1975
 5979TIP3   OH239351   4.003   6.136  11.235 -0.1453  0.9894  0.2978
 5979TIP3    H139352   4.094   6.158  11.214 -0.1216  0.3871 -0.2572
 5979TIP3    H239353   3.963   6.114  11.151 -0.0350 -1.5727  0.8255
 5980TIP3   OH239354   5.242   6.305  16.504 -0.5101 -0.5062 -0.1651
 5980TIP3    H139355   5.214   6.223  16.465 -0.6803  0.1349 -1.4419
 5980TIP3    H239356   5.213   6.372  16.442 -1.7640  0.6521  1.5914
 5981TIP3   OH239357   6.142   3.675   0.419  0.2776 -0.6040  0.0061
 5981TIP3    H139358   6.112   3.683   0.509  0.0723  0.6543 -0.1565
 5981TIP3    H239359   6.062   3.664   0.368  0.2001  0.7037 -0.2084
 5982TIP3   OH239360   4.794   4.439   4.540 -0.3502 -0.3122  0.1090
 5982TIP3    H139361   4.793   4.345   4.558  2.3629 -0.0480  2.3217
 5982TIP3    H239362   4.886   4.458   4.519 -0.8084  1.8747 -0.0820
 5983TIP3   OH239363   0.095   0.511  12.451 -0.0331 -0.9910  0.3251
 5983TIP3    H139364   0.168   0.470  12.498  1.2907 -1.1982 -1.7585
 5983TIP3    H239365   0.135   0.585  12.406 -0.7808 -1.8207 -1.8460
 5984TIP3   OH239366   2.286   3.287  11.882  0.1298  0.1894 -0.4939
 5984TIP3    H139367   2.303   3.198  11.852 -0.4375 -0.2516  0.4411
 5984TIP3    H239368   2.191   3.295  11.881  0.2064  1.2540 -1.8250
 5985TIP3   OH239369   3.968   3.888  11.451 -0.4405  0.3940 -0.7223
 5985TIP3    H139370   3.919   3.843  11.382  0.8845  1.8515 -2.7420
 5985TIP3    H239371   4.059   3.881  11.423  0.2211  0.4308  1.2901
 5986TIP3   OH239372   4.172   5.099   1.639 -0.1019 -0.8228  0.4655
 5986TIP3    H139373   4.096   5.042   1.625 -2.4089  1.5874  2.1881
 5986TIP3    H239374   4.189   5.139   1.554 -3.6433  1.7771  0.7681
 5987TIP3   OH239375   4.289   6.350  14.471  0.8021  0.5645 -0.1736
 5987TIP3    H139376   4.305   6.308  14.556  0.9788  0.7904 -0.0945
 5987TIP3    H239377   4.290   6.444  14.490 -2.1308  0.6442  0.1300
 5988TIP3   OH239378   1.168   0.255  15.772  0.5131 -0.9127  0.6456
 5988TIP3    H139379   1.146   0.336  15.727 -1.4705 -2.2351 -0.9357
 5988TIP3    H239380   1.119   0.259  15.854  1.1467 -0.1558  1.0039
 5989TIP3   OH239381   0.328   0.985  11.866 -0.2080  0.4747  0.5449
 5989TIP3    H139382   0.418   0.956  11.880 -0.9970 -2.1631  0.6698
 5989TIP3    H239383   0.284   0.969  11.949 -1.1826  0.1717 -0.0181
 5990TIP3   OH239384   3.818   2.587   6.543 -0.3345  0.3518 -0.4496
 5990TIP3    H139385   3.886   2.519   6.532 -0.2835  0.4342 -0.6394
 5990TIP3    H239386   3.805   2.622   6.455 -0.0532  0.8836 -0.2780
 5991TIP3   OH239387   5.175   0.623   0.181 -0.5132  0.1620  0.1084
 5991TIP3    H139388   5.190   0.528   0.177 -2.7618 -0.2423 -0.1805
 5991TIP3    H239389   5.203   0.655   0.095  0.1935 -0.2399  0.1807
 5992TIP3   OH239390   3.715   4.709   2.325  0.2106  0.0142  0.0240
 5992TIP3    H139391   3.728   4.654   2.402 -0.6768  1.3041  1.1323
 5992TIP3    H239392   3.759   4.791   2.347 -2.1697  1.2924  0.2268
 5993TIP3   OH239393   4.321   1.284   4.911  0.7012  0.0731 -0.9575
 5993TIP3    H139394   4.409   1.279   4.873  0.5345  0.5406 -1.4179
 5993TIP3    H239395   4.285   1.196   4.898  0.7891  0.1198 -1.5492
 5994TIP3   OH239396   6.046   5.163   6.809 -0.0775  0.2602 -1.0759
 5994TIP3    H139397   6.128   5.173   6.759  0.6656 -0.7228 -0.1038
 5994TIP3    H239398   5.987   5.227   6.770  1.7379  2.3521 -0.6021
 5995TIP3   OH239399   4.331   0.856   6.087 -0.9656  0.3735  0.3645
 5995TIP3    H139400   4.275   0.882   6.014 -0.0503  0.3824 -0.3495
 5995TIP3    H239401   4.330   0.931   6.146  1.5020  2.1309 -1.5854
 5996TIP3   OH239402   0.314   0.134   3.496 -0.2861 -0.0489  0.3344
 5996TIP3    H139403   0.291   0.134   3.403  0.5255  0.6092  0.1152
 5996TIP3    H239404   0.287   0.048   3.528 -0.3400 -0.3807 -0.5758
 5997TIP3   OH239405   0.503   4.371  12.194 -0.2963  0.2008 -0.3949
 5997TIP3    H139406   0.544   4.356  12.109 -0.3254  0.2250 -0.4128
 5997TIP3    H239407   0.574   4.359  12.257 -0.2593  0.2494 -0.4271
 5998TIP3   OH239408   6.014   1.746  11.885 -0.1801 -0.0623  0.2416
 5998TIP3    H139409   6.078   1.757  11.814  0.2559  0.4596  0.7136
 5998TIP3    H239410   5.933   1.784  11.850  0.0338  0.2026  0.0271
 5999TIP3   OH239411   4.651   2.987   6.247  0.5727 -0.0168 -0.2520
 5999TIP3    H139412   4.702   2.926   6.300  0.6848 -0.2104 -0.5777
 5999TIP3    H239413   4.700   2.996   6.165 -0.7386 -1.5602 -1.2875
 6000TIP3   OH239414   4.754   0.757  12.792 -0.4918  0.6833 -0.0458
 6000TIP3    H139415   4.698   0.679  12.785 -0.0123 -0.2727  3.9296
 6000TIP3    H239416   4.746   0.784  12.884  3.2777  2.2456  0.0314
 6001TIP3   OH239417   4.319   1.661   4.104 -0.0866  0.2080  0.0082
 6001TIP3    H139418   4.345   1.644   4.014  0.5019  0.1098  0.1929
 6001TIP3    H239419   4.356   1.748   4.124  0.0848  0.0779  0.2637
 6002TIP3   OH239420   1.339   5.013  14.675 -0.5718  0.1777  0.3923
 6002TIP3    H139421   1.338   5.103  14.708  0.3580 -0.7746  3.4131
 6002TIP3    H239422   1.406   4.970  14.728 -0.9609 -2.2952 -1.0116
 6003TIP3   OH239423   0.496   3.177   2.332  0.2669 -0.3157  0.2592
 6003TIP3    H139424   0.428   3.224   2.381 -1.7038 -1.5623 -1.1542
 6003TIP3    H239425   0.552   3.246   2.297 -1.6864  0.9365 -0.5335
 6004TIP3   OH239426   2.962   0.079  13.543  0.4964  0.4985 -0.2240
 6004TIP3    H139427   2.915   0.120  13.471 -0.2224 -0.6481 -0.4370
 6004TIP3    H239428   2.921   0.114  13.622  1.7033  2.2432 -0.3224
 6005TIP3   OH239429   4.185   1.138  13.222 -0.1967  0.1000  0.5023
 6005TIP3    H139430   4.172   1.221  13.269  1.4963  0.6447  0.0871
 6005TIP3    H239431   4.244   1.088  13.278 -1.4379 -0.9847  0.8864
 6006TIP3   OH239432   2.744   4.693   3.013 -0.1618  0.4844 -0.0237
 6006TIP3    H139433   2.821   4.744   2.991  0.4650 -1.0525 -1.6017
 6006TIP3    H239434   2.759   4.665   3.104  1.4605 -0.3228 -0.5078
 6007TIP3   OH239435   3.968   0.733  12.769 -0.0671 -0.3773 -0.2792
 6007TIP3    H139436   3.925   0.732  12.854 -0.0442 -1.8100 -0.2507
 6007TIP3    H239437   3.958   0.643  12.736  1.8846 -0.4688 -0.7777
 6008TIP3   OH239438   0.552   4.583  15.311  0.1999  0.2537 -0.0700
 6008TIP3    H139439   0.630   4.530  15.330 -1.2513 -2.4446 -1.0703
 6008TIP3    H239440   0.479   4.529  15.341 -1.4424  1.2807 -2.0003
 6009TIP3   OH239441   0.680   4.411   5.841 -1.0958 -0.2721  0.1037
 6009TIP3    H139442   0.620   4.353   5.794  0.8773  0.0698 -3.1326
 6009TIP3    H239443   0.651   4.499   5.818 -0.9602 -0.0485  0.7638
 6010TIP3   OH239444   6.146   3.212  11.297 -0.6678 -0.7776  1.0880
 6010TIP3    H139445   6.188   3.245  11.217 -0.2717 -0.1729  1.5365
 6010TIP3    H239446   6.102   3.132  11.269 -3.6746  1.2383 -0.6195
 6011TIP3   OH239447   0.564   3.725  15.804  0.0826 -0.4278  0.1239
 6011TIP3    H139448   0.563   3.820  15.818  1.0167 -0.4521  0.3969
 6011TIP3    H239449   0.474   3.697  15.823  0.1767  0.1898  1.5898
 6012TIP3   OH239450   5.243   3.696   5.150  0.4992  0.0954 -0.2600
 6012TIP3    H139451   5.251   3.738   5.236  0.7559  2.1901 -1.2687
 6012TIP3    H239452   5.332   3.668   5.129  0.2772 -1.3287  0.5479
 6013TIP3   OH239453   0.629   4.395   0.101 -0.3061 -0.1923 -0.3880
 6013TIP3    H139454   0.592   4.436   0.023  1.1652  0.0601 -0.9733
 6013TIP3    H239455   0.632   4.466   0.165  0.9135  0.2806 -0.9482
 6014TIP3   OH239456   3.902   2.964   4.885 -0.0703  0.1004  0.3125
 6014TIP3    H139457   3.832   3.024   4.860 -1.2424 -0.5539  1.7941
 6014TIP3    H239458   3.915   2.909   4.808 -2.7558 -1.1445  0.6320
 6015TIP3   OH239459   2.786   4.278   0.512 -0.3579 -0.5361  0.6159
 6015TIP3    H139460   2.711   4.320   0.468  0.5221  0.6779  0.2153
 6015TIP3    H239461   2.775   4.185   0.494 -1.4532 -0.3245  0.0721
 6016TIP3   OH239462   3.762   6.516   5.738  0.8007 -0.2554 -0.2824
 6016TIP3    H139463   3.806   6.593   5.774  0.1369 -0.5671  1.2778
 6016TIP3    H239464   3.817   6.442   5.763  0.9874 -0.3815 -1.0312
 6017TIP3   OH239465   1.773   0.514   4.916 -0.0875  0.0082  0.0471
 6017TIP3    H139466   1.799   0.534   5.006  1.2742  1.1262 -0.5432
 6017TIP3    H239467   1.760   0.419   4.915  2.6557 -0.4500  0.7863
 6018TIP3   OH239468   0.915   1.345   0.565 -0.5125 -0.6755  0.0821
 6018TIP3    H139469   0.861   1.278   0.608  1.0539 -1.5833  0.6958
 6018TIP3    H239470   0.858   1.381   0.497 -1.6186 -2.1853  0.1536
 6019TIP3   OH239471   2.623   2.793  14.141 -0.0440 -0.3788 -0.6368
 6019TIP3    H139472   2.589   2.874  14.103  1.5736 -0.7005 -2.9514
 6019TIP3    H239473   2.629   2.733  14.067 -1.6075 -2.8099  1.0903
 6020TIP3   OH239474   5.841   4.953   2.477 -0.7448  0.2310  0.1141
 6020TIP3    H139475   5.903   4.941   2.405 -0.9379 -0.0274 -0.0084
 6020TIP3    H239476   5.758   4.920   2.443 -1.0846  1.1155  0.0718
 6021TIP3   OH239477   1.389   2.216   4.583 -0.3863  0.2220  0.2348
 6021TIP3    H139478   1.347   2.157   4.520 -0.6712 -0.2677  0.8847
 6021TIP3    H239479   1.455   2.162   4.627 -0.8893  0.2822  1.0793
 6022TIP3   OH239480   3.271   1.121  14.789  0.4071  0.2007 -0.1003
 6022TIP3    H139481   3.285   1.199  14.842  1.5237 -0.9142  1.3400
 6022TIP3    H239482   3.351   1.113  14.736  0.0223  0.3825 -0.7106
 6023TIP3   OH239483   0.378   4.917  13.088  0.2700  0.3803  0.0006
 6023TIP3    H139484   0.297   4.968  13.095  1.1357  1.6294  1.4936
 6023TIP3    H239485   0.440   4.977  13.045  1.3262  0.6734  1.8619
 6024TIP3   OH239486   0.897   5.493   3.402 -0.0478 -0.0645  0.1246
 6024TIP3    H139487   0.944   5.426   3.453 -1.3776 -1.5285 -0.5046
 6024TIP3    H239488   0.819   5.512   3.454 -0.2932  0.0831 -0.2954
 6025TIP3   OH239489   2.656   3.247   3.550  0.2080 -0.1851 -0.2816
 6025TIP3    H139490   2.715   3.281   3.483  1.4302  0.1866  0.9433
 6025TIP3    H239491   2.699   3.169   3.583 -2.0873 -2.5371 -2.3419
 6026TIP3   OH239492   4.878   6.697  12.737  1.1413 -0.3332  0.2503
 6026TIP3    H139493   4.847   6.682  12.647 -0.0697 -1.8383  0.8739
 6026TIP3    H239494   4.859   6.616  12.783  2.0823  0.2816  1.8036
 6027TIP3   OH239495   6.744   5.628   6.087  0.2177 -0.2735  0.4310
 6027TIP3    H139496   6.717   5.659   6.174 -1.9071 -1.4571  0.2786
 6027TIP3    H239497   6.839   5.632   6.088  0.4065 -2.0425  3.5562
 6028TIP3   OH239498   4.659   2.777   2.263  0.0447 -0.7049  0.0698
 6028TIP3    H139499   4.644   2.829   2.342  0.6348 -0.3567 -0.0443
 6028TIP3    H239500   4.721   2.709   2.290  0.9284 -0.0588 -0.3005
 6029TIP3   OH239501   3.518   2.479  12.255 -0.0207 -0.3371 -0.2818
 6029TIP3    H139502   3.485   2.417  12.191  1.3096 -2.0853  0.6257
 6029TIP3    H239503   3.526   2.561  12.207  0.7316 -1.5282 -2.3107
 6030TIP3   OH239504   6.054   5.481  12.287  0.0370 -0.3125  0.0318
 6030TIP3    H139505   6.008   5.551  12.241 -2.5621 -0.8001  1.6780
 6030TIP3    H239506   6.061   5.410  12.223  0.9068  0.6899 -1.0347
 6031TIP3   OH239507   0.652   4.502  14.202 -0.4867  0.2972  0.2216
 6031TIP3    H139508   0.576   4.533  14.251  0.3482  1.3705  0.8996
 6031TIP3    H239509   0.717   4.484  14.269  0.0588 -0.0177 -0.3849
 6032TIP3   OH239510   1.219   3.053   0.985 -0.3184 -0.0373  0.3903
 6032TIP3    H139511   1.296   3.106   0.964 -0.6041  0.1919 -0.0906
 6032TIP3    H239512   1.146   3.115   0.987 -0.8141 -0.5348 -1.1324
 6033TIP3   OH239513   3.669   6.270  14.214  0.6367 -0.1740  0.3663
 6033TIP3    H139514   3.720   6.299  14.138  0.2121  0.7432  0.4239
 6033TIP3    H239515   3.668   6.345  14.273  0.8970 -0.8450  1.2645
 6034TIP3   OH239516   3.643   0.582   6.044  0.4565 -0.0255  0.1846
 6034TIP3    H139517   3.606   0.617   6.125  0.6672  1.1663 -0.2109
 6034TIP3    H239518   3.717   0.528   6.072  0.1306 -0.1444  0.8189
 6035TIP3   OH239519   0.560   5.018   3.256 -0.6009 -0.9577  1.0970
 6035TIP3    H139520   0.622   5.089   3.273 -2.3276  0.9470  0.0349
 6035TIP3    H239521   0.496   5.057   3.196 -1.0810 -3.7784 -0.3858
 6036TIP3   OH239522   3.088   0.672   2.515  0.5245 -0.2102 -0.2900
 6036TIP3    H139523   3.002   0.692   2.553 -0.3834 -0.7836 -1.9237
 6036TIP3    H239524   3.148   0.675   2.589 -0.9546 -0.1241  0.9656
 6037TIP3   OH239525   4.081   5.812   1.749  0.4044 -0.2378 -0.3123
 6037TIP3    H139526   4.066   5.720   1.772  0.2349 -1.1379 -3.4751
 6037TIP3    H239527   4.172   5.828   1.774  0.1611 -0.9256  1.1303
 6038TIP3   OH239528   5.790   2.515  16.467 -0.1728  0.9917  0.2751
 6038TIP3    H139529   5.788   2.571  16.389  1.2621  0.1921 -0.3619
 6038TIP3    H239530   5.714   2.457  16.456 -0.7786  1.7751  0.1824
 6039TIP3   OH239531   0.182   2.783   3.661  0.2504 -0.5056  0.1796
 6039TIP3    H139532   0.247   2.831   3.610 -1.5741  1.2626 -0.6230
 6039TIP3    H239533   0.122   2.850   3.693 -1.0685 -2.0382  1.1001
 6040TIP3   OH239534   5.115   2.491   5.530 -0.3512 -0.0556  0.1539
 6040TIP3    H139535   5.179   2.557   5.500 -0.3527  0.0529  0.3918
 6040TIP3    H239536   5.123   2.420   5.466  1.3241 -0.8687  1.2070
 6041TIP3   OH239537   3.419   1.781   2.524  0.2452 -0.3686  0.4184
 6041TIP3    H139538   3.416   1.804   2.431 -0.0263  0.6689  0.6713
 6041TIP3    H239539   3.500   1.730   2.534  0.8972  0.5357 -0.1585
 6042TIP3   OH239540   5.673   3.700   0.035 -0.3143  0.0698 -0.2746
 6042TIP3    H139541   5.687   3.610   0.005 -1.9178  0.2361 -1.6736
 6042TIP3    H239542   5.759   3.742   0.025  0.7580 -1.5367  1.4610
 6043TIP3   OH239543   1.904   4.163  16.664 -0.0925 -0.0717  0.2112
 6043TIP3    H139544   1.942   4.092  16.613  2.7202  1.3392  0.1402
 6043TIP3    H239545   1.897   4.129  16.753  0.8102 -0.5853  0.0952
 6044TIP3   OH239546   1.830   1.433   4.143 -0.1688 -0.8776 -0.1794
 6044TIP3    H139547   1.793   1.452   4.056  0.6943  2.2305 -0.0183
 6044TIP3    H239548   1.758   1.450   4.204  0.4299  1.9283 -0.0836
 6045TIP3   OH239549   6.145   2.962  11.828 -0.6353  0.1091 -0.2068
 6045TIP3    H139550   6.156   2.871  11.801  1.7272  0.1843  0.2674
 6045TIP3    H239551   6.060   2.964  11.871 -0.0971 -2.2388  1.1416
 6046TIP3   OH239552   4.591   6.411   3.181 -0.1103 -0.0082 -0.4549
 6046TIP3    H139553   4.634   6.492   3.153 -0.8560  1.2827  1.9309
 6046TIP3    H239554   4.562   6.371   3.099  1.8937  1.1563 -1.8483
 6047TIP3   OH239555   6.164   3.521  13.871 -0.7267  0.5708 -0.9155
 6047TIP3    H139556   6.155   3.533  13.776 -1.7168  0.5791 -0.8246
 6047TIP3    H239557   6.190   3.607  13.904 -0.1688  0.5175 -1.1959
 6048TIP3   OH239558   1.612   6.026  13.161  0.0989  0.5290  0.2694
 6048TIP3    H139559   1.689   6.083  13.169  0.2760  0.1336  1.5903
 6048TIP3    H239560   1.638   5.944  13.203 -0.5143 -0.1617 -0.6832
 6049TIP3   OH239561   2.803   4.051  13.200  0.1864  0.2400 -0.1643
 6049TIP3    H139562   2.897   4.055  13.184  0.2408  0.0230  0.0898
 6049TIP3    H239563   2.788   3.963  13.235  0.1729  0.9006  1.5740
 6050TIP3   OH239564   0.431   4.400   1.651  0.1168  0.4991 -0.0344
 6050TIP3    H139565   0.409   4.394   1.744  1.2714 -0.6173  0.1824
 6050TIP3    H239566   0.508   4.457   1.648  1.1984 -0.9314 -0.0972
 6051TIP3   OH239567   4.014   1.660   0.895 -0.1888  0.0978  0.0770
 6051TIP3    H139568   4.014   1.685   0.987 -1.2978  2.0252 -0.3927
 6051TIP3    H239569   4.080   1.716   0.855  0.6310 -1.0577 -0.2656
 6052TIP3   OH239570   1.939   3.535  12.770  0.4144  0.0896  0.6109
 6052TIP3    H139571   1.971   3.573  12.687 -0.0847  0.9591  0.7967
 6052TIP3    H239572   1.942   3.608  12.832 -1.2245  0.0138  0.8119
 6053TIP3   OH239573   4.708   4.592   5.411  0.0956 -0.3212 -0.2390
 6053TIP3    H139574   4.655   4.653   5.360 -1.5163 -0.9089  0.6640
 6053TIP3    H239575   4.727   4.520   5.351 -1.0589 -0.6036 -0.2814
 6054TIP3   OH239576   6.642   3.734  16.163  0.3025  0.2120  0.6288
 6054TIP3    H139577   6.694   3.792  16.218 -0.5257 -0.3886  2.0940
 6054TIP3    H239578   6.560   3.782  16.150  0.4184  0.2638  0.0609
 6055TIP3   OH239579   0.073   4.789   2.284  0.2432 -0.0669 -0.5206
 6055TIP3    H139580   0.094   4.837   2.204 -0.0050  1.1667  0.1277
 6055TIP3    H239581   0.145   4.727   2.294  1.5834  1.4473 -0.3980
 6056TIP3   OH239582   5.794   4.309  15.910 -0.4821 -0.2787 -0.5522
 6056TIP3    H139583   5.797   4.238  15.845 -0.2220  1.0720 -2.0910
 6056TIP3    H239584   5.857   4.283  15.977  1.1307 -0.5671 -2.1125
 6057TIP3   OH239585   2.053   2.777   0.234 -0.3613  0.2269 -0.2561
 6057TIP3    H139586   2.083   2.864   0.261  0.1269  0.4237 -1.3708
 6057TIP3    H239587   2.134   2.727   0.223 -0.5582  0.0620 -1.0026
 6058TIP3   OH239588   6.547   4.863   5.384 -0.2689  0.0907 -0.0290
 6058TIP3    H139589   6.476   4.920   5.415 -0.5259  0.5131 -1.3476
 6058TIP3    H239590   6.619   4.923   5.363  1.2240 -0.4372  2.9689
 6059TIP3   OH239591   6.533   2.475  17.202 -0.8345 -0.2557  0.3088
 6059TIP3    H139592   6.599   2.406  17.214  0.1542  0.3962 -1.1715
 6059TIP3    H239593   6.477   2.443  17.132 -0.8203  0.1286  0.1194
 6060TIP3   OH239594   3.929   0.812  15.619 -0.0065 -0.2910  0.6374
 6060TIP3    H139595   3.937   0.906  15.634 -1.0449 -0.2819  1.2481
 6060TIP3    H239596   3.987   0.794  15.545 -2.1019  1.3670 -1.5748
 6061TIP3   OH239597   5.965   2.879  13.830 -0.1303 -0.6215 -0.0981
 6061TIP3    H139598   6.019   2.913  13.759  1.1705 -0.1158  1.0830
 6061TIP3    H239599   5.948   2.956  13.886 -1.0956 -1.0118  0.1767
 6062TIP3   OH239600   0.087   1.383   0.026 -0.0649  0.1197 -0.6398
 6062TIP3    H139601   0.162   1.440   0.045  1.1490 -1.6038  0.1170
 6062TIP3    H239602   0.035   1.385   0.107  1.2366 -1.5916  0.3067
 6063TIP3   OH239603   2.765   3.447   0.415 -0.3324 -0.3629 -0.0020
 6063TIP3    H139604   2.763   3.543   0.409 -2.3195 -0.3515  0.0616
 6063TIP3    H239605   2.833   3.421   0.353  1.1948  1.1155  0.9473
 6064TIP3   OH239606   6.053   5.923  12.860 -0.0576 -0.5082  0.7326
 6064TIP3    H139607   5.983   5.985  12.881  0.2788  0.2698 -0.3171
 6064TIP3    H239608   6.060   5.866  12.936 -3.3742 -2.0918  0.0306
 6065TIP3   OH239609   4.291   3.476   0.788  0.0124 -0.3900 -0.1911
 6065TIP3    H139610   4.274   3.566   0.762  0.7386 -0.7143 -1.9693
 6065TIP3    H239611   4.313   3.431   0.706  1.6507 -1.7085  0.8864
 6066TIP3   OH239612   6.224   5.700  13.347 -0.6243 -0.1890  0.5132
 6066TIP3    H139613   6.131   5.681  13.343 -0.4932 -0.8026  0.2265
 6066TIP3    H239614   6.261   5.631  13.403 -0.0466 -1.2468 -1.0705
 6067TIP3   OH239615   5.599   1.158  13.042  0.0319 -0.5167 -0.2451
 6067TIP3    H139616   5.534   1.219  13.008 -2.6016 -2.4595  0.9660
 6067TIP3    H239617   5.652   1.211  13.102 -0.0003  1.2354 -1.6743
 6068TIP3   OH239618   6.076   1.669  11.151  0.1705 -0.2522  0.3947
 6068TIP3    H139619   5.980   1.675  11.151  0.2370  2.8791  0.8913
 6068TIP3    H239620   6.097   1.605  11.218 -1.5570 -1.6593 -0.3430
 6069TIP3   OH239621   5.853   0.666  15.455 -0.0844  0.5809 -0.4410
 6069TIP3    H139622   5.865   0.705  15.541  1.0413 -0.3854 -0.1327
 6069TIP3    H239623   5.794   0.592  15.471  2.7423 -1.7020  0.2090
 6070TIP3   OH239624   4.563   3.503   0.640 -0.4407 -0.0168 -0.2186
 6070TIP3    H139625   4.520   3.587   0.656  0.4403  0.3549  0.2576
 6070TIP3    H239626   4.616   3.488   0.718 -1.6074 -1.6719  0.3025
 6071TIP3   OH239627   4.168   3.914   6.176 -0.0727  0.0869 -0.3863
 6071TIP3    H139628   4.112   3.953   6.243 -0.8628 -1.4604 -0.0999
 6071TIP3    H239629   4.253   3.957   6.186 -0.4320  0.4903  1.0201
 6072TIP3   OH239630   5.463   5.521   2.046  0.0172  0.4517 -0.1822
 6072TIP3    H139631   5.485   5.531   1.954 -0.0107 -2.2604 -0.5625
 6072TIP3    H239632   5.367   5.530   2.049 -0.0208  0.1375 -0.4816
 6073TIP3   OH239633   6.226   6.693  14.249  0.2091 -0.1010  0.4996
 6073TIP3    H139634   6.291   6.626  14.224  1.3548  0.3398  2.1327
 6073TIP3    H239635   6.246   6.768  14.193  1.1553  0.0410  1.0093
 6074TIP3   OH239636   3.929   6.164  15.169  0.3651 -0.0475  0.1529
 6074TIP3    H139637   3.941   6.083  15.121  2.1248 -1.6645  3.0387
 6074TIP3    H239638   3.887   6.138  15.250 -4.3486  2.8061 -0.9842
 6075TIP3   OH239639   3.893   4.005   0.527  0.1033  0.1174  0.0654
 6075TIP3    H139640   3.899   3.956   0.445 -1.1288  0.4019 -0.2053
 6075TIP3    H239641   3.954   3.960   0.586  0.4452 -0.5441 -0.7689
 6076TIP3   OH239642   2.185   5.368   3.418  0.4128  0.3722 -0.3995
 6076TIP3    H139643   2.158   5.421   3.343  0.5283  1.4423  0.2959
 6076TIP3    H239644   2.191   5.279   3.384  1.3525  0.9762 -1.8935
 6077TIP3   OH239645   4.078   4.893  12.081  0.6074 -0.2364 -0.6437
 6077TIP3    H139646   4.039   4.939  12.156  0.9124 -1.2777  0.1789
 6077TIP3    H239647   4.163   4.936  12.068  0.4783  0.0638 -0.4911
 6078TIP3   OH239648   2.496   0.689   5.884  0.3754  0.0434  0.3995
 6078TIP3    H139649   2.511   0.721   5.795  0.8330 -1.1444  0.0318
 6078TIP3    H239650   2.582   0.692   5.926  0.3222 -0.2017  0.5300
 6079TIP3   OH239651   3.757   3.934   1.080  0.0331 -0.1081  0.7979
 6079TIP3    H139652   3.683   3.917   1.139  1.7525 -2.7992  2.3707
 6079TIP3    H239653   3.834   3.921   1.135  1.7259  0.1322 -1.4118
 6080TIP3   OH239654   3.410   6.688   1.727  0.5184  0.1457  0.0425
 6080TIP3    H139655   3.391   6.720   1.639 -0.9906  1.6145  0.8491
 6080TIP3    H239656   3.425   6.594   1.715 -0.1747  0.2134 -1.7002
 6081TIP3   OH239657   1.743   2.404  14.002 -0.1063 -0.2222  0.3674
 6081TIP3    H139658   1.797   2.348  13.947  1.1338  0.4544  0.8588
 6081TIP3    H239659   1.660   2.357  14.010  1.2302 -2.5282  1.6693
 6082TIP3   OH239660   3.554   0.271   2.529  0.8736 -0.2146  0.5122
 6082TIP3    H139661   3.467   0.288   2.491  0.8655  2.6772  1.5638
 6082TIP3    H239662   3.607   0.242   2.455 -0.3081  0.7275 -0.7539
 6083TIP3   OH239663   3.519   4.876  15.530  0.4446 -0.4112  0.4911
 6083TIP3    H139664   3.543   4.903  15.618  1.5289 -0.8235  0.3327
 6083TIP3    H239665   3.570   4.796  15.515 -0.4839 -0.9038 -0.1383
 6084TIP3   OH239666   3.784   6.777   3.317 -0.1151  0.6389 -0.3560
 6084TIP3    H139667   3.878   6.767   3.332  0.0797  0.6239 -1.5002
 6084TIP3    H239668   3.744   6.753   3.400  0.9842  2.9110  0.9266
 6085TIP3   OH239669   1.444   3.624   0.996  0.7347 -0.5574  0.3087
 6085TIP3    H139670   1.476   3.696   0.942  0.2002 -0.5517 -0.0083
 6085TIP3    H239671   1.438   3.661   1.084 -0.2553  0.0185  0.0121
 6086TIP3   OH239672   5.779   4.216   2.890 -0.2463 -0.4315  0.0574
 6086TIP3    H139673   5.816   4.161   2.958 -0.2190 -0.6990 -0.1723
 6086TIP3    H239674   5.722   4.277   2.937  1.9235  1.2732  0.6379
 6087TIP3   OH239675   0.402   5.273  12.840  0.8458 -0.3825 -0.5245
 6087TIP3    H139676   0.436   5.320  12.916  0.4951 -1.0077  0.0276
 6087TIP3    H239677   0.418   5.181  12.859 -1.3581 -0.7337 -0.1224
 6088TIP3   OH239678   6.568   2.369   2.617  0.3242  0.0159  0.1616
 6088TIP3    H139679   6.487   2.362   2.566 -0.5656 -0.0792  1.5391
 6088TIP3    H239680   6.548   2.431   2.686  1.4023 -0.0972  0.5976
 6089TIP3   OH239681   0.561   1.570   0.115  0.1721 -0.4013  0.4714
 6089TIP3    H139682   0.579   1.610   0.200 -0.7149  1.4153 -0.1451
 6089TIP3    H239683   0.571   1.476   0.131 -2.1647 -0.3465  3.2014
 6090TIP3   OH239684   0.318   4.834   5.361  0.0799  0.0776 -0.3354
 6090TIP3    H139685   0.227   4.855   5.377  0.1547 -0.0536  0.2798
 6090TIP3    H239686   0.363   4.919   5.362 -0.1486  0.2314 -1.4861
 6091TIP3   OH239687   1.842   1.500   6.070  0.1011  0.2083 -0.2317
 6091TIP3    H139688   1.808   1.431   6.127  0.2322  0.2915 -0.0529
 6091TIP3    H239689   1.780   1.504   5.997 -1.2596  1.5322  0.9260
 6092TIP3   OH239690   1.775   2.956  15.770  0.4889  0.4203  0.1546
 6092TIP3    H139691   1.821   2.966  15.687  0.5076  0.9127  0.2231
 6092TIP3    H239692   1.804   3.030  15.823  0.1218  0.3679  0.4323
 6093TIP3   OH239693   3.663   1.444  11.425  0.7598 -0.3808 -0.5263
 6093TIP3    H139694   3.698   1.421  11.339  0.5836 -0.4807 -0.5731
 6093TIP3    H239695   3.569   1.426  11.418  0.6901 -0.0660 -0.4220
 6094TIP3   OH239696   5.115   1.834  14.053  0.4313  0.2313  0.0964
 6094TIP3    H139697   5.170   1.909  14.075  0.3085  0.7195 -1.2216
 6094TIP3    H239698   5.043   1.870  14.002 -0.3158 -0.6209  0.5076
 6095TIP3   OH239699   1.324   2.426  14.959  0.7798 -0.2819 -0.0797
 6095TIP3    H139700   1.358   2.501  14.911 -3.3710  0.2123 -2.8463
 6095TIP3    H239701   1.367   2.350  14.918  1.7917  0.3864 -0.2962
 6096TIP3   OH239702   2.932   5.246   6.398  0.2903 -0.3459 -0.5061
 6096TIP3    H139703   2.950   5.239   6.492  1.6988 -1.6878 -0.8416
 6096TIP3    H239704   2.849   5.199   6.386 -0.8692  1.4005  0.2966
 6097TIP3   OH239705   3.193   1.509   0.769 -0.0649 -0.5647  0.1379
 6097TIP3    H139706   3.150   1.584   0.728 -0.7456 -0.1856  1.5102
 6097TIP3    H239707   3.196   1.443   0.699  0.9078  0.8402 -1.2120
 6098TIP3   OH239708   4.304   6.480  12.670  0.2523  0.2452  0.3809
 6098TIP3    H139709   4.396   6.506  12.673 -0.3187  2.5635 -0.1887
 6098TIP3    H239710   4.256   6.557  12.700 -1.4861 -1.3391  1.9339
 6099TIP3   OH239711   0.787   1.384   3.139 -0.5711 -0.5880 -0.3120
 6099TIP3    H139712   0.811   1.451   3.203  0.1382  1.5948 -2.7215
 6099TIP3    H239713   0.856   1.318   3.146 -0.2541 -0.1657  0.8039
 6100TIP3   OH239714   2.068   0.264  12.207  0.0281 -0.2847 -0.1574
 6100TIP3    H139715   2.086   0.353  12.236 -2.2080 -0.4288  1.9813
 6100TIP3    H239716   2.143   0.213  12.239 -0.0878  0.3686  1.2257
 6101TIP3   OH239717   2.771   0.088   5.995  0.6692  0.7562 -0.1418
 6101TIP3    H139718   2.818   0.073   6.077 -0.0276  1.6512  0.4329
 6101TIP3    H239719   2.684   0.051   6.009  0.9519 -0.2731 -0.9603
 6102TIP3   OH239720   2.233   3.944  11.549  0.2183  0.6484  0.1873
 6102TIP3    H139721   2.161   3.928  11.487  0.7748  0.8488 -0.5195
 6102TIP3    H239722   2.198   3.914  11.634 -1.4588  2.6102  0.2698
 6103TIP3   OH239723   0.865   6.703  14.365 -0.9390 -0.4093 -0.0108
 6103TIP3    H139724   0.770   6.696  14.354 -0.7996 -4.3082 -0.2972
 6103TIP3    H239725   0.880   6.682  14.457 -0.3191 -3.6089 -0.7047
 6104TIP3   OH239726   4.248   4.366  12.473  0.0131  0.2656  0.5849
 6104TIP3    H139727   4.311   4.304  12.509 -0.7853 -0.7716  0.2571
 6104TIP3    H239728   4.163   4.336  12.507 -0.3855  1.2194  0.4705
 6105TIP3   OH239729   1.491   4.589   5.784 -0.4395  0.0474 -0.3314
 6105TIP3    H139730   1.486   4.684   5.771 -1.8290 -0.1473 -1.4316
 6105TIP3    H239731   1.436   4.572   5.861 -1.5767 -0.0246 -1.1374
 6106TIP3   OH239732   1.330   2.718  13.152  0.1391 -0.4476  0.6544
 6106TIP3    H139733   1.266   2.790  13.147 -0.7797 -1.3268 -1.7761
 6106TIP3    H239734   1.415   2.761  13.144 -0.2531  0.5379  1.5322
 6107TIP3   OH239735   1.920   6.006   4.810  0.1359  0.3417  0.2918
 6107TIP3    H139736   1.831   6.040   4.819  0.9330  2.2626  1.5927
 6107TIP3    H239737   1.920   5.925   4.861 -1.5400 -1.2334 -2.0161
 6108TIP3   OH239738   6.697   6.310   4.081 -0.2330  0.0974  0.5180
 6108TIP3    H139739   6.741   6.260   4.150  1.6995  2.1788  0.9160
 6108TIP3    H239740   6.719   6.401   4.100 -2.5479  1.0388 -0.8905
 6109TIP3   OH239741   3.715   4.254  12.771 -0.1270  0.2198  0.0972
 6109TIP3    H139742   3.792   4.245  12.827  0.6574  0.7449 -0.8592
 6109TIP3    H239743   3.739   4.210  12.689 -0.1215  1.9329 -0.8805
 6110TIP3   OH239744   2.396   0.913  13.967  0.1841 -0.0435  0.0564
 6110TIP3    H139745   2.462   0.872  14.023 -0.2328 -1.3488 -0.3606
 6110TIP3    H239746   2.425   0.894  13.878  0.0464  0.7087 -0.1544
 6111TIP3   OH239747   0.334   6.696  15.379  0.2177 -0.0700  0.1874
 6111TIP3    H139748   0.310   6.605  15.361  2.1514 -0.7426  0.8229
 6111TIP3    H239749   0.317   6.707  15.472  1.7302 -0.3796  0.5187
 6112TIP3   OH239750   5.705   2.515   0.601 -0.5909 -0.1138 -0.0598
 6112TIP3    H139751   5.697   2.540   0.693 -0.1890 -2.7010  0.7408
 6112TIP3    H239752   5.746   2.591   0.559 -0.1722  0.8686  2.0007
 6113TIP3   OH239753   3.887   2.968  15.425 -0.4488  0.1877 -0.3374
 6113TIP3    H139754   3.893   2.946  15.518 -0.7305 -3.5059 -1.0367
 6113TIP3    H239755   3.798   3.001  15.414 -0.8590 -0.5841  0.5146
 6114TIP3   OH239756   1.050   3.971  12.960  0.6096  0.5320 -0.0302
 6114TIP3    H139757   1.023   4.060  12.939 -1.2598 -0.0525 -0.2940
 6114TIP3    H239758   1.127   3.956  12.905  0.5045  1.7385 -0.5375
 6115TIP3   OH239759   0.153   1.844  13.067  0.1688  0.6443  0.5610
 6115TIP3    H139760   0.168   1.918  13.126 -0.3155 -0.3309  1.9590
 6115TIP3    H239761   0.173   1.767  13.120  0.0197 -0.2600 -0.6569
 6116TIP3   OH239762   1.339   1.442   3.765 -0.4074 -0.4633 -0.0243
 6116TIP3    H139763   1.320   1.403   3.680  0.7157 -1.2455  0.0680
 6116TIP3    H239764   1.373   1.370   3.818  2.4356  0.7198 -0.0747
 6117TIP3   OH239765   3.730   5.511  16.092 -0.8149 -0.0974 -0.0264
 6117TIP3    H139766   3.762   5.427  16.125  0.1636  0.1989 -0.1872
 6117TIP3    H239767   3.809   5.558  16.067 -1.3290  1.0156  0.3894
 6118TIP3   OH239768   2.117   5.467  12.354  0.9733 -0.0884 -0.0013
 6118TIP3    H139769   2.069   5.455  12.272  1.9904 -1.1244 -0.4687
 6118TIP3    H239770   2.059   5.520  12.408  0.3066  0.6536 -1.4062
 6119TIP3   OH239771   4.316   5.260   2.835 -0.1192  0.5373  0.7625
 6119TIP3    H139772   4.295   5.311   2.913 -0.0289  0.6312  0.7256
 6119TIP3    H239773   4.400   5.295   2.805  0.8551 -0.8529  1.7767
 6120TIP3   OH239774   5.199   4.243  11.793 -0.4476 -0.7013  0.1252
 6120TIP3    H139775   5.211   4.150  11.775 -0.8621 -0.3877 -2.0711
 6120TIP3    H239776   5.214   4.286  11.709  0.1113  1.2704  1.1741
 6121TIP3   OH239777   6.264   4.813  12.939 -0.2197  1.0838  0.2993
 6121TIP3    H139778   6.287   4.739  12.995 -1.2233  0.3954 -0.1769
 6121TIP3    H239779   6.251   4.774  12.852 -0.3236  1.8874 -0.0549
 6122TIP3   OH239780   2.557   1.065   0.595  0.4788  0.0943 -0.1878
 6122TIP3    H139781   2.498   1.040   0.666 -0.3493  0.6988 -0.6479
 6122TIP3    H239782   2.608   1.138   0.631  1.4420 -0.8370  0.4333
 6123TIP3   OH239783   1.561   5.219   5.987  0.2487 -0.4045  0.0292
 6123TIP3    H139784   1.466   5.230   5.995  0.3043 -0.4508  0.8275
 6123TIP3    H239785   1.591   5.303   5.951 -0.1674 -0.6507 -0.9398
 6124TIP3   OH239786   2.154   6.571   5.148 -0.7840 -0.4844 -0.0752
 6124TIP3    H139787   2.097   6.613   5.212 -0.6566  0.4876 -0.5835
 6124TIP3    H239788   2.094   6.526   5.088 -0.9154 -1.1339  0.5265
 6125TIP3   OH239789   2.935   5.263  10.378 -0.2976 -0.1946 -0.4042
 6125TIP3    H139790   2.983   5.306  10.449  1.9978 -1.8587 -0.8631
 6125TIP3    H239791   2.927   5.172  10.407 -1.6945 -0.3325 -1.1442
 6126TIP3   OH239792   1.282   5.633   4.129  0.3356 -0.4415  0.2385
 6126TIP3    H139793   1.275   5.718   4.172  0.8835  0.6131 -1.6202
 6126TIP3    H239794   1.203   5.627   4.075  0.9620 -0.4538 -0.6981
 6127TIP3   OH239795   0.367   3.691  17.203  0.2011  0.3724 -0.0957
 6127TIP3    H139796   0.278   3.689  17.166 -0.2677 -1.3439  0.9788
 6127TIP3    H239797   0.424   3.703  17.127 -0.9108  1.1106 -0.8584
 6128TIP3   OH239798   0.529   2.574  14.782  0.4256 -0.2367 -0.5899
 6128TIP3    H139799   0.597   2.638  14.800 -0.3825  0.6222 -0.4859
 6128TIP3    H239800   0.448   2.615  14.815  0.0172 -1.6946  0.3479
 6129TIP3   OH239801   1.406   0.288  11.059  0.7655  0.7681  0.1323
 6129TIP3    H139802   1.376   0.350  10.992  2.2232 -0.3667 -1.6767
 6129TIP3    H239803   1.327   0.261  11.105 -0.0822  2.7889 -0.0520
 6130TIP3   OH239804   5.564   1.196   0.919  0.2791 -0.3744  0.6731
 6130TIP3    H139805   5.581   1.263   0.852  1.1514 -0.8492  0.4075
 6130TIP3    H239806   5.506   1.239   0.981  0.6381  0.5636  0.3824
 6131TIP3   OH239807   0.647   4.491  14.974  0.2975 -0.3322  0.1409
 6131TIP3    H139808   0.613   4.580  14.969 -0.6277 -0.7347 -1.7175
 6131TIP3    H239809   0.638   4.466  15.066  0.4609  1.4290  0.6569
 6132TIP3   OH239810   2.695   3.272   1.081 -0.3484  0.1665 -0.1422
 6132TIP3    H139811   2.643   3.320   1.145 -1.7848  0.7446 -1.6398
 6132TIP3    H239812   2.709   3.186   1.120 -1.3841  0.4197  0.8432
 6133TIP3   OH239813   2.485   4.336   6.249  0.3286 -0.1061  0.8454
 6133TIP3    H139814   2.532   4.413   6.279  2.3977 -0.7914 -0.4477
 6133TIP3    H239815   2.393   4.364   6.247  1.0149  2.3664  0.2602
 6134TIP3   OH239816   1.568   2.894  13.123 -0.4042 -0.2434 -0.3641
 6134TIP3    H139817   1.546   2.969  13.067 -0.2152  0.1120  0.0300
 6134TIP3    H239818   1.631   2.844  13.071  0.1563  0.3524 -0.2736
 6135TIP3   OH239819   2.269   3.064   2.062  0.4618  0.2535  0.6425
 6135TIP3    H139820   2.260   2.976   2.098 -0.0866  0.3658  0.7952
 6135TIP3    H239821   2.364   3.078   2.054  0.5354 -0.5866  0.0122
 6136TIP3   OH239822   3.191   1.453   3.498 -0.3371 -0.4729 -0.3842
 6136TIP3    H139823   3.286   1.456   3.484 -0.4437  3.6362 -1.2270
 6136TIP3    H239824   3.160   1.387   3.436  1.8061 -0.8281 -1.1591
 6137TIP3   OH239825   1.072   4.889   3.584  0.1842  0.0813 -1.0304
 6137TIP3    H139826   1.089   4.837   3.504 -2.4810 -0.3539 -1.4134
 6137TIP3    H239827   1.035   4.826   3.645 -0.9411  1.0630 -0.6670
 6138TIP3   OH239828   6.116   1.786   2.737 -0.4254  0.1027 -0.3754
 6138TIP3    H139829   6.200   1.793   2.782 -1.0037  0.6964  0.6466
 6138TIP3    H239830   6.120   1.851   2.667 -0.1000  0.2456 -0.2224
 6139TIP3   OH239831   3.142   4.572   2.051 -0.3310 -0.0223 -0.1105
 6139TIP3    H139832   3.122   4.501   1.990  2.4268 -0.1799 -0.9998
 6139TIP3    H239833   3.097   4.648   2.016 -1.7202 -0.8861 -0.2701
 6140TIP3   OH239834   2.421   1.318   5.816 -0.7303  0.1163 -0.1789
 6140TIP3    H139835   2.499   1.364   5.847 -1.3928  0.5988  0.8290
 6140TIP3    H239836   2.435   1.227   5.839  0.7277 -0.3005 -2.4503
 6141TIP3   OH239837   6.443   6.344   1.393  0.2701  0.2631  0.2019
 6141TIP3    H139838   6.417   6.252   1.404  0.3929  0.4158  2.1023
 6141TIP3    H239839   6.537   6.341   1.374  0.0646 -0.0213 -0.8668
 6142TIP3   OH239840   0.583   3.078   5.348 -0.2082  0.5849 -0.3550
 6142TIP3    H139841   0.672   3.108   5.364  0.6160 -0.4924 -2.5614
 6142TIP3    H239842   0.531   3.159   5.346  0.5762  1.1868  1.4375
 6143TIP3   OH239843   4.419   0.414  15.864  0.3012  0.2471 -0.3865
 6143TIP3    H139844   4.444   0.506  15.871  0.4799  0.5825 -3.7243
 6143TIP3    H239845   4.325   0.416  15.845  0.2606 -0.2650 -0.2474
 6144TIP3   OH239846   3.344   1.855   2.264 -0.2108 -0.4065 -0.0936
 6144TIP3    H139847   3.293   1.872   2.185 -0.4696 -0.6432  0.0227
 6144TIP3    H239848   3.368   1.942   2.296  0.6575 -0.3155 -0.9194
 6145TIP3   OH239849   3.482   2.472  14.522 -0.2097  0.2514  0.4432
 6145TIP3    H139850   3.413   2.475  14.456  2.0445 -0.8587 -2.1325
 6145TIP3    H239851   3.519   2.384  14.515  1.8860  0.9980  1.2394
 6146TIP3   OH239852   4.438   3.312   4.053  0.4595 -0.4849  0.6028
 6146TIP3    H139853   4.460   3.312   3.960  0.4990  0.1895  0.6058
 6146TIP3    H239854   4.413   3.403   4.071 -2.9692 -1.2379  0.4368
 6147TIP3   OH239855   6.720   0.949   2.605  0.7308 -0.0854  0.5508
 6147TIP3    H139856   6.656   0.989   2.664 -0.1590  0.2687 -0.6253
 6147TIP3    H239857   6.800   0.999   2.619 -0.6135  3.0056 -1.6798
 6148TIP3   OH239858   0.215   6.371  16.380  0.3015 -0.2216 -0.3131
 6148TIP3    H139859   0.254   6.306  16.439 -0.2239 -0.9972 -0.8021
 6148TIP3    H239860   0.153   6.321  16.327  1.1841  0.3340 -1.9507
 6149TIP3   OH239861   4.755   3.475  16.998 -0.4910 -0.1918  0.1437
 6149TIP3    H139862   4.712   3.424  16.929 -1.2409 -0.8084  1.0385
 6149TIP3    H239863   4.831   3.513  16.955 -0.2983 -1.4920 -0.7353
 6150TIP3   OH239864   6.367   0.363  11.422 -0.3057  0.6854  0.6883
 6150TIP3    H139865   6.282   0.330  11.395 -0.6267  1.1040  1.1817
 6150TIP3    H239866   6.430   0.307  11.377 -0.8442 -0.0877  0.8840
 6151TIP3   OH239867   4.767   6.457  17.192  0.4112  0.1879  0.4633
 6151TIP3    H139868   4.721   6.450  17.108 -0.9837 -0.4123  1.2459
 6151TIP3    H239869   4.820   6.536  17.184  0.2282  0.1939 -0.9457
 6152TIP3   OH239870   5.205   6.633  11.501  0.1623 -0.3685 -0.0983
 6152TIP3    H139871   5.138   6.699  11.519 -0.1771 -1.1842  1.8910
 6152TIP3    H239872   5.195   6.569  11.570  1.2587 -1.9301 -1.3086
 6153TIP3   OH239873   0.801   2.821  12.962  0.8190  0.3785 -0.3444
 6153TIP3    H139874   0.870   2.884  12.942  1.2361 -0.4780 -1.7446
 6153TIP3    H239875   0.736   2.833  12.892  0.1842  0.2643  0.2124
 6154TIP3   OH239876   3.968   1.750  14.779  0.2949 -0.1469  0.0248
 6154TIP3    H139877   4.036   1.711  14.834 -0.4449 -0.4754  0.7221
 6154TIP3    H239878   3.977   1.705  14.694  0.0580 -1.1975  0.5331
 6155TIP3   OH239879   2.512   4.402   3.969 -0.7399  1.0177 -0.3367
 6155TIP3    H139880   2.596   4.377   4.007 -1.0584  0.9545  0.3351
 6155TIP3    H239881   2.525   4.394   3.874 -0.3956 -0.3003 -0.1911
 6156TIP3   OH239882   4.867   2.325  15.720 -0.0394 -0.4402  0.9257
 6156TIP3    H139883   4.950   2.370  15.703 -1.3979  2.4372  1.4291
 6156TIP3    H239884   4.831   2.369  15.797 -2.7957 -0.4782 -0.2430
 6157TIP3   OH239885   5.982   0.090  16.964 -0.2846  0.0778 -0.2805
 6157TIP3    H139886   5.933   0.064  16.886 -0.3766 -1.7077  0.3304
 6157TIP3    H239887   5.918   0.133  17.020 -0.5198  0.1813 -0.6264
 6158TIP3   OH239888   3.198   3.703   5.958  0.4906  0.5622 -0.3973
 6158TIP3    H139889   3.181   3.625   5.904 -0.7452  0.1449  0.5636
 6158TIP3    H239890   3.262   3.753   5.907  1.2043 -0.9970 -1.1146
 6159TIP3   OH239891   4.270   0.750   5.731 -0.1504 -0.3614  0.6521
 6159TIP3    H139892   4.348   0.721   5.778 -0.7978 -0.3971  1.7257
 6159TIP3    H239893   4.197   0.716   5.782 -0.8891  0.7381  0.3641
 6160TIP3   OH239894   5.227   6.073  11.391  0.6973  0.5371  0.3813
 6160TIP3    H139895   5.151   6.016  11.392  0.6043  0.6543  1.6652
 6160TIP3    H239896   5.192   6.160  11.377  0.7960  0.3641 -1.0840
 6161TIP3   OH239897   5.039   0.739  11.609 -0.4962 -0.1190 -0.4899
 6161TIP3    H139898   5.125   0.769  11.581  0.1009  0.4479  1.6911
 6161TIP3    H239899   4.999   0.702  11.531  0.9997  1.2548 -1.9812
 6162TIP3   OH239900   4.044   1.670  13.287  0.2335  0.0991 -0.5021
 6162TIP3    H139901   3.954   1.703  13.286  0.7185  1.5081  0.3433
 6162TIP3    H239902   4.078   1.694  13.373  1.2283 -0.9954 -0.5675
 6163TIP3   OH239903   4.072   4.371   0.022  0.1901  0.1063  0.1406
 6163TIP3    H139904   4.129   4.321  -0.037  2.3618 -0.5035  2.5235
 6163TIP3    H239905   4.017   4.304   0.064 -0.6112  0.4039 -0.4191
 6164TIP3   OH239906   1.994   5.951  14.056 -0.1407 -0.0685 -0.5079
 6164TIP3    H139907   2.000   6.036  14.100 -0.3082 -1.2027  1.8365
 6164TIP3    H239908   2.068   5.901  14.089  0.3921 -0.6415 -2.4323
 6165TIP3   OH239909   6.290   4.670   1.364 -0.5422  0.3933  0.0690
 6165TIP3    H139910   6.350   4.604   1.328 -2.2682 -1.4314  0.3730
 6165TIP3    H239911   6.342   4.716   1.429  0.4825 -1.2968  0.5132
 6166TIP3   OH239912   5.770   2.001   1.524 -0.2487  0.2382 -0.3081
 6166TIP3    H139913   5.804   2.030   1.439  1.0756  0.2540  0.1946
 6166TIP3    H239914   5.676   2.019   1.520 -0.1431  0.6128 -1.6127
 6167TIP3   OH239915   0.030   1.344  13.642 -0.1893  0.2482 -0.0685
 6167TIP3    H139916  -0.034   1.356  13.572 -1.5567 -1.9194  0.7144
 6167TIP3    H239917   0.100   1.292  13.602 -0.6624 -0.4458  0.0030
 6168TIP3   OH239918   4.204   0.538   1.851  0.0623  0.3512 -0.1454
 6168TIP3    H139919   4.211   0.515   1.944 -0.9979  1.2559  0.1870
 6168TIP3    H239920   4.283   0.587   1.832  0.6026 -0.4064  0.0935
 6169TIP3   OH239921   0.011   0.723  16.932 -0.1041  0.1497 -0.1273
 6169TIP3    H139922  -0.004   0.752  16.842 -0.2656  0.0698 -0.1256
 6169TIP3    H239923  -0.075   0.730  16.974  0.0746  0.7006  0.1649
 6170TIP3   OH239924   6.519   6.672  15.488  0.2905 -0.1037  0.4644
 6170TIP3    H139925   6.601   6.720  15.476 -0.0245  0.6030  1.0548
 6170TIP3    H239926   6.451   6.732  15.457  0.0090 -0.8097 -0.3322
 6171TIP3   OH239927   5.867   6.506  14.449  0.3036 -0.0913 -0.0943
 6171TIP3    H139928   5.866   6.591  14.494  0.0578  1.7424 -3.2333
 6171TIP3    H239929   5.775   6.488  14.429  0.5818  0.6102 -2.2319
 6172TIP3   OH239930   2.712   2.032  11.134 -0.1326  0.3224  0.3424
 6172TIP3    H139931   2.668   2.036  11.049  2.1430 -1.0249 -1.0240
 6172TIP3    H239932   2.680   1.952  11.174 -1.8839  1.4147  1.2205
 6173TIP3   OH239933   4.980   4.564   1.057 -0.1432 -0.3340  0.5299
 6173TIP3    H139934   5.001   4.568   1.150  0.1134  1.0878  0.4352
 6173TIP3    H239935   4.885   4.562   1.054 -0.1474 -0.8700  0.8212
 6174TIP3   OH239936   5.305   4.156   0.652  0.4173 -0.3066 -0.1281
 6174TIP3    H139937   5.246   4.212   0.601  1.8299  0.9104 -0.5329
 6174TIP3    H239938   5.358   4.112   0.585  0.3213 -0.9618  0.2309
 6175TIP3   OH239939   0.832   1.499   6.079 -0.0473 -0.1499 -0.8244
 6175TIP3    H139940   0.804   1.536   6.162 -1.5541  1.0051 -1.7973
 6175TIP3    H239941   0.770   1.430   6.060  1.2996 -1.5857 -0.2163
 6176TIP3   OH239942   0.248   4.968  15.861  0.2153  0.1571  0.1513
 6176TIP3    H139943   0.237   4.894  15.802  0.0260 -0.5712  1.0674
 6176TIP3    H239944   0.268   5.042  15.804 -0.9649 -0.3024 -0.9011
 6177TIP3   OH239945   6.173   0.939   5.663  0.3964  0.2875  0.4120
 6177TIP3    H139946   6.202   1.028   5.641  3.5832 -0.1093  2.4387
 6177TIP3    H239947   6.085   0.952   5.700  1.0047  2.6941  1.2170
 6178TIP3   OH239948   0.184   0.627   5.338  0.4840  0.5184  0.2612
 6178TIP3    H139949   0.254   0.565   5.318 -0.3801  0.0565 -1.5361
 6178TIP3    H239950   0.132   0.583   5.406  0.8005 -0.0171  0.1586
 6179TIP3   OH239951   1.152   0.744   0.977 -0.0956  0.3656  0.1259
 6179TIP3    H139952   1.156   0.698   0.893 -0.8694  0.6216 -0.0613
 6179TIP3    H239953   1.186   0.832   0.957  2.1212 -0.2994  0.6501
 6180TIP3   OH239954   6.064   1.404  14.814  0.1914 -0.4710  0.0894
 6180TIP3    H139955   5.981   1.394  14.861 -0.8446 -2.0512 -1.8510
 6180TIP3    H239956   6.105   1.481  14.852 -1.8630 -0.0256  1.5789
 6181TIP3   OH239957   5.705   2.344   1.095 -0.2684  0.0198 -0.1295
 6181TIP3    H139958   5.799   2.339   1.077 -0.4621  0.8031 -1.5265
 6181TIP3    H239959   5.696   2.307   1.183  1.3926  0.3030  0.2103
 6182TIP3   OH239960   5.071   0.721  13.718  0.0336  0.1059  0.1188
 6182TIP3    H139961   4.985   0.744  13.685 -0.1889  0.6052  1.0087
 6182TIP3    H239962   5.062   0.725  13.813  0.4354 -2.0648  0.2966
 6183TIP3   OH239963   0.874   3.980  10.803  0.4586  0.3991  0.2065
 6183TIP3    H139964   0.906   4.041  10.736 -0.5137 -1.2688 -1.8792
 6183TIP3    H239965   0.780   3.996  10.807  0.7539  2.1339  3.0336
 6184TIP3   OH239966   5.041   5.610  14.928  0.1869 -0.4019 -0.0156
 6184TIP3    H139967   5.116   5.554  14.950  0.4616  0.5988  1.8365
 6184TIP3    H239968   5.035   5.671  15.002 -1.9564  0.0783 -0.5325
 6185TIP3   OH239969   2.828   2.144  15.236 -0.0096 -0.0682 -0.0026
 6185TIP3    H139970   2.840   2.207  15.164 -1.3087 -0.2596 -0.4163
 6185TIP3    H239971   2.817   2.198  15.314  0.3913  0.1676 -0.1065
 6186TIP3   OH239972   2.233   3.118   1.791 -0.0419 -0.2153 -0.6706
 6186TIP3    H139973   2.288   3.194   1.810 -1.9092  1.1973 -0.5987
 6186TIP3    H239974   2.221   3.075   1.876 -0.0169  0.1715 -0.4670
 6187TIP3   OH239975   3.217   6.188   3.775 -0.3001  0.1623 -0.2441
 6187TIP3    H139976   3.204   6.096   3.751  0.9502 -0.0844 -0.0531
 6187TIP3    H239977   3.309   6.205   3.755 -0.1622  0.9848  0.9982
 6188TIP3   OH239978   5.058   4.225   3.790 -0.5037  0.2624  0.0308
 6188TIP3    H139979   4.965   4.234   3.770 -0.2896 -0.9478 -1.7777
 6188TIP3    H239980   5.083   4.141   3.750  1.6591  1.2342 -0.8155
 6189TIP3   OH239981   2.190   2.419   4.414  0.3986 -0.6814 -0.0385
 6189TIP3    H139982   2.095   2.430   4.414  0.5498  1.1615  2.0238
 6189TIP3    H239983   2.214   2.416   4.506  2.6449  2.5700 -0.3501
 6190TIP3   OH239984   3.889   4.847  13.170  0.2056  0.1144 -0.1311
 6190TIP3    H139985   3.892   4.897  13.088  2.0642  1.4531  0.6835
 6190TIP3    H239986   3.818   4.886  13.220 -0.3639 -0.1274 -0.7337
 6191TIP3   OH239987   2.185   5.720  15.353  0.3254 -0.1769  0.1797
 6191TIP3    H139988   2.186   5.793  15.291  0.9897 -0.0548  0.3263
 6191TIP3    H239989   2.174   5.761  15.438  2.9638  0.0028  0.5324
 6192TIP3   OH239990   1.347   0.952   2.517  0.4076 -0.2679 -0.0783
 6192TIP3    H139991   1.281   0.977   2.453  0.4160 -1.7503 -0.7142
 6192TIP3    H239992   1.425   0.935   2.465  0.9659  0.3420  0.5466
 6193TIP3   OH239993   2.888   1.573  16.606 -0.3226  0.3557  0.0556
 6193TIP3    H139994   2.948   1.641  16.578  0.7799 -0.2981  0.7674
 6193TIP3    H239995   2.854   1.604  16.690 -1.3984  0.9604 -0.5833
 6194TIP3   OH239996   5.522   3.814  13.666 -0.0443  0.6721  0.2058
 6194TIP3    H139997   5.468   3.743  13.701 -0.1528 -0.1059 -1.4660
 6194TIP3    H239998   5.466   3.892  13.673 -0.2803  0.4351  1.1647
 6195TIP3   OH239999   4.777   1.631   2.614  0.3105 -0.3525  0.2554
 6195TIP3    H140000   4.856   1.588   2.582  0.8105 -0.5395  1.6745
 6195TIP3    H240001   4.808   1.689   2.684 -0.3645  2.1076 -1.3260
 6196TIP3   OH240002   4.994   6.742   1.898 -0.1333  0.4492  0.0224
 6196TIP3    H140003   4.946   6.740   1.981 -0.3244  0.4718 -0.0864
 6196TIP3    H240004   4.949   6.809   1.846 -0.4753 -0.0805 -0.3767
 6197TIP3   OH240005   5.577   1.954  11.604 -0.2682  0.6066 -0.1361
 6197TIP3    H140006   5.534   1.872  11.584 -0.7835  0.6077  0.8889
 6197TIP3    H240007   5.520   1.997  11.668  0.2442  1.5300 -0.2668
 6198TIP3   OH240008   0.916   2.514  16.893 -0.2082 -0.1574 -0.2412
 6198TIP3    H140009   0.832   2.527  16.848  0.1484  2.0060 -0.3591
 6198TIP3    H240010   0.963   2.596  16.880  1.5132 -0.9522  0.7359
 6199TIP3   OH240011   2.794   2.943   2.708 -0.2489 -0.3504  0.2992
 6199TIP3    H140012   2.751   3.028   2.709  0.3990  0.1094  4.0023
 6199TIP3    H240013   2.723   2.880   2.701 -0.7750  0.3832 -1.9412
 6200TIP3   OH240014   2.266   2.515  15.529 -0.3205  0.2320  0.5076
 6200TIP3    H140015   2.288   2.532  15.438 -0.2577 -1.0887  0.2611
 6200TIP3    H240016   2.314   2.435  15.551 -2.0129 -0.6956  1.0331
 6201TIP3   OH240017   5.060   0.823  15.756 -0.0061 -0.2541  0.1174
 6201TIP3    H140018   5.102   0.905  15.781  1.4311 -0.9413  0.0443
 6201TIP3    H240019   5.103   0.756  15.809 -0.0085 -1.1591 -0.9783
 6202TIP3   OH240020   1.939   4.212  11.056  0.1000  0.6927  0.0952
 6202TIP3    H140021   1.956   4.213  10.962  0.1296 -0.5276  0.0810
 6202TIP3    H240022   2.017   4.171  11.094 -0.9055 -0.9615  0.4243
 6203TIP3   OH240023   1.281   6.026   0.628 -0.0577 -0.8451  0.0903
 6203TIP3    H140024   1.351   6.064   0.681 -0.0767 -0.7043  0.0129
 6203TIP3    H240025   1.298   6.058   0.539 -1.1002  0.4372  0.3338
 6204TIP3   OH240026   5.830   2.740   3.885  0.0729 -0.7572  0.5508
 6204TIP3    H140027   5.857   2.831   3.870  0.6259 -1.1825 -1.3262
 6204TIP3    H240028   5.866   2.719   3.971 -0.3917  0.9041  1.1923
 6205TIP3   OH240029   6.019   3.920  14.858 -0.1209  0.1942 -0.1274
 6205TIP3    H140030   5.959   3.882  14.793  1.7454 -2.3296 -0.5020
 6205TIP3    H240031   6.033   3.851  14.922  0.5314  1.5667  1.2780
 6206TIP3   OH240032   0.900   1.705   4.292 -0.1572 -0.2475  0.3856
 6206TIP3    H140033   0.971   1.640   4.288  1.9325  1.8940  0.2356
 6206TIP3    H240034   0.901   1.746   4.206 -0.8773  0.5338  0.7414
 6207TIP3   OH240035   0.235   1.811   1.749  0.7421 -0.5048  0.5589
 6207TIP3    H140036   0.308   1.834   1.692  1.0689 -0.6357  0.9214
 6207TIP3    H240037   0.189   1.742   1.703  1.1627 -0.7987  0.5725
 6208TIP3   OH240038   4.473   1.039  13.302  0.4224 -0.5402 -0.5045
 6208TIP3    H140039   4.534   1.084  13.245 -0.8552  0.5860 -1.0409
 6208TIP3    H240040   4.444   1.106  13.364  1.5854 -1.6666  1.3767
 6209TIP3   OH240041   2.139   4.884  11.784 -0.0130 -0.0596  0.0558
 6209TIP3    H140042   2.195   4.894  11.707 -0.3958  0.4243 -0.1605
 6209TIP3    H240043   2.134   4.972  11.822 -0.3432 -0.1686  0.2695
 6210TIP3   OH240044   6.527   0.225  17.239  0.0164  0.7063  0.4598
 6210TIP3    H140045   6.592   0.287  17.207  0.5926 -0.3021 -0.3791
 6210TIP3    H240046   6.464   0.217  17.167 -0.7306  1.2170  1.0310
 6211TIP3   OH240047   2.491   1.898   6.231  0.3755  0.7623  0.0519
 6211TIP3    H140048   2.494   1.813   6.276  1.8512  0.7766  0.0482
 6211TIP3    H240049   2.573   1.901   6.181  0.5319  2.3604  0.3619
 6212TIP3   OH240050   1.040   3.844   4.076  0.1484 -0.0366  0.4294
 6212TIP3    H140051   1.125   3.803   4.066 -0.0137  0.1453 -2.3192
 6212TIP3    H240052   1.042   3.920   4.018 -2.2617 -0.7097 -0.6655
 6213TIP3   OH240053   5.621   4.356   5.823  0.0613 -0.1464  0.1638
 6213TIP3    H140054   5.564   4.359   5.746  1.7085 -3.2566 -1.3699
 6213TIP3    H240055   5.597   4.433   5.874 -2.1865  1.2258 -2.6933
 6214TIP3   OH240056   0.794   3.149   5.620 -0.7720 -0.1618 -0.3154
 6214TIP3    H140057   0.781   3.101   5.701  0.6535 -0.5333 -0.2877
 6214TIP3    H240058   0.706   3.178   5.595 -1.1428  0.6680  1.7781
 6215TIP3   OH240059   4.236   5.378  15.942 -0.3535 -0.2310 -0.4090
 6215TIP3    H140060   4.164   5.319  15.920 -0.3446 -0.1450 -0.6704
 6215TIP3    H240061   4.206   5.464  15.912  0.1680 -0.3142 -1.2049
 6216TIP3   OH240062   4.471   0.653   0.860 -0.0970 -0.0315 -0.3078
 6216TIP3    H140063   4.565   0.674   0.866 -0.4733  3.0105 -2.5086
 6216TIP3    H240064   4.452   0.604   0.939  2.7845  1.7241  1.6643
 6217TIP3   OH240065   1.250   2.770   1.628  0.4159  0.8893  0.1045
 6217TIP3    H140066   1.309   2.717   1.683 -0.8634  0.1263  0.8086
 6217TIP3    H240067   1.207   2.706   1.572  2.5741  1.7692 -2.7644
 6218TIP3   OH240068   3.535   5.589   4.420 -0.2280  0.3432  0.5891
 6218TIP3    H140069   3.524   5.534   4.497 -1.0656  1.1950  1.0884
 6218TIP3    H240070   3.620   5.632   4.433  1.3964 -2.1449 -0.6911
 6219TIP3   OH240071   4.941   0.028   2.563 -0.0784  0.4589 -0.1931
 6219TIP3    H140072   4.851   0.031   2.595  0.7518  2.7097  2.2851
 6219TIP3    H240073   4.944   0.092   2.493 -0.2694  0.8201  0.1282
 6220TIP3   OH240074   1.060   6.385  11.701  0.0247  0.1778 -0.0407
 6220TIP3    H140075   1.053   6.425  11.614  0.5247  0.2319 -0.0583
 6220TIP3    H240076   0.972   6.393  11.738 -0.5004 -0.8689 -0.9784
 6221TIP3   OH240077   4.923   2.782   0.352 -0.0754  0.4928 -0.0237
 6221TIP3    H140078   4.964   2.857   0.396 -0.7844  0.4645  0.7140
 6221TIP3    H240079   4.850   2.820   0.304 -1.5622  0.1045  1.7983
 6222TIP3   OH240080   5.772   1.773   6.214 -0.2664  0.1861  0.1763
 6222TIP3    H140081   5.845   1.793   6.272 -0.2248  0.3724  0.0591
 6222TIP3    H240082   5.718   1.710   6.263 -0.4913  0.7121  0.6067
 6223TIP3   OH240083   0.860   2.011   2.558 -0.2204 -0.6591  0.1982
 6223TIP3    H140084   0.803   1.947   2.601  0.4561 -1.3742  0.0688
 6223TIP3    H240085   0.873   2.079   2.623 -3.3995  0.9570 -0.6623
 6224TIP3   OH240086   5.694   3.773  15.809  0.2679  0.4503 -0.4712
 6224TIP3    H140087   5.687   3.836  15.737  1.4927 -0.2360 -1.2084
 6224TIP3    H240088   5.771   3.721  15.788  0.3965 -0.0423  1.1282
 6225TIP3   OH240089   6.042   0.515  15.768 -0.0030  0.0535  0.1098
 6225TIP3    H140090   5.983   0.533  15.694 -0.2961 -0.0629  0.3114
 6225TIP3    H240091   6.115   0.576  15.755 -0.5470  0.7677  0.2814
 6226TIP3   OH240092   0.359   4.158  17.148 -0.1223  0.2677 -0.1351
 6226TIP3    H140093   0.307   4.202  17.080 -3.9379 -1.8740  1.1170
 6226TIP3    H240094   0.333   4.200  17.230  1.1628 -0.0350  0.4699
 6227TIP3   OH240095   5.610   6.158  16.307  0.2388 -0.1638 -0.2939
 6227TIP3    H140096   5.553   6.174  16.232 -1.2651  0.2943  0.8931
 6227TIP3    H240097   5.654   6.241  16.322 -0.7937  0.2734  0.3888
 6228TIP3   OH240098   3.632   1.614   2.580 -0.8214 -0.5071  0.3531
 6228TIP3    H140099   3.681   1.609   2.498  0.8268  0.3793  1.2478
 6228TIP3    H240100   3.571   1.540   2.576 -2.3406  0.7358 -2.6214
 6229TIP3   OH240101   1.140   4.648  16.169 -0.0410 -0.1781  0.0819
 6229TIP3    H140102   1.165   4.710  16.237 -0.3410 -1.4632  1.4205
 6229TIP3    H240103   1.193   4.672  16.093  1.0989  0.6243  1.1043
 6230TIP3   OH240104   4.805   3.416  15.259  0.2235  0.0512 -0.6179
 6230TIP3    H140105   4.812   3.322  15.276 -3.1645  0.1083  2.4827
 6230TIP3    H240106   4.711   3.431  15.247  0.6482  3.0587 -1.0435
 6231TIP3   OH240107   1.603   2.915  14.314 -0.1205 -0.2887  0.4707
 6231TIP3    H140108   1.521   2.881  14.349 -1.0601  2.1658  0.8581
 6231TIP3    H240109   1.631   2.981  14.378  0.3024  1.3589 -1.2927
 6232TIP3   OH240110   0.793   3.269  12.908  0.7543 -0.3158  0.0611
 6232TIP3    H140111   0.722   3.325  12.875  1.5217  0.3876 -0.4141
 6232TIP3    H240112   0.749   3.186  12.929 -0.2530  0.1781 -0.0073
 6233TIP3   OH240113   2.056   0.739  12.722 -0.2192  0.4473 -0.1053
 6233TIP3    H140114   2.115   0.809  12.696 -2.1731  3.0308  1.8423
 6233TIP3    H240115   1.982   0.746  12.662  1.0515 -2.5266 -2.2974
 6234TIP3   OH240116   6.247   2.468   3.470  0.1590 -0.2058  0.0500
 6234TIP3    H140117   6.245   2.564   3.463  1.7344 -0.0605  1.1409
 6234TIP3    H240118   6.177   2.439   3.411 -0.0585  1.5857 -0.6573
 6235TIP3   OH240119   5.495   0.716   3.312 -0.3110  0.1752 -0.3308
 6235TIP3    H140120   5.478   0.706   3.218  1.2606 -3.9092 -0.3601
 6235TIP3    H240121   5.556   0.790   3.318  1.0503 -0.6505 -2.7701
 6236TIP3   OH240122   6.641   2.829  14.751 -0.0308 -0.3261 -0.0783
 6236TIP3    H140123   6.663   2.907  14.700  2.8900 -1.0988 -0.2134
 6236TIP3    H240124   6.672   2.850  14.840  1.1953 -1.4304 -0.2127
 6237TIP3   OH240125   1.437   3.428   1.293 -0.0056 -0.1651  0.2305
 6237TIP3    H140126   1.439   3.358   1.358  0.2495  0.7747  1.2657
 6237TIP3    H240127   1.405   3.504   1.341 -0.2613  0.4419 -0.8655
 6238TIP3   OH240128   2.996   2.659  15.957 -0.7968  0.0389 -0.5038
 6238TIP3    H140129   3.066   2.652  15.892 -1.3569 -0.1243 -1.0998
 6238TIP3    H240130   2.920   2.692  15.908 -1.2066 -0.0068  0.0832
 6239TIP3   OH240131   5.001   2.973  13.178  0.1326 -0.0648  0.2667
 6239TIP3    H140132   5.057   2.967  13.255 -0.2917 -0.2945  0.5526
 6239TIP3    H240133   4.967   3.062  13.179  0.3953  0.0379  0.1575
 6240TIP3   OH240134   4.140   0.564  12.215  0.1426  0.3895 -0.0207
 6240TIP3    H140135   4.225   0.583  12.175 -0.1951  1.4548 -0.2560
 6240TIP3    H240136   4.156   0.566  12.309  0.3560  0.7290 -0.0635
 6241TIP3   OH240137   1.073   6.160   0.039 -0.0336  0.2639 -0.1985
 6241TIP3    H140138   1.133   6.232   0.060 -0.7620  1.0271 -0.6714
 6241TIP3    H240139   1.120   6.108  -0.027  0.0630  0.9425 -0.6747
 6242TIP3   OH240140   3.551   0.179  13.922  0.4829  0.3105 -0.1654
 6242TIP3    H140141   3.606   0.232  13.864  0.8343  1.1212  0.8728
 6242TIP3    H240142   3.481   0.145  13.865  1.0671  0.7073 -1.1427
 6243TIP3   OH240143   1.005   6.073  14.734 -0.3864  0.2292  0.2056
 6243TIP3    H140144   0.963   6.086  14.649 -0.5570  0.4200  0.3182
 6243TIP3    H240145   1.011   6.160  14.771 -0.1625  0.1654  0.3218
 6244TIP3   OH240146   5.250   6.762  13.914  0.3467  0.1156  0.5941
 6244TIP3    H140147   5.343   6.742  13.902 -0.3217 -2.7414 -0.7116
 6244TIP3    H240148   5.226   6.813  13.836  0.5954  0.0128  0.4508
 6245TIP3   OH240149   1.373   0.085   1.710 -0.4364 -0.1233 -0.0676
 6245TIP3    H140150   1.433   0.015   1.735 -2.3345 -2.2276 -1.0797
 6245TIP3    H240151   1.428   0.163   1.701  1.7874 -1.5163  0.8829
 6246TIP3   OH240152   4.867   4.999  14.393  0.2997 -0.0901 -0.2993
 6246TIP3    H140153   4.901   4.982  14.481 -1.2303 -0.9783  0.1481
 6246TIP3    H240154   4.804   4.929  14.377  0.7992 -0.1555 -2.2629
 6247TIP3   OH240155   0.730   3.222  10.235 -0.1020  0.1622  0.1012
 6247TIP3    H140156   0.720   3.303  10.285  0.3253  0.2445  0.0544
 6247TIP3    H240157   0.821   3.197  10.248 -0.0816 -0.0082 -0.3490
 6248TIP3   OH240158   0.787   2.076  16.820 -0.3040  0.0475  0.4126
 6248TIP3    H140159   0.722   2.143  16.842  0.0725  0.8530 -0.8116
 6248TIP3    H240160   0.777   2.063  16.726  0.7487 -0.4160  0.3518
 6249TIP3   OH240161   0.920   1.123   4.496 -0.4491  0.4571  0.1320
 6249TIP3    H140162   0.870   1.078   4.564  0.2024 -1.0165 -0.3147
 6249TIP3    H240163   0.875   1.102   4.414  0.3664 -0.1656 -0.1776
 6250TIP3   OH240164   6.229   1.641   3.359  0.0159  0.6071  0.2436
 6250TIP3    H140165   6.196   1.573   3.417 -0.9797 -0.1146 -1.0992
 6250TIP3    H240166   6.150   1.681   3.322  0.5274 -0.4808 -2.2717
 6251TIP3   OH240167   3.796   1.385   0.159  0.3294  0.2827  0.6932
 6251TIP3    H140168   3.799   1.455   0.094 -0.0052 -0.0146  0.3590
 6251TIP3    H240169   3.833   1.309   0.115  0.0516  0.0672  0.8291
 6252TIP3   OH240170   6.420   4.910  11.328  0.2770  0.5285  0.1542
 6252TIP3    H140171   6.405   4.825  11.285  1.4352  0.8455 -0.9352
 6252TIP3    H240172   6.360   4.970  11.283  1.1001  0.7479 -0.6713
 6253TIP3   OH240173   5.596   5.562   3.671 -0.9400  0.4302  0.2524
 6253TIP3    H140174   5.679   5.597   3.641 -0.5044 -0.3620  0.5094
 6253TIP3    H240175   5.583   5.483   3.618 -1.7881  0.8320 -0.1590
 6254TIP3   OH240176   0.497   3.290  11.402  0.2222 -0.2470  0.1716
 6254TIP3    H140177   0.501   3.355  11.473 -0.1321 -1.0021  0.9075
 6254TIP3    H240178   0.491   3.206  11.448 -0.6284 -0.7132 -0.7562
 6255TIP3   OH240179   4.768   6.475  12.392  0.0727 -0.2659 -0.0150
 6255TIP3    H140180   4.736   6.390  12.360 -0.6166 -0.1019  0.2203
 6255TIP3    H240181   4.695   6.535  12.378  1.4806  0.9644 -2.7505
 6256TIP3   OH240182   4.861   1.558  16.856  0.2250  0.4711 -0.1889
 6256TIP3    H140183   4.837   1.550  16.948 -1.0821  0.5652 -0.5052
 6256TIP3    H240184   4.826   1.479  16.815  0.2002  0.7578 -0.7238
 6257TIP3   OH240185   3.250   4.054   2.098  0.0365  0.2635  0.4632
 6257TIP3    H140186   3.312   3.983   2.084 -0.1571 -0.0149  0.9793
 6257TIP3    H240187   3.302   4.134   2.089  0.4541  0.0361  0.8132
 6258TIP3   OH240188   6.175   4.873   5.603  0.7479 -0.3539 -0.1862
 6258TIP3    H140189   6.161   4.778   5.606 -3.5648  0.0825  0.1630
 6258TIP3    H240190   6.146   4.904   5.689  2.9129  1.3150  0.0324
 6259TIP3   OH240191   0.770   5.782  11.642 -0.0442 -0.4809  0.1567
 6259TIP3    H140192   0.722   5.764  11.723 -0.6021 -0.1684 -0.0981
 6259TIP3    H240193   0.702   5.807  11.579  0.6532  3.3304  0.6777
 6260TIP3   OH240194   0.467   3.258   3.021  0.5119  0.5986 -0.2870
 6260TIP3    H140195   0.478   3.238   2.928  0.9384 -2.1733  0.2870
 6260TIP3    H240196   0.400   3.198   3.051  0.3629  1.4774  1.2170
 6261TIP3   OH240197   6.217   2.825   1.195 -0.3792 -0.1332 -0.2671
 6261TIP3    H140198   6.276   2.801   1.123 -1.2819  1.2570 -1.5320
 6261TIP3    H240199   6.157   2.752   1.202  0.7007 -1.0070  0.1944
 6262TIP3   OH240200   5.266   5.771  15.709  0.5465  0.1017  0.3954
 6262TIP3    H140201   5.301   5.789  15.796  1.4707 -0.2617  0.1110
 6262TIP3    H240202   5.284   5.850  15.658  0.3628  0.1617  0.4209
 6263TIP3   OH240203   1.474   1.975  15.317  0.9707  0.4332  0.2391
 6263TIP3    H140204   1.476   2.023  15.400  1.1679  1.2650 -0.2371
 6263TIP3    H240205   1.564   1.981  15.285  0.6446  1.1142 -0.5878
 6264TIP3   OH240206   6.695   5.352   1.370 -0.0090 -0.7047 -0.1755
 6264TIP3    H140207   6.608   5.320   1.395 -0.9445 -0.1222 -2.3921
 6264TIP3    H240208   6.734   5.279   1.321  0.5978 -0.7836  0.3984
 6265TIP3   OH240209   6.153   2.660   4.761 -0.2342  0.4354  0.3375
 6265TIP3    H140210   6.242   2.645   4.792  0.9468  1.2302 -2.3538
 6265TIP3    H240211   6.127   2.577   4.720 -1.5386 -0.4085  2.6814
 6266TIP3   OH240212   6.504   6.704  14.476  0.3033  0.7872 -0.0045
 6266TIP3    H140213   6.446   6.724  14.403  0.9543 -0.5423 -0.9211
 6266TIP3    H240214   6.447   6.661  14.541  0.3074 -1.0503 -1.1379
 6267TIP3   OH240215   2.068   5.696  13.305  0.1302  0.3469 -0.2188
 6267TIP3    H140216   2.001   5.742  13.355  0.6106  0.0411  0.7272
 6267TIP3    H240217   2.051   5.603  13.322  0.7958  0.2692  0.0492
 6268TIP3   OH240218   2.138   1.000  14.059  0.0605 -0.2944  0.0554
 6268TIP3    H140219   2.107   0.992  14.149  2.3770 -0.0360  0.9295
 6268TIP3    H240220   2.212   0.940  14.053  1.0025  0.9167 -1.1626
 6269TIP3   OH240221   0.025   2.794   5.198 -0.3153  0.4378  0.3718
 6269TIP3    H140222   0.058   2.787   5.108  3.1425  1.7616  1.3852
 6269TIP3    H240223   0.096   2.758   5.252 -1.4496  1.5159  2.6853
 6270TIP3   OH240224   4.762   0.935   1.074  0.0239 -0.4967  0.3781
 6270TIP3    H140225   4.752   0.994   1.149 -0.5308 -0.5744  0.3722
 6270TIP3    H240226   4.854   0.942   1.050  1.0626 -2.9142  3.0850
 6271TIP3   OH240227   0.771   4.411   4.352  0.1131 -0.2534  0.1730
 6271TIP3    H140228   0.824   4.372   4.282 -0.2643 -0.7371  0.1507
 6271TIP3    H240229   0.822   4.486   4.382  0.3566 -0.1416 -0.5051
 6272TIP3   OH240230   6.590   2.078   0.168  0.1245  0.4029 -0.2807
 6272TIP3    H140231   6.512   2.102   0.219  0.8155  0.4912  0.7579
 6272TIP3    H240232   6.636   2.161   0.154  0.8175  0.1492  0.4529
 6273TIP3   OH240233   3.350   5.969   0.813  0.1417  0.1831  0.2258
 6273TIP3    H140234   3.413   5.965   0.741  1.8820 -2.4679  1.6984
 6273TIP3    H240235   3.351   5.880   0.850 -2.3458  0.8391  2.1394
 6274TIP3   OH240236   1.317   3.198   4.237  0.0657  0.4542 -0.0672
 6274TIP3    H140237   1.326   3.154   4.321 -1.8099 -0.5857 -0.3566
 6274TIP3    H240238   1.247   3.150   4.192  2.3874 -0.4210 -3.1256
 6275TIP3   OH240239   2.889   6.716  14.708  0.7088  0.6840  0.4503
 6275TIP3    H140240   2.982   6.705  14.686  0.8202 -0.1343  1.2929
 6275TIP3    H240241   2.882   6.690  14.799 -0.3042  1.0633  0.4951
 6276TIP3   OH240242   6.399   4.200   1.873 -0.2700 -0.3037 -0.1052
 6276TIP3    H140243   6.462   4.130   1.856 -0.6964 -0.8739  0.6051
 6276TIP3    H240244   6.451   4.271   1.912  0.2951  0.0900 -1.4908
 6277TIP3   OH240245   2.012   3.135  13.185 -0.0205 -0.4172 -0.0472
 6277TIP3    H140246   1.949   3.074  13.224 -1.0865 -0.7447 -2.1472
 6277TIP3    H240247   1.992   3.134  13.092  0.7736  2.2192 -0.3201
 6278TIP3   OH240248   6.264   5.830  11.884  0.0710  0.2904 -0.8167
 6278TIP3    H140249   6.192   5.839  11.822  0.5122  1.6280 -1.1553
 6278TIP3    H240250   6.245   5.893  11.953  1.1209  0.9549 -1.1163
 6279TIP3   OH240251   2.286   0.368  13.074  0.0559 -0.5462 -0.3835
 6279TIP3    H140252   2.313   0.433  13.140 -0.1887  0.4629 -1.2446
 6279TIP3    H240253   2.222   0.415  13.020 -1.5279 -2.0773  0.0670
 6280TIP3   OH240254   6.277   2.352   4.504 -0.0990 -0.1199 -0.1729
 6280TIP3    H140255   6.355   2.358   4.558  0.3981  3.1472 -1.0848
 6280TIP3    H240256   6.308   2.320   4.419  0.4852  1.9360 -0.7891
 6281TIP3   OH240257   6.418   5.719  13.108  0.2464  0.3186  0.0759
 6281TIP3    H140258   6.339   5.683  13.149 -1.0142  1.2092 -1.4295
 6281TIP3    H240259   6.405   5.703  13.014  0.8156  2.3708 -0.4011
 6282TIP3   OH240260   4.847   1.728   4.501 -0.0782  0.1614 -0.3406
 6282TIP3    H140261   4.802   1.704   4.419 -0.6041  0.1744 -0.0595
 6282TIP3    H240262   4.783   1.711   4.569  0.3980  0.0617  0.0834
 6283TIP3   OH240263   1.214   2.541  13.340  0.3903 -0.1571  0.6776
 6283TIP3    H140264   1.244   2.588  13.418  1.8348  1.5483 -0.8381
 6283TIP3    H240265   1.253   2.587  13.267 -3.7492  0.5571 -1.3863
 6284TIP3   OH240266   2.816   5.962  16.106  0.5772 -0.2772  0.3078
 6284TIP3    H140267   2.897   5.919  16.081 -0.0569 -1.3649  0.0651
 6284TIP3    H240268   2.777   5.905  16.173 -0.8681 -0.7823 -0.8906
 6285TIP3   OH240269   0.860   6.742  14.632 -0.0451 -0.3249  0.4033
 6285TIP3    H140270   0.797   6.804  14.669 -0.2509 -1.7292  2.6072
 6285TIP3    H240271   0.945   6.772  14.666  0.5103  1.2952 -2.1851
 6286TIP3   OH240272   3.974   3.061  16.427  0.0074 -0.8428 -0.1643
 6286TIP3    H140273   3.987   3.108  16.510  0.6681  1.8406 -1.6754
 6286TIP3    H240274   3.881   3.037  16.428 -0.7454  1.8058  0.1354
 6287TIP3   OH240275   6.697   1.209   4.023 -0.1339 -0.0506  0.2215
 6287TIP3    H140276   6.680   1.192   3.930 -1.4748  2.0265 -0.0025
 6287TIP3    H240277   6.616   1.249   4.055  0.1924 -0.9818  2.3938
 6288TIP3   OH240278   5.503   0.580   4.472  0.2297  0.0695 -0.8144
 6288TIP3    H140279   5.409   0.581   4.450  0.6328  0.6883 -2.7499
 6288TIP3    H240280   5.512   0.510   4.536 -1.3849 -0.8129 -1.4846
 6289TIP3   OH240281   2.520   3.476  15.346  0.0127  0.7787  0.1750
 6289TIP3    H140282   2.604   3.447  15.311 -0.6295 -1.5885  0.4413
 6289TIP3    H240283   2.513   3.568  15.320  2.2033  0.7374 -0.7229
 6290TIP3   OH240284   5.605   5.229   2.990 -0.0548  0.1862 -0.3107
 6290TIP3    H140285   5.671   5.270   2.935 -0.2836  0.9053 -0.0593
 6290TIP3    H240286   5.523   5.273   2.967 -0.0733  0.8306  0.9276
 6291TIP3   OH240287   6.139   1.354  14.357  0.3011  0.5481 -0.1159
 6291TIP3    H140288   6.166   1.419  14.422  2.5198  0.6922 -1.1014
 6291TIP3    H240289   6.190   1.276  14.379  1.2230  0.6572 -1.7509
 6292TIP3   OH240290   1.873   1.449  15.054  0.2183  0.1346 -0.3414
 6292TIP3    H140291   1.847   1.450  15.146 -0.0150 -1.4762 -0.3471
 6292TIP3    H240292   1.857   1.358  15.026  3.0437 -0.2126 -1.1575
 6293TIP3   OH240293   3.225   4.741  11.911  0.1763  0.3111  0.0780
 6293TIP3    H140294   3.306   4.694  11.930  0.3849 -0.4919 -2.5143
 6293TIP3    H240295   3.192   4.767  11.997  2.6156 -0.2596  1.2633
 6294TIP3   OH240296   0.759   1.393   3.511 -0.1116  0.2552 -0.9375
 6294TIP3    H140297   0.812   1.351   3.444  1.0290 -0.4655  0.3715
 6294TIP3    H240298   0.822   1.442   3.565 -1.1469  1.8585 -1.1047
 6295TIP3   OH240299   4.801   1.578   4.910 -0.0207 -0.3052  0.0724
 6295TIP3    H140300   4.721   1.618   4.945  0.2822  0.7648 -0.4017
 6295TIP3    H240301   4.872   1.618   4.959  0.2047 -2.0832  1.2714
 6296TIP3   OH240302   5.746   1.913   4.283  0.0580 -0.1776  0.1942
 6296TIP3    H140303   5.733   1.830   4.329 -0.5247  0.3788  1.0731
 6296TIP3    H240304   5.771   1.975   4.352  2.5152 -0.0318 -0.7053
 6297TIP3   OH240305   5.901   2.407  11.223 -0.0894  0.1961 -0.5623
 6297TIP3    H140306   5.832   2.424  11.158 -1.5099 -2.1634  0.2141
 6297TIP3    H240307   5.971   2.366  11.173 -1.6425 -2.7052 -0.5880
 6298TIP3   OH240308   4.125   5.963  10.680 -0.1266 -0.0009 -0.5399
 6298TIP3    H140309   4.047   6.017  10.691 -0.1362 -0.2979  1.0559
 6298TIP3    H240310   4.176   5.977  10.760  0.2658 -1.7090 -0.4448
 6299TIP3   OH240311   6.509   1.991  10.562  0.1439  0.4272  0.0058
 6299TIP3    H140312   6.421   1.973  10.530 -0.1291  0.1809  0.8894
 6299TIP3    H240313   6.514   2.086  10.568  0.7180  0.6064 -2.1836
 6300TIP3   OH240314   2.381   1.388  10.589 -0.7021  0.0001  0.7578
 6300TIP3    H140315   2.313   1.323  10.574  1.1073 -1.4630 -1.8461
 6300TIP3    H240316   2.441   1.347  10.651  0.9903 -1.4031 -1.6691
 6301TIP3   OH240317   6.127   1.201  13.810  0.9694  0.2720  0.1864
 6301TIP3    H140318   6.054   1.253  13.776  2.0623  0.7050 -1.6371
 6301TIP3    H240319   6.127   1.218  13.904 -0.1027  1.7717 -0.0558
 6302TIP3   OH240320   0.868   6.710   1.601  0.4908  0.6222 -0.0386
 6302TIP3    H140321   0.864   6.620   1.570 -0.4399  0.5348  0.2924
 6302TIP3    H240322   0.792   6.752   1.559  0.7015  1.1556  0.1059
 6303TIP3   OH240323   3.535   1.859   4.977 -0.0988 -0.0754  0.0068
 6303TIP3    H140324   3.468   1.905   4.926  0.0511  1.0005  0.7493
 6303TIP3    H240325   3.571   1.795   4.916  0.8579  1.8973 -1.6530
 6304TIP3   OH240326   0.169   5.228  12.646  0.1908  0.1795  0.1226
 6304TIP3    H140327   0.242   5.214  12.705  0.4341 -0.8784 -0.4054
 6304TIP3    H240328   0.205   5.279  12.574  0.7076 -1.2911 -0.6879
 6305TIP3   OH240329   6.731   0.602   4.422 -0.3820  0.0619 -0.0088
 6305TIP3    H140330   6.705   0.602   4.514 -0.4993 -1.6107 -0.0029
 6305TIP3    H240331   6.649   0.592   4.374 -0.2725  0.4446 -0.2819
 6306TIP3   OH240332   1.523   5.998   5.595  0.0032 -0.2075  0.4457
 6306TIP3    H140333   1.540   5.962   5.682 -0.2706  0.4945  0.7991
 6306TIP3    H240334   1.534   6.092   5.605 -2.0780  0.1116  0.2429
 6307TIP3   OH240335   6.591   1.126  15.318  0.0616 -0.7232 -0.1555
 6307TIP3    H140336   6.590   1.042  15.271 -0.2272 -0.4751 -0.5972
 6307TIP3    H240337   6.673   1.125  15.368  0.9074 -0.5271 -1.5010
 6308TIP3   OH240338   5.851   3.124   6.193  0.3097 -0.1969 -0.2245
 6308TIP3    H140339   5.906   3.101   6.267 -0.2866 -1.7917 -0.2451
 6308TIP3    H240340   5.762   3.124   6.229  0.0105 -1.0228 -0.9298
 6309TIP3   OH240341   2.760   2.194   0.654  0.3378 -0.1149 -0.4437
 6309TIP3    H140342   2.735   2.146   0.733 -0.0609  0.4773 -0.1969
 6309TIP3    H240343   2.679   2.238   0.627  1.0670  1.7541  0.2921
 6310TIP3   OH240344   4.684   6.441  13.701  0.6159  0.0948 -0.8288
 6310TIP3    H140345   4.723   6.438  13.789 -1.3742 -1.1769  0.0949
 6310TIP3    H240346   4.734   6.376  13.651 -0.0648 -1.3439  0.2610
 6311TIP3   OH240347   1.906   4.694  16.425 -0.2662  0.2928  0.1488
 6311TIP3    H140348   1.943   4.705  16.513 -1.2373  0.7977  0.5131
 6311TIP3    H240349   1.878   4.603  16.421 -1.3678  0.5846  0.8420
 6312TIP3   OH240350   1.028   4.047  16.128 -0.6092 -0.2830  0.1504
 6312TIP3    H140351   0.998   4.112  16.064 -1.6511 -0.1992  0.6925
 6312TIP3    H240352   0.997   4.081  16.213  0.1395 -0.7384  0.6121
 6313TIP3   OH240353   5.235   3.643   5.451 -0.5644 -0.3152  0.4122
 6313TIP3    H140354   5.155   3.644   5.503 -1.5404 -1.1017 -0.9919
 6313TIP3    H240355   5.271   3.555   5.464  0.1644  0.0773  1.1391
 6314TIP3   OH240356   6.657   4.522  13.654  0.0974  0.3892  0.7035
 6314TIP3    H140357   6.619   4.440  13.623 -0.5686  1.3755 -1.1963
 6314TIP3    H240358   6.752   4.507  13.647  0.1281 -1.2150  3.1977
 6315TIP3   OH240359   3.945   1.927  16.452 -0.1621 -0.8780  0.1566
 6315TIP3    H140360   3.937   1.861  16.383 -1.6236  1.0008 -1.5748
 6315TIP3    H240361   4.031   1.967  16.438 -0.8798  0.2144 -1.3042
 6316TIP3   OH240362   3.037   3.034   2.056 -0.6780 -0.5043 -0.1360
 6316TIP3    H140363   3.128   3.033   2.026 -0.4494  0.0943  0.5077
 6316TIP3    H240364   3.036   2.975   2.131 -0.5409  0.4060  0.6016
 6317TIP3   OH240365   4.539   1.409  16.693 -0.2263  0.6133  0.1393
 6317TIP3    H140366   4.622   1.365  16.674 -0.5598  0.4066 -0.8608
 6317TIP3    H240367   4.547   1.494  16.650 -0.9270  0.2010 -0.8386
 6318TIP3   OH240368   0.365   6.763  13.493  0.0544  0.6472 -0.3202
 6318TIP3    H140369   0.403   6.720  13.416  0.3701  0.2379  0.0580
 6318TIP3    H240370   0.272   6.740  13.489  0.4019 -1.0997  0.5114
 6319TIP3   OH240371   0.116   6.746  12.106 -0.1029  0.5260  0.3717
 6319TIP3    H140372   0.172   6.673  12.134  0.0810  0.4027 -0.2959
 6319TIP3    H240373   0.174   6.801  12.054 -0.7049  0.1749 -0.6884
 6320TIP3   OH240374   0.747   6.384   4.815  0.7372 -0.0658  0.2565
 6320TIP3    H140375   0.686   6.459   4.811  1.6670  0.7346  0.7738
 6320TIP3    H240376   0.695   6.314   4.854 -0.1341  0.3230 -0.1571
 6321TIP3   OH240377   1.498   5.860  10.787  0.0646 -0.7036 -0.6998
 6321TIP3    H140378   1.404   5.873  10.776  0.1986  0.2904 -0.7720
 6321TIP3    H240379   1.522   5.916  10.861  0.2504 -2.6152  0.7548
 6322TIP3   OH240380   1.408   0.321   2.727 -0.1586 -0.1955  0.4239
 6322TIP3    H140381   1.352   0.245   2.739 -1.5461  0.5595 -0.9245
 6322TIP3    H240382   1.470   0.295   2.659  0.6719 -0.7719  1.3794
 6323TIP3   OH240383   5.857   5.070  14.887  0.5607 -0.0074 -0.3944
 6323TIP3    H140384   5.926   5.034  14.832  1.6788  1.6003 -0.0962
 6323TIP3    H240385   5.780   5.075  14.829  0.1983 -3.1203 -0.3533
 6324TIP3   OH240386   1.889   1.204   2.914 -0.1710  0.0222  0.3503
 6324TIP3    H140387   1.825   1.275   2.908 -1.0444 -0.6577  1.2507
 6324TIP3    H240388   1.922   1.192   2.825  0.6101  2.0890  0.3037
 6325TIP3   OH240389   6.406   3.702   3.979 -0.6300 -0.1744  0.1308
 6325TIP3    H140390   6.366   3.688   3.893  0.3602  0.7994 -0.5136
 6325TIP3    H240391   6.432   3.614   4.008 -2.0391 -0.6615 -0.0081
 6326TIP3   OH240392   1.220   2.293  12.426  0.2114  0.0294  0.3242
 6326TIP3    H140393   1.199   2.378  12.465 -1.4764 -0.7627  1.2250
 6326TIP3    H240394   1.257   2.315  12.340 -1.1278  1.6447  0.1022
 6327TIP3   OH240395   5.499   1.334  14.171 -0.2497  0.2046 -0.4489
 6327TIP3    H140396   5.426   1.277  14.146  1.1880 -1.4159 -1.1376
 6327TIP3    H240397   5.482   1.356  14.263  0.1457 -3.0722  0.5365
 6328TIP3   OH240398   6.208   0.631   4.718 -0.3407  0.3290 -0.1527
 6328TIP3    H140399   6.118   0.658   4.735 -0.8477  2.0573 -4.3228
 6328TIP3    H240400   6.256   0.713   4.704  0.8044 -0.5776 -2.0406
 6329TIP3   OH240401   1.945   0.324   4.603 -0.0151  0.0370  0.0698
 6329TIP3    H140402   1.868   0.330   4.546  0.1557 -3.2241 -0.6928
 6329TIP3    H240403   2.018   0.354   4.548 -0.2520 -0.2752 -0.4184
 6330TIP3   OH240404   3.051   2.542  13.623 -0.1664 -0.4064  0.0032
 6330TIP3    H140405   3.123   2.490  13.659 -1.1736 -2.0589 -0.2273
 6330TIP3    H240406   3.025   2.600  13.694  3.1907  2.3939 -0.7750
 6331TIP3   OH240407   3.602   0.294   5.907  0.0599 -0.4288 -0.3462
 6331TIP3    H140408   3.673   0.334   5.957  0.1166 -0.1137 -0.6715
 6331TIP3    H240409   3.549   0.368   5.878  0.3473 -0.5616 -1.2293
 6332TIP3   OH240410   2.652   4.778  16.405  0.0283  0.6827 -0.1046
 6332TIP3    H140411   2.609   4.778  16.490 -1.0900 -0.1444 -0.6353
 6332TIP3    H240412   2.683   4.688  16.394 -4.3228 -0.8081 -2.6403
 6333TIP3   OH240413   4.435   4.929   5.862  0.4188 -0.2621 -0.1287
 6333TIP3    H140414   4.424   4.972   5.946  1.6490 -2.5318  1.2914
 6333TIP3    H240415   4.356   4.876   5.852 -0.2293  0.8184 -0.9759
 6334TIP3   OH240416   1.740   0.791   4.205  0.0582 -0.0521  0.4817
 6334TIP3    H140417   1.790   0.763   4.128  0.4331 -0.1514  0.7575
 6334TIP3    H240418   1.785   0.750   4.278 -0.0951  0.3207  0.7849
 6335TIP3   OH240419   5.111   3.850   4.385  0.5998  0.2517  0.6599
 6335TIP3    H140420   5.180   3.803   4.340  1.8636  2.3742  0.2561
 6335TIP3    H240421   5.042   3.785   4.398 -0.1548 -0.4791 -4.7360
 6336TIP3   OH240422   0.171   1.085   3.594  0.0106 -0.0785  0.2598
 6336TIP3    H140423   0.208   1.157   3.645 -0.1913  0.7102 -0.6814
 6336TIP3    H240424   0.142   1.125   3.512 -1.1079 -1.0298  0.1549
 6337TIP3   OH240425   2.796   1.154  16.800 -0.1246 -0.0140 -0.2308
 6337TIP3    H140426   2.822   1.166  16.709 -0.8240 -0.4794 -0.5038
 6337TIP3    H240427   2.878   1.156  16.849  0.5376 -2.0217 -1.1293
 6338TIP3   OH240428   5.746   2.372   1.813 -0.0987  0.1167  0.1080
 6338TIP3    H140429   5.789   2.287   1.818 -1.1040 -0.4120  0.1049
 6338TIP3    H240430   5.693   2.377   1.893 -1.1123  0.1270 -0.5437
 6339TIP3   OH240431   3.501   3.540   4.080 -0.2066  0.2709 -0.2896
 6339TIP3    H140432   3.556   3.493   4.143  1.1491  0.3748 -1.3412
 6339TIP3    H240433   3.502   3.631   4.110 -0.9802  0.0370  0.4806
 6340TIP3   OH240434   3.848   3.372   0.606 -0.7551 -0.3374 -0.2433
 6340TIP3    H140435   3.782   3.409   0.548  0.9510  0.4227 -1.7819
 6340TIP3    H240436   3.904   3.320   0.549 -0.6756 -1.9650  1.2213
 6341TIP3   OH240437   0.235   6.361  11.834  0.1804  0.6977 -0.2520
 6341TIP3    H140438   0.312   6.405  11.870  0.8129 -0.5770  0.0308
 6341TIP3    H240439   0.239   6.380  11.740  0.5622  1.0575 -0.1687
 6342TIP3   OH240440   4.481   5.026  12.430 -0.4029  0.3437 -0.2886
 6342TIP3    H140441   4.416   4.960  12.407 -0.5823  0.8543 -1.3126
 6342TIP3    H240442   4.546   4.979  12.482  1.1607 -1.4684 -3.5892
 6343TIP3   OH240443   0.679   1.432   0.968 -0.3734  0.4748 -0.1589
 6343TIP3    H140444   0.621   1.356   0.976  0.7176 -0.3570  0.0842
 6343TIP3    H240445   0.624   1.500   0.931 -1.1497 -0.7246 -1.3095
 6344TIP3   OH240446   3.009   2.692  16.971  0.0543 -0.0317  0.0704
 6344TIP3    H140447   3.036   2.608  17.009  0.9268  0.9018  1.6176
 6344TIP3    H240448   3.090   2.743  16.964 -0.4584  0.6924 -0.8475
 6345TIP3   OH240449   0.663   1.148  11.781 -0.0702  0.1997 -0.6436
 6345TIP3    H140450   0.725   1.222  11.778  1.0306 -0.6335  0.4645
 6345TIP3    H240451   0.642   1.131  11.690  0.7274  1.0243 -1.0028
 6346TIP3   OH240452   1.558   2.791  16.370 -0.0315  0.2686  0.0204
 6346TIP3    H140453   1.504   2.724  16.327 -0.7032  0.3133  0.7745
 6346TIP3    H240454   1.635   2.799  16.313 -1.5513  1.4281 -2.0228
 6347TIP3   OH240455   3.375   0.790   1.359  0.0525 -0.4340  0.1571
 6347TIP3    H140456   3.431   0.743   1.297 -0.1390 -1.1482  0.5134
 6347TIP3    H240457   3.314   0.723   1.392 -0.1126  0.0265  0.8059
 6348TIP3   OH240458   6.125   0.885   1.168  0.6513  0.5605 -0.1484
 6348TIP3    H140459   6.038   0.926   1.172  0.5600  0.3299  0.2232
 6348TIP3    H240460   6.150   0.892   1.076  0.1006  0.3411 -0.3185
 6349TIP3   OH240461   3.418   3.997   4.637 -0.3888 -0.1800 -0.1208
 6349TIP3    H140462   3.473   3.920   4.619  0.5018 -0.2337  2.3379
 6349TIP3    H240463   3.350   3.964   4.696 -1.4213  0.4592 -0.9368
 6350TIP3   OH240464   4.691   3.506  12.649  0.1889 -0.1840 -0.8520
 6350TIP3    H140465   4.649   3.462  12.575 -1.2339  0.0378 -0.2189
 6350TIP3    H240466   4.634   3.485  12.724 -0.3293  2.3913 -0.4484
 6351TIP3   OH240467   6.205   6.433   1.304  0.4132  0.4587  0.2356
 6351TIP3    H140468   6.293   6.401   1.285  0.3545  0.4402 -0.0195
 6351TIP3    H240469   6.213   6.529   1.301  0.9312  0.5301  2.5913
 6352TIP3   OH240470   3.903   0.626   0.349  0.1269  0.1736  0.0221
 6352TIP3    H140471   3.913   0.678   0.269 -1.4525  1.7273  0.7635
 6352TIP3    H240472   3.873   0.689   0.415 -1.2231 -1.5675  1.1513
 6353TIP3   OH240473   3.982   1.317   3.606  0.4568 -0.0045  0.5858
 6353TIP3    H140474   3.968   1.408   3.582 -0.4628  0.4625  2.6667
 6353TIP3    H240475   3.992   1.318   3.702 -1.4289 -2.2364  0.9093
 6354TIP3   OH240476   4.257   1.812   1.423  0.5687 -0.0720 -0.1547
 6354TIP3    H140477   4.258   1.890   1.479  3.0048 -0.2385  0.1566
 6354TIP3    H240478   4.251   1.847   1.334 -1.6640  0.2641  0.0693
 6355TIP3   OH240479   1.602   0.833   3.269  0.3429  0.3782 -0.3622
 6355TIP3    H140480   1.681   0.882   3.292  0.4603  0.2593 -0.5090
 6355TIP3    H240481   1.583   0.858   3.179  0.0715  0.5918 -0.2477
 6356TIP3   OH240482   6.260   4.326   2.300 -0.0870 -0.3192  0.0061
 6356TIP3    H140483   6.234   4.267   2.230 -0.8414 -0.7096  0.5960
 6356TIP3    H240484   6.223   4.287   2.379  1.2833 -0.2280  0.7181
 6357TIP3   OH240485   5.574   1.881  14.018 -0.1390 -0.0602  0.1832
 6357TIP3    H140486   5.649   1.939  14.032  1.8966 -2.5109  0.3224
 6357TIP3    H240487   5.545   1.900  13.929  1.2034  0.4206 -0.1774
 6358TIP3   OH240488   3.741   5.158   1.872 -0.3597  0.2951 -0.0943
 6358TIP3    H140489   3.661   5.143   1.923 -0.0575 -0.6649  0.1141
 6358TIP3    H240490   3.715   5.144   1.781 -0.2404 -0.9382  0.0415
 6359TIP3   OH240491   3.015   6.394  12.076 -0.1157 -0.7660  0.1871
 6359TIP3    H140492   2.939   6.416  12.130  0.3575 -0.2761  0.6554
 6359TIP3    H240493   3.044   6.309  12.109 -1.1279 -1.4912 -0.7350
 6360TIP3   OH240494   4.810   5.132   6.055 -0.1425  0.0446 -0.3532
 6360TIP3    H140495   4.889   5.120   6.108  0.5298 -0.2542 -1.3732
 6360TIP3    H240496   4.750   5.182   6.110  0.2707 -0.8018  0.9173
 6361TIP3   OH240497   1.209   5.750  16.850 -0.0605 -0.2877  0.4158
 6361TIP3    H140498   1.241   5.669  16.811  0.9968  0.5152 -0.4900
 6361TIP3    H240499   1.128   5.769  16.802  0.4912 -0.0423 -0.4565
 6362TIP3   OH240500   1.086   0.036   4.828 -0.3451 -0.3845  0.2013
 6362TIP3    H140501   1.172   0.074   4.814 -0.2112 -0.2208  1.4203
 6362TIP3    H240502   1.104  -0.056   4.851 -0.3574  0.1132  2.3532
 6363TIP3   OH240503   3.895   6.420  11.872 -0.1794  0.9684  0.0258
 6363TIP3    H140504   3.802   6.439  11.871 -0.0800  1.4847  0.2307
 6363TIP3    H240505   3.904   6.339  11.822 -0.7845  0.6718  0.3952
 6364TIP3   OH240506   6.383   0.860  15.438 -0.4068  0.3864  0.0035
 6364TIP3    H140507   6.474   0.874  15.413 -0.3243  0.1865  0.1916
 6364TIP3    H240508   6.363   0.931  15.498  0.2286 -0.6782  1.5260
 6365TIP3   OH240509   0.033   4.452  15.609  0.2905  0.2769 -0.0176
 6365TIP3    H140510   0.035   4.442  15.513  3.4044  1.7895 -0.2526
 6365TIP3    H240511   0.114   4.409  15.638  0.5270  1.7572  1.6549
 6366TIP3   OH240512   3.276   5.936   3.634  0.9514 -0.2190  0.0641
 6366TIP3    H140513   3.370   5.951   3.645  0.6472  0.4726  2.3945
 6366TIP3    H240514   3.257   5.863   3.693  0.1812 -1.0550 -1.1845
 6367TIP3   OH240515   4.658   1.626  16.561 -0.0801  0.0980  0.0305
 6367TIP3    H140516   4.748   1.651  16.537  0.3259 -0.1200  1.2869
 6367TIP3    H240517   4.626   1.579  16.484  0.9322  0.0448 -0.3816
 6368TIP3   OH240518   6.313   5.229   0.808  0.4375  0.3532 -0.3256
 6368TIP3    H140519   6.279   5.316   0.785  1.7513  0.5185 -1.8269
 6368TIP3    H240520   6.245   5.169   0.777 -0.2630  0.8068  0.2869
 6369TIP3   OH240521   4.402   5.586   3.467 -0.0717  0.2307 -0.2973
 6369TIP3    H140522   4.460   5.524   3.423 -0.7603 -0.0313 -0.8616
 6369TIP3    H240523   4.361   5.635   3.395  0.4065  1.2860  0.1349
 6370TIP3   OH240524   6.444   0.178  12.487  0.0957  0.1560  0.3783
 6370TIP3    H140525   6.533   0.213  12.489  0.0475  0.3771 -0.7816
 6370TIP3    H240526   6.388   0.253  12.506  0.0895  0.2984 -0.2023
 6371TIP3   OH240527   2.908   4.241   3.806  0.4000  0.0559  0.5954
 6371TIP3    H140528   2.859   4.170   3.846  0.3114  0.0566  0.4880
 6371TIP3    H240529   2.875   4.320   3.849 -0.6879  0.1934 -0.4515
 6372TIP3   OH240530   2.215   2.322  15.038 -0.4138 -0.1968 -0.3170
 6372TIP3    H140531   2.121   2.335  15.055 -0.1172  1.4890  0.1899
 6372TIP3    H240532   2.257   2.336  15.123  0.2651 -1.4860 -0.4235
 6373TIP3   OH240533   5.996   6.197   0.823 -0.5189  0.2383 -0.0876
 6373TIP3    H140534   6.050   6.276   0.820  0.3485 -0.3136  0.7506
 6373TIP3    H240535   5.995   6.172   0.915  0.9251 -1.8799 -0.5788
 6374TIP3   OH240536   3.671   2.692   2.700 -0.2702  0.2315  0.1391
 6374TIP3    H140537   3.698   2.636   2.773 -0.2867 -0.2438 -0.2148
 6374TIP3    H240538   3.593   2.649   2.664 -1.0188  1.1445  0.6264
 6375TIP3   OH240539   2.761   6.350   4.096  0.5066  0.0545  0.2705
 6375TIP3    H140540   2.739   6.339   4.004  1.5299  0.2619 -0.0162
 6375TIP3    H240541   2.828   6.284   4.112  0.7520  0.4055  0.7128
 6376TIP3   OH240542   5.393   5.041  16.909  0.1609  0.3256 -0.0343
 6376TIP3    H140543   5.445   5.014  16.985  0.5737 -0.1860 -0.4841
 6376TIP3    H240544   5.351   5.122  16.936  1.0467  0.6490  0.4154
 6377TIP3   OH240545   5.361   0.913  12.318  0.1039 -0.5392 -0.0390
 6377TIP3    H140546   5.273   0.909  12.355 -1.8807  1.3736 -4.0217
 6377TIP3    H240547   5.354   0.869  12.234  2.9743 -0.2814 -0.5050
 6378TIP3   OH240548   5.218   4.100  16.243  0.0789  0.1230 -0.0323
 6378TIP3    H140549   5.221   4.107  16.147 -2.2695  1.4019 -0.0798
 6378TIP3    H240550   5.272   4.173  16.274 -0.7099  0.8828 -0.4109
 6379TIP3   OH240551   5.701   1.757   0.169 -0.3038  0.1600  0.2127
 6379TIP3    H140552   5.641   1.828   0.194 -2.1821 -1.4673  0.5679
 6379TIP3    H240553   5.738   1.786   0.085 -1.1535  1.4749  0.2544
 6380TIP3   OH240554   5.217   3.154   2.160 -0.5567  0.2558 -0.2195
 6380TIP3    H140555   5.269   3.235   2.165  0.3704 -0.4101  2.6659
 6380TIP3    H240556   5.278   3.088   2.128 -1.1578  0.4948 -1.9932
 6381TIP3   OH240557   2.404   5.117  14.632 -0.2136  0.0225 -0.1854
 6381TIP3    H140558   2.380   5.025  14.625 -0.9526  0.0367  1.4656
 6381TIP3    H240559   2.365   5.158  14.555 -1.7940 -0.7062  0.1810
 6382TIP3   OH240560   6.641   3.289  11.200  0.2331 -0.2555  0.5944
 6382TIP3    H140561   6.712   3.329  11.151  1.7755 -0.3494  2.6056
 6382TIP3    H240562   6.571   3.277  11.136  0.3699  3.7648 -0.5797
 6383TIP3   OH240563   1.844   4.020  15.076  0.5535 -0.4330  0.0676
 6383TIP3    H140564   1.936   4.025  15.051  0.9721 -2.8555  0.8453
 6383TIP3    H240565   1.797   4.066  15.006  2.2129 -0.8822 -1.3960
 6384TIP3   OH240566   1.065   6.069  13.299  0.3921  0.4951  0.0458
 6384TIP3    H140567   1.113   6.047  13.219 -1.6757 -2.0397 -0.6519
 6384TIP3    H240568   1.115   6.027  13.369  1.5324  1.6705 -0.0195
 6385TIP3   OH240569   2.258   3.466  15.018 -0.6787  0.1070 -0.0989
 6385TIP3    H140570   2.308   3.532  15.067  0.3570 -0.2107 -0.7025
 6385TIP3    H240571   2.282   3.383  15.059 -2.0428  0.0861  0.7126
 6386TIP3   OH240572   5.542   6.123  12.063 -0.5409  0.8538 -0.0061
 6386TIP3    H140573   5.513   6.055  12.002 -0.3046  0.5172  0.2553
 6386TIP3    H240574   5.563   6.076  12.143  1.5010  0.9886 -0.4265
 6387TIP3   OH240575   4.571   0.741  11.645  1.0282 -0.2394  0.1064
 6387TIP3    H140576   4.634   0.811  11.626  0.3540  0.2862 -0.2584
 6387TIP3    H240577   4.582   0.724  11.739 -0.0890  1.6938  0.6470
 6388TIP3   OH240578   3.000   4.839  12.429  0.3635 -0.2649 -0.1823
 6388TIP3    H140579   2.944   4.762  12.413 -0.9391  0.9123 -1.6816
 6388TIP3    H240580   2.963   4.879  12.507  2.2494 -2.1167  1.8072
 6389TIP3   OH240581   2.425   1.187   3.655 -0.7513  0.3597  0.3167
 6389TIP3    H140582   2.420   1.239   3.735  0.9148  0.2587  0.5269
 6389TIP3    H240583   2.414   1.097   3.685 -0.6047  0.3613  0.3794
 6390TIP3   OH240584   6.567   3.329  13.804  0.2905 -0.7410  0.2128
 6390TIP3    H140585   6.506   3.257  13.824 -1.8490  1.3942  2.0678
 6390TIP3    H240586   6.518   3.385  13.744  0.4210  0.9582  1.6346
 6391TIP3   OH240587   5.426   1.216  11.755  1.3004 -0.2479  0.1773
 6391TIP3    H140588   5.512   1.177  11.743  1.6210  0.1435  1.1187
 6391TIP3    H240589   5.430   1.259  11.840  0.0144 -0.6500  0.4714
 6392TIP3   OH240590   1.923   1.756  10.969  0.6979  0.6032 -0.0525
 6392TIP3    H140591   1.941   1.673  10.923  1.3908  2.5600 -3.6980
 6392TIP3    H240592   1.828   1.756  10.981  0.8685 -1.6549  2.2935
 6393TIP3   OH240593   1.434   0.331  14.660  0.9110 -0.1141  0.4196
 6393TIP3    H140594   1.347   0.291  14.655  0.6309  0.2390  1.9962
 6393TIP3    H240595   1.488   0.279  14.599  0.2981 -2.1811  1.5319
 6394TIP3   OH240596   6.583   0.272  11.095  0.6910  0.3653 -0.1405
 6394TIP3    H140597   6.594   0.213  11.170 -0.3229  0.0302 -0.2433
 6394TIP3    H240598   6.587   0.214  11.018  3.4536  0.8951 -0.5080
 6395TIP3   OH240599   2.140   0.777   2.831 -0.2751 -0.3932 -0.1210
 6395TIP3    H140600   2.091   0.852   2.798 -0.6299 -0.6428 -0.1724
 6395TIP3    H240601   2.073   0.713   2.853  0.0862 -1.4208 -1.8179
 6396TIP3   OH240602   5.775   5.875   3.468 -0.0207  0.6989  0.1481
 6396TIP3    H140603   5.852   5.928   3.453  0.5126  0.0354  0.4847
 6396TIP3    H240604   5.760   5.881   3.563  0.9199 -0.8961  0.4346
 6397TIP3   OH240605   0.876   2.374   0.487  0.3714  0.3210  0.1653
 6397TIP3    H140606   0.957   2.363   0.437  0.3749  0.1119  0.2155
 6397TIP3    H240607   0.903   2.369   0.578  0.3488  0.5874  0.1871
 6398TIP3   OH240608   6.289   5.539   3.763  0.9023 -0.1436  0.7054
 6398TIP3    H140609   6.312   5.622   3.805  2.9909 -0.8000  0.9693
 6398TIP3    H240610   6.372   5.503   3.733 -0.2484 -0.8674 -1.8959
 6399TIP3   OH240611   1.286   6.133  15.808 -0.5238 -0.2636  0.8405
 6399TIP3    H140612   1.366   6.089  15.839  1.0160  0.7196 -1.4134
 6399TIP3    H240613   1.226   6.062  15.787  0.9885 -1.2387 -0.4061
 6400TIP3   OH240614   5.920   6.524  11.788 -0.1860  0.4104 -0.5500
 6400TIP3    H140615   5.906   6.615  11.762 -0.3027  0.8712  0.9969
 6400TIP3    H240616   5.909   6.525  11.883  0.2144 -1.1510 -0.4652
 6401TIP3   OH240617   2.521   3.924  13.366 -0.1547  0.1954 -0.1273
 6401TIP3    H140618   2.494   3.952  13.279 -0.7254  0.5590  0.1518
 6401TIP3    H240619   2.586   3.856  13.352 -0.3887  0.1188 -0.8350
 6402TIP3   OH240620   4.499   0.798   4.246  0.1796 -0.4763  0.3927
 6402TIP3    H140621   4.528   0.885   4.272  0.3435  0.0459 -1.3852
 6402TIP3    H240622   4.552   0.738   4.298  0.4308  0.4801  1.2628
 6403TIP3   OH240623   6.672   6.380   5.324  0.2410  0.2565  0.1102
 6403TIP3    H140624   6.727   6.428   5.386 -0.8468  0.9693  0.5514
 6403TIP3    H240625   6.599   6.440   5.306  0.1660 -0.2387 -1.2963
 6404TIP3   OH240626   4.034   5.940   1.126 -0.0429  0.3371 -0.2857
 6404TIP3    H140627   4.122   5.931   1.089  0.1122 -0.2630  0.2276
 6404TIP3    H240628   4.048   5.969   1.216 -0.2055 -3.0370  0.9374
 6405TIP3   OH240629   2.503   3.497   4.390 -0.2047  0.8038 -0.3183
 6405TIP3    H140630   2.497   3.497   4.294 -3.2584 -0.3319 -0.2221
 6405TIP3    H240631   2.510   3.404   4.413 -1.3984  0.9326  0.6128
 6406TIP3   OH240632   3.912   5.722  12.803  0.3999  0.0794  0.5247
 6406TIP3    H140633   3.977   5.653  12.814 -0.6838 -1.0692  0.0560
 6406TIP3    H240634   3.901   5.759  12.890  1.0060 -0.3344  0.7831
 6407TIP3   OH240635   0.257   4.869   1.933  0.1079  0.7555  0.0426
 6407TIP3    H140636   0.305   4.900   2.009  1.1698  1.8385 -1.0191
 6407TIP3    H240637   0.168   4.903   1.945  0.2553  0.8955  0.7914
 6408TIP3   OH240638   2.218   5.242  15.399 -0.0995  0.0063  0.1142
 6408TIP3    H140639   2.153   5.312  15.397 -0.7484 -0.5939 -0.3803
 6408TIP3    H240640   2.298   5.285  15.429 -0.9175  0.5845  1.5910
 6409TIP3   OH240641   6.439   1.962  15.120  0.5079 -0.1158  0.2092
 6409TIP3    H140642   6.446   2.010  15.037  1.9550  1.0650  0.9449
 6409TIP3    H240643   6.392   2.022  15.178  2.1627  0.3907  1.0878
 6410TIP3   OH240644   4.207   4.560  15.084 -0.4762  0.5447 -0.2526
 6410TIP3    H140645   4.124   4.551  15.129 -0.0728 -1.6051  0.1645
 6410TIP3    H240646   4.269   4.507  15.135  0.1249 -1.5282 -2.8923
 6411TIP3   OH240647   5.305   5.643  16.142 -0.2591 -0.1654  0.2115
 6411TIP3    H140648   5.288   5.549  16.147 -0.4815 -0.1791 -0.7502
 6411TIP3    H240649   5.222   5.684  16.166 -0.2064 -0.2093  0.4752
 6412TIP3   OH240650   5.312   3.794   4.725  0.0523 -0.1839 -0.2600
 6412TIP3    H140651   5.401   3.828   4.736  0.5569 -1.1307 -1.2350
 6412TIP3    H240652   5.324   3.702   4.701 -1.2116 -0.4459  0.0511
 6413TIP3   OH240653   3.550   0.201   4.477  0.2659  0.0895  0.3327
 6413TIP3    H140654   3.507   0.157   4.551 -0.4791  0.1669 -0.0444
 6413TIP3    H240655   3.536   0.294   4.493 -2.0132  0.0677 -1.1022
 6414TIP3   OH240656   1.455   5.031   3.772 -0.3365 -0.0906 -0.2728
 6414TIP3    H140657   1.497   5.082   3.841 -2.1683  2.1762 -0.7109
 6414TIP3    H240658   1.526   5.007   3.713  0.7943  0.6249  0.7496
 6415TIP3   OH240659   4.567   5.977   1.022  0.5675 -0.2932 -0.3967
 6415TIP3    H140660   4.518   6.059   1.024 -0.1530 -0.7287  1.4648
 6415TIP3    H240661   4.639   5.991   1.083  1.1648 -0.6465 -1.0026
 6416TIP3   OH240662   6.767   3.488  15.139  0.2221 -0.3133  0.8454
 6416TIP3    H140663   6.818   3.527  15.068 -0.9811  1.3220  0.8110
 6416TIP3    H240664   6.711   3.423  15.096 -2.9042  2.8887 -0.4376
 6417TIP3   OH240665   0.356   6.268  12.478 -0.2183  0.0765 -0.4066
 6417TIP3    H140666   0.442   6.233  12.501  0.0235 -1.9914 -3.7956
 6417TIP3    H240667   0.294   6.217  12.531  0.4453 -2.1762 -1.6716
 6418TIP3   OH240668   3.566   5.442   3.489 -0.0850  0.5844 -0.1717
 6418TIP3    H140669   3.645   5.392   3.465 -0.7392 -0.3288 -0.4914
 6418TIP3    H240670   3.531   5.472   3.405  0.0489  1.2049 -0.0117
 6419TIP3   OH240671   3.953   5.287   1.976  0.2556 -0.1825  0.1283
 6419TIP3    H140672   3.876   5.241   1.942  0.6092  0.1441 -1.1858
 6419TIP3    H240673   4.014   5.217   1.998 -0.7445 -0.5038  2.1645
 6420TIP3   OH240674   4.985   1.397   0.290  0.1776  0.0304 -0.3442
 6420TIP3    H140675   5.063   1.365   0.335 -0.2756  0.3521  0.6892
 6420TIP3    H240676   4.969   1.483   0.328 -1.1486 -0.3672  0.0562
 6421TIP3   OH240677   1.369   2.424  15.835 -0.1792  0.2414 -0.0198
 6421TIP3    H140678   1.369   2.340  15.789  0.6709  0.5586 -0.6331
 6421TIP3    H240679   1.280   2.458  15.823  0.5628  1.3698 -3.5165
 6422TIP3   OH240680   3.682   6.065   4.103  0.4529  0.1047  0.5208
 6422TIP3    H140681   3.709   6.021   4.023 -1.0773  1.7806 -1.0131
 6422TIP3    H240682   3.601   6.110   4.079  0.9577  2.2246  2.4718
 6423TIP3   OH240683   3.470   4.311  16.315  0.0926  0.8827 -0.3600
 6423TIP3    H140684   3.420   4.255  16.255  1.8377 -0.6743 -0.4511
 6423TIP3    H240685   3.526   4.363  16.259  1.1317  0.0165 -0.1654
 6424TIP3   OH240686   3.292   0.620   4.948 -0.1283  0.3289  0.1089
 6424TIP3    H140687   3.367   0.680   4.949 -0.4650  0.7511  0.7529
 6424TIP3    H240688   3.280   0.599   4.856  0.8121  0.2108 -0.0056
 6425TIP3   OH240689   5.073   5.478  14.129 -0.0889 -0.5353 -0.0156
 6425TIP3    H140690   5.039   5.393  14.100  0.3746 -1.2168  1.3776
 6425TIP3    H240691   5.017   5.502  14.203  1.7905 -1.2345  1.7212
 6426TIP3   OH240692   1.120   2.340   3.180  0.2764  0.2790 -0.2359
 6426TIP3    H140693   1.161   2.271   3.231 -0.3149  0.6512  0.7862
 6426TIP3    H240694   1.107   2.302   3.093  0.9430 -0.5080 -0.0009
 6427TIP3   OH240695   4.231   5.371   5.329  0.7019  0.1137  0.2730
 6427TIP3    H140696   4.263   5.392   5.416 -0.1416 -0.9311  0.8610
 6427TIP3    H240697   4.236   5.453   5.281 -0.4881  1.1397  1.8221
 6428TIP3   OH240698   0.588   3.106   4.138  0.2446  0.1167 -0.0695
 6428TIP3    H140699   0.512   3.157   4.110  0.1918  0.0811  0.0047
 6428TIP3    H240700   0.651   3.115   4.067  0.4404  0.7166  0.1759
 6429TIP3   OH240701   6.156   1.206  11.812 -0.5018 -0.5725  0.4288
 6429TIP3    H140702   6.177   1.113  11.819  0.5110 -0.4722 -0.8946
 6429TIP3    H240703   6.206   1.247  11.883  0.3569 -0.8490 -0.0113
 6430TIP3   OH240704   1.556   4.528   0.294 -0.5062 -0.1072  0.2688
 6430TIP3    H140705   1.615   4.538   0.368  0.1335 -3.0277  0.3064
 6430TIP3    H240706   1.479   4.581   0.315  0.8052  1.2876  1.6870
 6431TIP3   OH240707   1.541   6.142   1.232  0.3430  0.3412  0.3075
 6431TIP3    H140708   1.541   6.067   1.290 -0.0330  0.3726  0.3513
 6431TIP3    H240709   1.451   6.175   1.235  0.6610  1.2043  0.8243
 6432TIP3   OH240710   3.288   5.749   4.036  0.2113  0.3004 -0.5621
 6432TIP3    H140711   3.299   5.844   4.037  0.6779  0.2568  0.7432
 6432TIP3    H240712   3.376   5.715   4.052 -0.3552 -0.2696  1.7210
 6433TIP3   OH240713   6.541   4.472   4.801 -0.2113 -0.4153  0.3375
 6433TIP3    H140714   6.575   4.533   4.735 -0.1752 -0.5005  0.2765
 6433TIP3    H240715   6.578   4.504   4.883  1.3102 -1.4074  0.0897
 6434TIP3   OH240716   3.360   1.751   5.659  0.2380 -0.5034 -0.0138
 6434TIP3    H140717   3.354   1.804   5.738 -1.1656 -0.7608  0.0847
 6434TIP3    H240718   3.409   1.806   5.597  0.3017  0.1943  0.6397
 6435TIP3   OH240719   3.128   5.330   2.372  0.3115 -0.4116  0.5054
 6435TIP3    H140720   3.078   5.376   2.440  0.1653 -1.1108  0.8809
 6435TIP3    H240721   3.201   5.389   2.352  1.2182 -0.8272  2.3436
 6436TIP3   OH240722   4.516   3.346   3.787 -0.8980 -0.7580  0.0893
 6436TIP3    H140723   4.563   3.423   3.757 -2.1423  0.8755  2.0797
 6436TIP3    H240724   4.585   3.286   3.816  0.0710 -0.1486 -0.8709
 6437TIP3   OH240725   4.606   2.332  12.427 -0.5626  0.0844 -0.3325
 6437TIP3    H140726   4.669   2.404  12.431  1.8594 -1.9399  0.8504
 6437TIP3    H240727   4.537   2.357  12.489  1.1767  0.5800  1.5032
 6438TIP3   OH240728   1.702   0.580  12.171 -0.2550 -0.3980  0.2813
 6438TIP3    H140729   1.643   0.533  12.112 -1.5261  1.5873 -0.0794
 6438TIP3    H240730   1.775   0.607  12.115  0.1202 -1.2525  0.3374
 6439TIP3   OH240731   1.669   6.086   5.091  0.2527 -0.1335  0.2769
 6439TIP3    H140732   1.636   6.161   5.141 -0.8030 -0.4297  0.0557
 6439TIP3    H240733   1.697   6.124   5.008 -2.5195 -0.2133 -0.8176
 6440TIP3   OH240734   4.813   0.673  11.037  0.2382 -0.8045  0.0100
 6440TIP3    H140735   4.785   0.615  10.966  2.3704  0.0694 -1.6620
 6440TIP3    H240736   4.900   0.641  11.061  0.7857  0.7191  0.1669
 6441TIP3   OH240737   6.629   5.267  11.264  0.2981  0.2755 -0.0840
 6441TIP3    H140738   6.536   5.252  11.247  0.4947 -0.4008 -0.6498
 6441TIP3    H240739   6.658   5.187  11.308 -0.0104  1.6568  2.8636
 6442TIP3   OH240740   2.433   6.225  12.465 -0.8228 -0.3975  0.1662
 6442TIP3    H140741   2.396   6.269  12.389  1.4934  0.6291 -0.4602
 6442TIP3    H240742   2.392   6.138  12.464 -3.5617  0.8088 -0.0726
 6443TIP3   OH240743   3.650   3.431  17.267 -0.0363  0.5675 -0.1842
 6443TIP3    H140744   3.689   3.357  17.219 -2.6274 -1.6586  0.8451
 6443TIP3    H240745   3.708   3.444  17.342  0.4016 -0.5557 -0.3105
 6444TIP3   OH240746   1.486   0.590  12.769  0.3680  0.0964 -0.7264
 6444TIP3    H140747   1.486   0.570  12.863  1.1817 -2.0338 -1.1349
 6444TIP3    H240748   1.543   0.667  12.762 -0.4040  0.8435  0.5842
 6445TIP3   OH240749   1.330   5.323  11.254  0.0769 -0.0535 -0.2636
 6445TIP3    H140750   1.326   5.410  11.213  0.4074  0.2908  0.4155
 6445TIP3    H240751   1.238   5.298  11.266 -0.0267  0.4296 -0.0094
 6446TIP3   OH240752   5.881   4.815   4.574 -0.3971 -0.5560 -0.4448
 6446TIP3    H140753   5.943   4.742   4.579  1.4583  0.9292 -0.9066
 6446TIP3    H240754   5.807   4.779   4.526  1.2141 -1.6597 -2.2496
 6447TIP3   OH240755   2.538   0.414   1.278  0.0540  0.1243 -0.3917
 6447TIP3    H140756   2.474   0.456   1.219 -0.9757  0.1432  0.6945
 6447TIP3    H240757   2.509   0.440   1.366 -0.5240 -2.6855  0.3336
 6448TIP3   OH240758   1.842   2.926   1.998  0.1685 -0.2208  0.4019
 6448TIP3    H140759   1.804   2.911   1.912  1.3582 -1.8481  0.1014
 6448TIP3    H240760   1.770   2.911   2.059  0.0537 -2.3878 -0.1830
 6449TIP3   OH240761   4.589   1.148  13.733  0.1637 -0.4772  0.3588
 6449TIP3    H140762   4.496   1.148  13.709  0.2052 -1.0890  0.1908
 6449TIP3    H240763   4.617   1.058  13.721  0.6691 -0.3905  0.8668
 6450TIP3   OH240764   4.543   3.529  11.649 -0.9431 -0.1423 -0.2802
 6450TIP3    H140765   4.547   3.433  11.650 -2.2856 -0.2069  0.2770
 6450TIP3    H240766   4.629   3.556  11.616 -0.5363 -1.5322 -0.4146
 6451TIP3   OH240767   0.678   5.245   1.669  0.3415 -0.6899 -0.2989
 6451TIP3    H140768   0.592   5.240   1.712  0.3900 -0.8745 -0.2216
 6451TIP3    H240769   0.712   5.331   1.694 -0.1919 -0.2593 -1.0379
 6452TIP3   OH240770   5.123   5.695  14.506  0.2802 -0.0598  0.2483
 6452TIP3    H140771   5.192   5.631  14.522  0.7184  0.7245  1.6200
 6452TIP3    H240772   5.056   5.646  14.457  1.0894 -1.2485  0.2887
 6453TIP3   OH240773   2.520   6.562  15.997 -0.0102 -0.1227 -0.4658
 6453TIP3    H140774   2.456   6.492  16.008 -0.3102  0.1943 -0.1907
 6453TIP3    H240775   2.474   6.629  15.948  0.4593 -0.3552 -1.2493
 6454TIP3   OH240776   3.459   3.622  11.632 -0.5318  0.3616  0.3382
 6454TIP3    H140777   3.390   3.689  11.632  0.7083  1.7352 -0.8804
 6454TIP3    H240778   3.506   3.638  11.550 -0.4618 -2.3574 -0.2444
 6455TIP3   OH240779   3.774   3.280   4.789 -0.1299 -0.2273  0.0004
 6455TIP3    H140780   3.818   3.264   4.706 -0.0712  0.1124 -0.0371
 6455TIP3    H240781   3.779   3.375   4.801 -0.0530 -0.2843  0.4401
 6456TIP3   OH240782   1.038   0.844   2.819  0.4759  0.4682  0.2919
 6456TIP3    H140783   0.983   0.895   2.880  1.0371  0.9232  0.4271
 6456TIP3    H240784   1.049   0.760   2.863 -1.1487 -0.0973 -0.3114
 6457TIP3   OH240785   5.775   2.609  14.929 -0.2107  0.4112  0.0640
 6457TIP3    H140786   5.761   2.627  15.022 -0.3848 -0.1116  0.1396
 6457TIP3    H240787   5.764   2.515  14.920 -0.5693  0.5027 -0.5516
 6458TIP3   OH240788   1.228   4.940   1.163 -0.4586  0.2751  0.2981
 6458TIP3    H140789   1.228   5.017   1.220  3.4526  0.9279 -0.2813
 6458TIP3    H240790   1.200   4.973   1.078  0.8694  1.0511  0.1370
 6459TIP3   OH240791   5.177   4.659   3.142 -0.1906  0.5979 -0.2786
 6459TIP3    H140792   5.171   4.755   3.144 -0.7602  0.5956 -1.2328
 6459TIP3    H240793   5.107   4.632   3.082  0.0601 -0.4099 -0.1355
 6460TIP3   OH240794   5.361   6.752   5.811 -0.3424  0.8331  0.0055
 6460TIP3    H140795   5.409   6.754   5.894  2.9851  0.0245 -1.7034
 6460TIP3    H240796   5.415   6.802   5.750 -1.5901 -0.2866 -2.1709
 6461TIP3   OH240797   5.485   2.317   0.776 -0.1549  0.0150  0.3986
 6461TIP3    H140798   5.408   2.326   0.721 -0.5952  0.5167  1.0797
 6461TIP3    H240799   5.452   2.325   0.866  0.3221 -2.3201  0.8513
 6462TIP3   OH240800   5.119   6.748  14.453  0.1141 -0.1014  0.7277
 6462TIP3    H140801   5.155   6.749  14.365 -0.2122 -1.0026  0.5794
 6462TIP3    H240802   5.093   6.657  14.468 -0.4712  0.1803  1.4900
 6463TIP3   OH240803   3.730   6.684   0.638  0.5414 -0.1446  0.2123
 6463TIP3    H140804   3.710   6.629   0.714 -1.2970  0.0599 -0.0861
 6463TIP3    H240805   3.788   6.752   0.672  0.9140 -0.8914  1.1023
 6464TIP3   OH240806   4.507   6.052   5.414 -0.5297  0.0919 -0.1022
 6464TIP3    H140807   4.530   6.060   5.322 -0.5471  0.6798 -0.0638
 6464TIP3    H240808   4.586   6.078   5.461 -0.2806 -0.9319  0.0587
 6465TIP3   OH240809   4.708   3.160   1.750  0.3231  0.1017 -0.1841
 6465TIP3    H140810   4.683   3.190   1.663  0.1186  0.7681  0.0984
 6465TIP3    H240811   4.625   3.147   1.796  0.3763 -1.5041 -0.4841
 6466TIP3   OH240812   1.812   2.027  12.729 -0.1602 -0.0987 -1.0577
 6466TIP3    H140813   1.907   2.035  12.738 -0.2834  1.3637 -0.8299
 6466TIP3    H240814   1.790   2.086  12.657 -0.9220 -0.2918 -0.9847
 6467TIP3   OH240815   2.519   5.266  11.143  0.5465  0.9887  0.0727
 6467TIP3    H140816   2.599   5.218  11.164 -0.7402 -0.7395  1.2784
 6467TIP3    H240817   2.468   5.205  11.090  0.2375  2.2885 -1.1843
 6468TIP3   OH240818   3.889   0.568  15.192  0.4898 -0.2445 -0.8604
 6468TIP3    H140819   3.934   0.527  15.267 -1.2719 -0.9856 -0.1466
 6468TIP3    H240820   3.935   0.650  15.179 -0.4173  0.9811  2.4728
 6469TIP3   OH240821   3.430   1.591   1.699  0.0303  0.2260 -0.7046
 6469TIP3    H140822   3.382   1.672   1.678 -2.7724 -0.9572  0.6870
 6469TIP3    H240823   3.378   1.521   1.660  1.5029 -1.0667 -0.4538
 6470TIP3   OH240824   2.956   6.134  12.056  0.1619 -0.1156  0.2287
 6470TIP3    H140825   2.952   6.177  11.971  1.1070 -0.1662  0.1520
 6470TIP3    H240826   2.873   6.086  12.062  0.2513 -0.4286 -0.8328
 6471TIP3   OH240827   6.622   2.198  16.576 -0.1329  0.1435  0.3130
 6471TIP3    H140828   6.567   2.121  16.591  0.0704 -0.2292 -0.7832
 6471TIP3    H240829   6.563   2.272  16.590 -0.8142 -0.2470 -0.4009
 6472TIP3   OH240830   4.688   3.272   0.317 -0.2586 -0.2752  0.1129
 6472TIP3    H140831   4.722   3.203   0.260 -0.7397 -0.5252  0.1297
 6472TIP3    H240832   4.753   3.278   0.387  0.0289 -0.3806 -0.1383
 6473TIP3   OH240833   5.068   4.116  12.362  0.0566  0.6206  0.2186
 6473TIP3    H140834   5.134   4.184  12.352 -0.1414  0.6607 -0.9074
 6473TIP3    H240835   5.030   4.132  12.448  0.7591  1.2667  0.4172
 6474TIP3   OH240836   3.833   5.705  15.610 -0.1292 -0.3878  0.6203
 6474TIP3    H140837   3.840   5.616  15.644  0.3842 -0.7286 -0.3459
 6474TIP3    H240838   3.796   5.755  15.682 -2.3319 -1.7755  0.5397
 6475TIP3   OH240839   1.537   3.486  11.852 -0.6358  0.1803 -0.5634
 6475TIP3    H140840   1.603   3.547  11.818 -1.4413  0.4203 -1.7341
 6475TIP3    H240841   1.454   3.518  11.817 -1.6565  0.9045  2.2839
 6476TIP3   OH240842   1.130   1.630  12.132 -0.4074 -0.7661 -0.7310
 6476TIP3    H140843   1.146   1.579  12.211 -0.5875  0.7217  0.2991
 6476TIP3    H240844   1.151   1.570  12.060  1.7243 -1.5332  0.4510
 6477TIP3   OH240845   1.517   3.197  11.784  0.1944  0.5092 -0.4140
 6477TIP3    H140846   1.550   3.109  11.768 -1.2054  0.0122 -0.6963
 6477TIP3    H240847   1.458   3.215  11.711 -0.3341  1.2572  0.1721
 6478TIP3   OH240848   5.045   2.212  16.338  0.0489  0.5200 -0.0844
 6478TIP3    H140849   4.966   2.227  16.390 -0.3347 -0.0657 -0.4935
 6478TIP3    H240850   5.013   2.183  16.253  0.7353 -1.5200  0.3051
 6479TIP3   OH240851   1.554   6.083  16.876 -0.4965 -0.4336  0.4524
 6479TIP3    H140852   1.617   6.102  16.807  0.0767 -1.8909  0.5367
 6479TIP3    H240853   1.490   6.025  16.835 -1.2542  0.2479  0.6355
 6480TIP3   OH240854   5.936   5.927   4.771  0.1921 -0.2128  0.1570
 6480TIP3    H140855   5.874   5.855   4.781 -0.9184  0.7654  0.5927
 6480TIP3    H240856   5.949   5.935   4.676 -0.8020 -0.0766  0.0223
 6481TIP3   OH240857   2.899   0.338  11.498  0.7851  0.0781  0.2830
 6481TIP3    H140858   2.963   0.269  11.482  0.4088 -0.2816  0.2889
 6481TIP3    H240859   2.878   0.372  11.411 -1.2828 -1.8966 -0.0974
 6482TIP3   OH240860   2.226   3.387   1.154 -0.4121  0.1529  0.2860
 6482TIP3    H140861   2.131   3.382   1.150 -0.5062  2.0211 -0.9094
 6482TIP3    H240862   2.250   3.453   1.089  1.8942 -2.1797 -1.4705
 6483TIP3   OH240863   4.163   0.909   0.955 -0.3851 -0.0156  0.1469
 6483TIP3    H140864   4.147   0.818   0.982  1.9583  0.1581  2.4225
 6483TIP3    H240865   4.089   0.958   0.991 -1.3659 -0.8917 -0.5972
 6484TIP3   OH240866   1.129   4.993  12.591  0.9737 -0.6064 -0.0152
 6484TIP3    H140867   1.103   4.980  12.500 -2.7318 -0.0289  0.7994
 6484TIP3    H240868   1.221   4.966  12.594  2.0089  1.5404 -4.3578
 6485TIP3   OH240869   2.581   2.021  15.206 -0.2605  0.3658 -0.3781
 6485TIP3    H140870   2.581   1.929  15.180  0.8664  0.0021  0.7830
 6485TIP3    H240871   2.674   2.045  15.211 -0.5328  1.4955 -0.4251
 6486TIP3   OH240872   2.084   3.084   5.534 -0.3263  0.0573  0.1486
 6486TIP3    H140873   1.992   3.103   5.554 -0.5310  0.9676 -1.5703
 6486TIP3    H240874   2.094   3.104   5.441  1.7107  0.3103  0.3779
 6487TIP3   OH240875   1.259   5.034  12.971  0.1876  0.2520  0.5552
 6487TIP3    H140876   1.167   5.047  12.997  0.2017  0.6545  0.4176
 6487TIP3    H240877   1.262   4.946  12.934 -0.2791  0.4644 -0.0077
 6488TIP3   OH240878   0.968   3.908  16.499 -0.1941  0.0402  0.0576
 6488TIP3    H140879   0.969   3.985  16.442  0.1392 -0.2039 -0.2702
 6488TIP3    H240880   0.880   3.908  16.538  0.2082  1.2670  0.9973
 6489TIP3   OH240881   0.638   0.798  15.578  0.0552  0.0257 -0.1339
 6489TIP3    H140882   0.638   0.851  15.658  0.3049  2.1398 -1.4750
 6489TIP3    H240883   0.588   0.849  15.515 -0.0077 -1.5242 -1.3977
 6490TIP3   OH240884   5.496   1.988   5.619 -0.1616 -0.1659  0.3607
 6490TIP3    H140885   5.575   2.016   5.572 -0.0484 -0.2652  0.4894
 6490TIP3    H240886   5.503   1.892   5.621 -0.2603 -0.1717  0.4166
 6491TIP3   OH240887   0.493   6.607  16.643 -0.9469  0.0104  0.7685
 6491TIP3    H140888   0.460   6.529  16.688 -0.6768  0.4462  1.7534
 6491TIP3    H240889   0.495   6.674  16.711 -0.5540  0.7015  0.0861
 6492TIP3   OH240890   0.313   1.599   2.723 -0.3833 -0.1829 -0.3557
 6492TIP3    H140891   0.288   1.691   2.728 -0.9477 -0.3988  1.5109
 6492TIP3    H240892   0.348   1.588   2.634 -1.0657  1.6200 -0.8826
 6493TIP3   OH240893   6.448   4.210  15.108 -0.0621  0.3104  0.8583
 6493TIP3    H140894   6.459   4.118  15.132  0.0422  0.0548 -0.1231
 6493TIP3    H240895   6.354   4.226  15.112 -0.6932 -1.1133 -3.2125
 6494TIP3   OH240896   4.132   2.351   0.320 -0.3009 -0.5401 -0.2039
 6494TIP3    H140897   4.044   2.315   0.309 -0.7763  0.2616  0.6948
 6494TIP3    H240898   4.132   2.385   0.410  1.1716 -1.1524  0.0459
 6495TIP3   OH240899   5.668   5.145  14.196  0.3608 -0.2247  0.6333
 6495TIP3    H140900   5.684   5.170  14.287 -0.2104 -2.5345  1.4186
 6495TIP3    H240901   5.751   5.165  14.151  0.5840  1.1302  1.5753
 6496TIP3   OH240902   6.652   0.397  12.449  0.4698 -0.2473 -0.2546
 6496TIP3    H140903   6.580   0.455  12.427  0.2213 -0.5018 -0.1166
 6496TIP3    H240904   6.729   0.454  12.453  0.1370  0.1640  0.4301
 6497TIP3   OH240905   4.578   4.710   5.219  0.4581 -0.4182 -0.4483
 6497TIP3    H140906   4.606   4.726   5.129  1.5364  1.5325  0.2005
 6497TIP3    H240907   4.487   4.680   5.210  0.2934  0.4683 -2.1310
 6498TIP3   OH240908   5.707   3.984   0.444  0.3910 -0.2388 -0.3037
 6498TIP3    H140909   5.773   3.921   0.472 -0.0786 -0.5593  0.1076
 6498TIP3    H240910   5.669   3.946   0.364  0.4363 -0.2417 -0.3237
 6499TIP3   OH240911   2.844   3.461   3.814 -0.4043  0.1607 -0.0619
 6499TIP3    H140912   2.776   3.474   3.748 -0.6035 -2.2411 -0.4382
 6499TIP3    H240913   2.925   3.456   3.763 -0.0181  1.9986  0.2913
 6500TIP3   OH240914   0.201   2.370  16.965  0.3922  0.3353 -0.2063
 6500TIP3    H140915   0.150   2.297  16.930 -0.5521  0.5919  0.5938
 6500TIP3    H240916   0.258   2.331  17.031  0.2738  0.2436 -0.1602
 6501TIP3   OH240917   3.334   5.250  13.871 -0.4123  1.0215 -0.6140
 6501TIP3    H140918   3.379   5.327  13.835  1.0567  0.0604 -0.9422
 6501TIP3    H240919   3.338   5.262  13.966  1.5210  0.4753 -0.5886
 6502TIP3   OH240920   3.413   1.980  11.607 -0.2720  0.6272 -0.8761
 6502TIP3    H140921   3.402   1.917  11.679 -1.0140  0.9478 -0.7030
 6502TIP3    H240922   3.444   2.060  11.650 -1.1866  0.9736 -0.8338
 6503TIP3   OH240923   4.699   0.699  12.353 -0.2469 -0.9121  0.4055
 6503TIP3    H140924   4.764   0.630  12.338 -0.0050 -0.8606  1.1666
 6503TIP3    H240925   4.615   0.659  12.333  0.0591 -0.7696 -1.3093
 6504TIP3   OH240926   5.612   6.722   0.228 -0.6639  0.1347 -0.1501
 6504TIP3    H140927   5.668   6.800   0.219  0.5267 -0.7663 -0.8842
 6504TIP3    H240928   5.617   6.700   0.321  1.3714 -0.7073 -0.4011
 6505TIP3   OH240929   5.690   6.469   0.126  0.0816 -0.4751 -0.0759
 6505TIP3    H140930   5.652   6.552   0.155  2.2913  0.6606 -0.2183
 6505TIP3    H240931   5.616   6.420   0.091 -1.2243  1.6489 -0.4839
 6506TIP3   OH240932   2.383   4.013   4.101 -0.4408 -0.1208 -0.1189
 6506TIP3    H140933   2.335   3.931   4.109 -1.9192  0.5149 -1.7142
 6506TIP3    H240934   2.415   4.013   4.011 -1.7729  1.6561 -0.6643
 6507TIP3   OH240935   2.230   5.639  14.560  0.2331  0.8680 -0.4987
 6507TIP3    H140936   2.171   5.665  14.489  0.3623  0.0606 -0.9112
 6507TIP3    H240937   2.313   5.682  14.540  0.7990 -0.7490 -1.8274
 6508TIP3   OH240938   0.364   6.440  11.275 -0.2171  0.1348 -0.2876
 6508TIP3    H140939   0.407   6.457  11.191  1.3145  2.3595  0.8413
 6508TIP3    H240940   0.432   6.397  11.327 -0.3925  0.8039  0.5064
 6509TIP3   OH240941   6.613   5.640  15.822  0.1957 -0.2772 -0.5030
 6509TIP3    H140942   6.695   5.594  15.837  0.6735  0.6645 -0.1374
 6509TIP3    H240943   6.633   5.703  15.753  0.5479  1.7823  1.3540
 6510TIP3   OH240944   5.018   0.012  15.423  0.3509  0.0610  0.5250
 6510TIP3    H140945   5.016   0.019  15.519 -1.4007 -1.6165  0.6737
 6510TIP3    H240946   5.001   0.101  15.393 -2.8586  0.0582  1.8892
 6511TIP3   OH240947   3.563   5.727   4.143 -0.0240 -0.0231  0.6114
 6511TIP3    H140948   3.618   5.661   4.102  1.7819  0.4906  2.0831
 6511TIP3    H240949   3.553   5.697   4.234  0.8277  1.6826  1.3098
 6512TIP3   OH240950   2.612   3.146  11.568 -0.3832  0.7889 -0.2643
 6512TIP3    H140951   2.586   3.154  11.476 -1.6652 -0.7269 -0.0690
 6512TIP3    H240952   2.653   3.060  11.574 -1.6544  0.2420  0.8625
 6513TIP3   OH240953   4.417   2.320  16.362 -0.8589  0.6411 -0.4934
 6513TIP3    H140954   4.463   2.264  16.299 -1.0025 -1.7111  1.3450
 6513TIP3    H240955   4.442   2.285  16.448 -0.0258  4.2018  0.8925
 6514TIP3   OH240956   0.699   3.674  14.200 -0.7759 -0.7730  0.2125
 6514TIP3    H140957   0.778   3.637  14.160 -0.0773  0.6317  0.2458
 6514TIP3    H240958   0.688   3.625  14.281 -0.8771 -2.0732 -0.5631
 6515TIP3   OH240959   6.056   1.714  10.549 -0.6517 -0.2343 -0.6010
 6515TIP3    H140960   5.975   1.762  10.534 -0.4095  0.7164  0.9254
 6515TIP3    H240961   6.052   1.688  10.641  0.6686 -0.3659 -0.5611
 6516TIP3   OH240962   0.662   5.866   5.446  0.4927 -0.0089  0.0774
 6516TIP3    H140963   0.690   5.922   5.519  0.3444 -3.0079  2.6231
 6516TIP3    H240964   0.579   5.829   5.475 -0.8378  0.5071 -2.7497
 6517TIP3   OH240965   0.210   1.669   0.429 -0.6608  0.2686  0.1677
 6517TIP3    H140966   0.234   1.755   0.395 -1.5413  0.7736  0.7902
 6517TIP3    H240967   0.293   1.623   0.438 -0.2340  0.8246 -0.7653
 6518TIP3   OH240968   6.637   6.329   2.172  0.1559  0.4724 -0.5578
 6518TIP3    H140969   6.633   6.255   2.232  2.0084  1.5918  1.0694
 6518TIP3    H240970   6.729   6.355   2.173 -0.2708  2.1856 -1.8530
 6519TIP3   OH240971   3.843   0.660  14.078 -0.8936  0.0519  0.4888
 6519TIP3    H140972   3.797   0.593  14.029 -0.8536  0.4392 -0.0882
 6519TIP3    H240973   3.863   0.619  14.163 -1.3148 -0.4825  0.3315
 6520TIP3   OH240974   1.479   3.336  15.317 -0.1170  0.2871 -0.0015
 6520TIP3    H140975   1.398   3.373  15.353 -0.3470  0.0686 -0.2865
 6520TIP3    H240976   1.468   3.241  15.326 -0.7587  0.1431 -1.8158
 6521TIP3   OH240977   5.106   2.671   4.907  0.3676 -0.4811 -0.5085
 6521TIP3    H140978   5.155   2.698   4.829 -0.1739 -0.0914 -0.7226
 6521TIP3    H240979   5.087   2.752   4.953 -1.4475 -0.4443 -1.2607
 6522TIP3   OH240980   0.310   4.458  16.452  0.2967 -0.3374  0.2248
 6522TIP3    H140981   0.260   4.520  16.398  0.8214  1.2326  1.4610
 6522TIP3    H240982   0.245   4.393  16.480 -0.6264  0.5540  0.2072
 6523TIP3   OH240983   3.602   6.765  15.190 -0.2142  0.0479  0.5056
 6523TIP3    H140984   3.654   6.840  15.159  1.5654 -1.1888  0.3222
 6523TIP3    H240985   3.650   6.733  15.266 -1.8189  0.0097  1.5527
 6524TIP3   OH240986   6.680   4.995  13.216 -0.3296  0.1485  0.3710
 6524TIP3    H140987   6.759   4.944  13.200  0.0453  0.7009  0.4484
 6524TIP3    H240988   6.637   4.998  13.131  0.7062  1.4685 -0.1302
 6525TIP3   OH240989   0.879   0.139  12.346 -0.5283  0.1251 -0.1168
 6525TIP3    H140990   0.959   0.134  12.398 -1.3145 -0.9458  1.0548
 6525TIP3    H240991   0.819   0.191  12.399 -0.5615  1.0893 -1.0771
 6526TIP3   OH240992   2.683   1.494   0.670  0.5050  0.1169  0.6534
 6526TIP3    H140993   2.722   1.561   0.726 -0.8092  0.7765  0.8189
 6526TIP3    H240994   2.713   1.411   0.707  1.9950  0.5986  0.5611
 6527TIP3   OH240995   4.466   4.478  12.868 -0.8648 -0.2507  0.3115
 6527TIP3    H140996   4.449   4.441  12.955 -0.7644 -2.3456 -0.5012
 6527TIP3    H240997   4.551   4.521  12.877 -0.7415 -0.6475  1.1910
 6528TIP3   OH240998   0.950   0.891  12.534  0.6489 -0.0803 -0.3468
 6528TIP3    H140999   0.958   0.986  12.521  0.3651 -0.3128 -2.5211
 6528TIP3    H241000   0.879   0.882  12.598  0.6822  1.1772 -0.1026
 6529TIP3   OH241001   4.008   4.397  15.689 -0.5755 -0.3955 -0.3181
 6529TIP3    H141002   3.926   4.406  15.739  0.1720  1.0258  0.7597
 6529TIP3    H241003   4.068   4.355  15.750 -0.2823 -0.7335 -0.8379
 6530TIP3   OH241004   1.931   0.971   4.899  0.1860 -0.4102  0.5787
 6530TIP3    H141005   1.992   0.992   4.829  1.5939  0.1554  1.9096
 6530TIP3    H241006   1.984   0.924   4.963 -0.4593  1.0855  2.2992
 6531TIP3   OH241007   4.742   4.563  12.520 -0.3756  0.1626  0.3778
 6531TIP3    H141008   4.702   4.476  12.530 -2.6380  0.9539 -0.9759
 6531TIP3    H241009   4.826   4.546  12.478  0.4369 -1.5215  2.4600
 6532TIP3   OH241010   3.843   1.117  15.671  0.2716  0.0090  0.5927
 6532TIP3    H141011   3.771   1.067  15.708  0.2488 -0.2813  0.1567
 6532TIP3    H241012   3.820   1.209  15.687 -0.3236 -0.0703  0.2182
 6533TIP3   OH241013   3.826   6.578   0.026  0.2865 -0.5213 -0.0396
 6533TIP3    H141014   3.826   6.639  -0.047  0.6447 -0.8396 -0.3109
 6533TIP3    H241015   3.823   6.633   0.104 -0.0325 -0.1797 -0.2930
 6534TIP3   OH241016   0.374   6.622   3.726  0.3249  0.0095 -0.5607
 6534TIP3    H141017   0.413   6.562   3.790  3.7942  1.5883 -0.9672
 6534TIP3    H241018   0.284   6.635   3.757  0.4889 -2.6989  1.4080
 6535TIP3   OH241019   1.748   0.595  15.696  0.6026 -0.5859  0.1943
 6535TIP3    H141020   1.801   0.543  15.636  0.5882 -1.1971  0.7047
 6535TIP3    H241021   1.769   0.686  15.674 -1.6457 -0.6254 -2.8321
 6536TIP3   OH241022   4.204   5.583  14.088  0.4671 -0.4487 -0.2929
 6536TIP3    H141023   4.223   5.672  14.058  0.2067 -1.0740 -2.4988
 6536TIP3    H241024   4.134   5.593  14.152 -0.0066  0.8729 -0.9926
 6537TIP3   OH241025   1.278   1.518   2.845 -0.5695  0.3964 -0.1897
 6537TIP3    H141026   1.183   1.521   2.831 -0.5512 -0.2523 -0.4891
 6537TIP3    H241027   1.314   1.577   2.779 -0.8047  1.1900  0.3792
 6538TIP3   OH241028   3.142   5.494   5.113  0.6686 -0.6408  0.0250
 6538TIP3    H141029   3.150   5.521   5.022  0.8332 -1.3415 -0.1679
 6538TIP3    H241030   3.082   5.559   5.151 -1.1056 -1.5392 -1.0950
 6539TIP3   OH241031   3.507   2.098   1.576 -0.1525 -0.3737 -0.0278
 6539TIP3    H141032   3.497   2.071   1.667 -2.7157 -1.2456 -0.4918
 6539TIP3    H241033   3.532   2.018   1.530  1.0264  0.0431 -0.1544
 6540TIP3   OH241034   4.896   5.827   1.114 -0.1803 -0.3773 -0.1430
 6540TIP3    H141035   4.861   5.892   1.053  0.8905 -0.1793 -0.5796
 6540TIP3    H241036   4.860   5.743   1.084  0.3513 -0.2817 -1.0768
 6541TIP3   OH241037   3.650   5.302  13.365 -0.3111  0.5896  0.3172
 6541TIP3    H141038   3.661   5.394  13.339 -1.5399  0.4455 -0.7958
 6541TIP3    H241039   3.716   5.255  13.315 -0.4274  0.7378  0.0194
 6542TIP3   OH241040   0.493   4.658   6.585  0.3322 -0.3807  0.3669
 6542TIP3    H141041   0.414   4.704   6.558 -0.0031 -0.8804  0.4948
 6542TIP3    H241042   0.555   4.674   6.514  0.6553  1.3420  0.9845
 6543TIP3   OH241043   4.166   5.952   3.655 -0.6442 -0.1655  0.2308
 6543TIP3    H141044   4.254   5.917   3.669  1.0496  3.2189 -0.9569
 6543TIP3    H241045   4.121   5.884   3.604  1.7892 -1.3661 -0.4649
 6544TIP3   OH241046   2.003   5.868  14.653  0.0894 -0.6032  0.1873
 6544TIP3    H141047   2.011   5.834  14.564 -0.5700  0.1318 -0.1581
 6544TIP3    H241048   2.070   5.936  14.659 -0.9514  0.4843 -0.2988
 6545TIP3   OH241049   0.677   0.260   4.757  0.9236  0.2487  0.1455
 6545TIP3    H141050   0.631   0.268   4.673 -0.8248  3.3278  1.2335
 6545TIP3    H241051   0.728   0.341   4.764  2.0084 -0.5124  1.5386
 6546TIP3   OH241052   0.689   1.005   4.346 -0.2987  0.1495  0.6046
 6546TIP3    H141053   0.624   1.049   4.293  0.3966  0.6190  0.1319
 6546TIP3    H241054   0.645   0.991   4.430 -0.6092  1.5599  0.7072
 6547TIP3   OH241055   5.264   6.355  14.650 -0.5732  0.4089 -0.3365
 6547TIP3    H141056   5.266   6.445  14.682 -1.3524  0.9399 -1.6669
 6547TIP3    H241057   5.355   6.337  14.624 -0.5994  1.1943 -1.0138
 6548TIP3   OH241058   3.771   0.244   3.222 -0.2440  0.6667 -0.1280
 6548TIP3    H141059   3.736   0.288   3.299 -1.4026  0.1069 -0.3187
 6548TIP3    H241060   3.744   0.153   3.230 -1.2636  0.7952 -1.6747
 6549TIP3   OH241061   2.599   2.371  14.556 -0.1409  0.0161  0.3372
 6549TIP3    H141062   2.607   2.430  14.482  0.7164 -0.8639 -0.3007
 6549TIP3    H241063   2.533   2.411  14.612 -1.1724  0.4438 -1.1340
 6550TIP3   OH241064   5.669   5.778  15.960 -0.0946 -0.2945  0.0770
 6550TIP3    H141065   5.685   5.691  15.996  2.2377  0.4977  1.1815
 6550TIP3    H241066   5.727   5.836  16.011 -1.7843  1.9548 -0.4006
 6551TIP3   OH241067   0.685   2.472   2.641  0.0449 -0.2586 -0.1989
 6551TIP3    H141068   0.598   2.434   2.657 -0.4175  0.6336 -0.5540
 6551TIP3    H241069   0.698   2.532   2.714 -0.2478  0.6474 -0.8718
 6552TIP3   OH241070   4.321   0.734   2.073 -0.1838 -0.3600  0.0158
 6552TIP3    H141071   4.242   0.680   2.069  0.2627 -1.0921  0.7984
 6552TIP3    H241072   4.367   0.705   2.152  1.8389 -1.2740 -1.4146
 6553TIP3   OH241073   2.310   2.733  14.438 -0.0085  0.2865 -0.2544
 6553TIP3    H141074   2.303   2.713  14.345  0.9888 -0.5841 -0.1655
 6553TIP3    H241075   2.296   2.827  14.443  0.2176  0.3938 -1.3248
 6554TIP3   OH241076   6.662   3.628  13.858  0.6009 -0.0079 -0.0099
 6554TIP3    H141077   6.632   3.561  13.919  0.8207  1.0754  1.3566
 6554TIP3    H241078   6.737   3.589  13.814  1.3088 -0.3503  1.4376
 6555TIP3   OH241079   3.194   0.060  13.999 -0.0179  0.1872 -0.3321
 6555TIP3    H141080   3.246  -0.019  14.015 -0.2529  0.1256  0.1603
 6555TIP3    H241081   3.235   0.101  13.923  1.2439  0.5602  0.5176
 6556TIP3   OH241082   4.489   1.326  13.906  0.2189  0.0884  0.0636
 6556TIP3    H141083   4.569   1.304  13.857  0.6201  0.5700  0.4852
 6556TIP3    H241084   4.520   1.342  13.996 -0.2874  0.7351  0.1293
 6557TIP3   OH241085   0.680   5.343   5.799 -0.2787 -0.0933 -0.1993
 6557TIP3    H141086   0.732   5.375   5.873 -0.9707  0.5263  0.0288
 6557TIP3    H241087   0.689   5.412   5.732  1.3928 -1.2266 -1.2114
 6558TIP3   OH241088   4.835   0.352   0.940 -0.5968  0.0909 -0.0302
 6558TIP3    H141089   4.827   0.420   0.873  0.4407 -0.3580 -0.6518
 6558TIP3    H241090   4.752   0.306   0.938 -0.3621 -0.3212 -1.4966
 6559TIP3   OH241091   3.518   0.166   0.097 -0.0434  0.0817 -0.1956
 6559TIP3    H141092   3.476   0.152   0.182  0.5925  1.2478  0.3348
 6559TIP3    H241093   3.559   0.252   0.104  2.5128 -0.9989 -0.6496
 6560TIP3   OH241094   3.268   2.847   0.309 -0.1727 -0.1009 -0.1655
 6560TIP3    H141095   3.219   2.860   0.390 -0.3065  1.0571 -0.4175
 6560TIP3    H241096   3.207   2.801   0.251  0.2376 -1.8076  0.6716
 6561TIP3   OH241097   2.369   1.195  11.929  0.1825 -0.0682 -0.0095
 6561TIP3    H141098   2.414   1.221  12.008 -0.6095 -1.1945  0.8544
 6561TIP3    H241099   2.426   1.222  11.858  1.1413  0.5191  0.9640
 6562TIP3   OH241100   4.048   6.667   0.537 -0.5580 -0.0329  0.4922
 6562TIP3    H141101   4.129   6.689   0.582  0.4342  0.3046 -1.3748
 6562TIP3    H241102   4.043   6.728   0.464 -1.8408 -0.8854 -0.1727
 6563TIP3   OH241103   4.411   1.601  15.050 -0.1342  0.3029 -0.1190
 6563TIP3    H141104   4.379   1.686  15.019  1.0232  0.3541 -1.2724
 6563TIP3    H241105   4.450   1.560  14.972  0.2230 -0.8622  0.6430
 6564TIP3   OH241106   5.288   6.658  15.988  0.2073  0.1382 -0.3735
 6564TIP3    H141107   5.359   6.600  15.960  0.6454 -0.0940  1.1148
 6564TIP3    H241108   5.228   6.600  16.035  0.5209  0.8015  0.9057
 6565TIP3   OH241109   6.735   5.484   4.489  0.0776  0.6790  0.1341
 6565TIP3    H141110   6.777   5.485   4.404 -0.7013  0.7732 -0.2606
 6565TIP3    H241111   6.644   5.461   4.471  0.3884 -1.6349  1.1669
 6566TIP3   OH241112   2.953   2.892  16.180  0.3919 -0.0942 -0.5987
 6566TIP3    H141113   2.918   2.804  16.172 -0.4739  0.2164 -0.3320
 6566TIP3    H241114   2.876   2.949  16.177  0.5711  0.4868  2.4134
 6567TIP3   OH241115   4.677   5.265  16.244 -0.7330  0.1155  0.3373
 6567TIP3    H141116   4.718   5.343  16.205 -0.4481  0.0513  0.5058
 6567TIP3    H241117   4.594   5.255  16.197 -2.6288  2.7332  2.7587
 6568TIP3   OH241118   3.937   2.130   0.858 -0.4669  0.1002 -0.0572
 6568TIP3    H141119   3.881   2.204   0.880  1.5930  1.8408 -0.3834
 6568TIP3    H241120   4.007   2.132   0.923  0.1979 -0.9239 -0.7067
 6569TIP3   OH241121   1.825   4.470  12.794  0.4797 -0.1221 -0.5074
 6569TIP3    H141122   1.908   4.429  12.817  0.6501  0.9497  0.9530
 6569TIP3    H241123   1.803   4.434  12.708  1.9779 -1.1279 -0.5033
 6570TIP3   OH241124   1.237   4.489  14.305 -0.2242  0.3332 -0.9418
 6570TIP3    H141125   1.266   4.418  14.248 -0.2830  0.2306 -0.8462
 6570TIP3    H241126   1.312   4.507  14.361 -0.5613 -0.4024 -0.2334
 6571TIP3   OH241127   0.130   0.220  10.917  0.3411  0.1983 -0.5829
 6571TIP3    H141128   0.222   0.233  10.892  0.1732  1.6170 -0.5553
 6571TIP3    H241129   0.110   0.296  10.972 -0.6938 -0.3884 -0.1238
 6572TIP3   OH241130   3.439   0.374  16.451  0.4149 -0.0759 -0.0027
 6572TIP3    H141131   3.357   0.419  16.428  0.1090 -1.5835 -2.2270
 6572TIP3    H241132   3.434   0.363  16.546 -1.8211  0.1711 -0.0229
 6573TIP3   OH241133   1.683   3.825   1.318  0.0787 -0.1885  0.2168
 6573TIP3    H141134   1.675   3.909   1.365 -0.9689 -0.3991  0.4344
 6573TIP3    H241135   1.777   3.813   1.308  0.3218  0.1410  1.7767
 6574TIP3   OH241136   6.164   1.543  14.143 -0.3333 -0.0401  0.5565
 6574TIP3    H141137   6.121   1.487  14.208 -1.8571  1.6340  1.0803
 6574TIP3    H241138   6.163   1.491  14.062 -0.5312 -1.2422  1.3088
 6575TIP3   OH241139   3.974   1.761  17.110 -0.2834  0.0839 -0.3889
 6575TIP3    H141140   4.063   1.738  17.086 -0.9102 -1.8879 -1.0141
 6575TIP3    H241141   3.937   1.802  17.032  0.9683  4.1208  0.8541
 6576TIP3   OH241142   2.671   3.010   6.276 -0.1744 -0.5028  0.2664
 6576TIP3    H141143   2.590   2.975   6.313 -1.5027  2.7169  0.7016
 6576TIP3    H241144   2.716   3.051   6.350  0.6303 -0.0785 -0.4396
 6577TIP3   OH241145   5.375   3.969  15.193  0.6443  0.5261 -0.3210
 6577TIP3    H141146   5.365   4.063  15.208 -2.4221  0.3626 -0.6037
 6577TIP3    H241147   5.385   3.932  15.280  0.1369  0.9840 -0.0585
 6578TIP3   OH241148   3.559   0.625  16.136  0.1312 -0.4120 -0.0456
 6578TIP3    H141149   3.619   0.686  16.093  0.3359 -1.2511 -1.0140
 6578TIP3    H241150   3.584   0.627  16.228  0.6348  0.3780 -0.1890
 6579TIP3   OH241151   4.126   4.919  13.310 -0.1102 -0.0522  0.4247
 6579TIP3    H141152   4.195   4.866  13.271  0.9233 -0.2099  2.3717
 6579TIP3    H241153   4.046   4.892  13.264  0.9156 -0.6740 -1.0808
 6580TIP3   OH241154   6.273   5.125  14.618  0.1401 -0.2054  0.8134
 6580TIP3    H141155   6.225   5.046  14.640 -1.1326 -0.5520 -2.6588
 6580TIP3    H241156   6.217   5.196  14.648 -1.8848 -0.6428 -1.5794
 6581TIP3   OH241157   5.164   3.534  12.574  0.5397  0.2745  0.0446
 6581TIP3    H141158   5.228   3.465  12.554  0.2269 -0.2764  0.8462
 6581TIP3    H241159   5.079   3.492  12.561  0.3374  0.2716  1.2039
 6582TIP3   OH241160   2.234   1.422  14.117  0.2003  0.1265  0.5282
 6582TIP3    H141161   2.326   1.447  14.107  1.0218 -2.2801  1.2297
 6582TIP3    H241162   2.222   1.351  14.055 -1.1052  0.1741  0.7012
 6583TIP3   OH241163   1.767   3.362  13.434  0.0162  0.3644  0.5764
 6583TIP3    H141164   1.702   3.397  13.373 -1.2850 -1.5982  0.7357
 6583TIP3    H241165   1.828   3.434  13.449 -0.8106  1.5387 -1.4007
 6584TIP3   OH241166   2.279   5.603  10.318 -0.2455 -0.5207  0.6983
 6584TIP3    H141167   2.194   5.578  10.282  1.4235 -1.7784 -2.8825
 6584TIP3    H241168   2.308   5.526  10.368  0.3023 -1.7064 -1.3102
 6585TIP3   OH241169   1.077   3.007  16.222 -0.4714 -0.1753  0.1326
 6585TIP3    H141170   1.045   3.092  16.193 -1.1600 -0.5787 -0.3325
 6585TIP3    H241171   1.009   2.973  16.280 -0.3557 -0.5465  0.0568
 6586TIP3   OH241172   4.025   1.137   5.510 -0.0818 -0.1883  0.4310
 6586TIP3    H141173   4.088   1.065   5.513  1.6413  1.1937 -0.6989
 6586TIP3    H241174   3.960   1.109   5.447  1.2373 -0.2985 -0.9436
 6587TIP3   OH241175   3.759   4.700  10.828 -0.7011 -0.0581  0.0011
 6587TIP3    H141176   3.742   4.765  10.896  0.2482 -0.3296  0.5048
 6587TIP3    H241177   3.678   4.649  10.824 -1.6224  1.3787 -0.6808
 6588TIP3   OH241178   5.432   5.085  10.659 -0.9033  0.2856  0.3197
 6588TIP3    H141179   5.355   5.057  10.609 -1.2375  1.4012  0.1831
 6588TIP3    H241180   5.486   5.006  10.667 -0.0605  0.3757 -3.1336
 6589TIP3   OH241181   5.980   4.967   6.448 -0.0932  0.9355 -0.4083
 6589TIP3    H141182   6.073   4.978   6.468  0.3344 -1.0590 -1.1080
 6589TIP3    H241183   5.958   5.043   6.394  0.6344  2.3797  1.2535
 6590TIP3   OH241184   2.231   3.334   3.752  0.2082 -0.0429 -0.6588
 6590TIP3    H141185   2.300   3.277   3.787 -1.8712 -2.0330  0.4544
 6590TIP3    H241186   2.270   3.374   3.674  1.9781 -2.6155 -1.2214
 6591TIP3   OH241187   1.703   2.397  16.648  0.7713  0.2990 -0.0353
 6591TIP3    H141188   1.671   2.369  16.562  1.9728 -0.2653 -0.3398
 6591TIP3    H241189   1.745   2.318  16.684 -2.5541 -0.5162  2.5717
 6592TIP3   OH241190   0.605   5.641  16.191  0.2032  0.1291 -0.3651
 6592TIP3    H141191   0.553   5.566  16.218  1.6877 -1.2188 -1.0725
 6592TIP3    H241192   0.545   5.716  16.198 -2.4629 -1.5332 -2.8966
 6593TIP3   OH241193   3.925   4.663  12.132  0.2208 -0.0910 -0.0190
 6593TIP3    H141194   4.003   4.609  12.122  1.0481  1.1107 -0.3061
 6593TIP3    H241195   3.958   4.746  12.167 -1.1632 -0.1794  1.6103
 6594TIP3   OH241196   2.326   1.243   1.256 -0.7214 -0.5649 -0.3390
 6594TIP3    H141197   2.280   1.159   1.258  2.0779 -2.2133  0.6002
 6594TIP3    H241198   2.376   1.245   1.338 -0.4684  1.9083 -0.4863
 6595TIP3   OH241199   2.503   0.348   3.935  0.0367 -0.0720 -0.4169
 6595TIP3    H141200   2.583   0.401   3.929  0.2487 -0.2136  0.8773
 6595TIP3    H241201   2.436   0.409   3.965  0.3463 -0.5537  1.3628
 6596TIP3   OH241202   0.812   2.007  11.525 -0.5277 -0.0191  0.3891
 6596TIP3    H141203   0.840   1.993  11.435  0.3304 -0.9406  0.7855
 6596TIP3    H241204   0.717   2.022  11.519 -0.2461  1.5950 -0.8161
 6597TIP3   OH241205   3.094   5.423   0.799 -0.4204  0.1947  0.1730
 6597TIP3    H141206   3.071   5.330   0.788  2.1928 -0.3111 -2.1787
 6597TIP3    H241207   3.043   5.469   0.733 -1.8749  0.5073  1.4798
 6598TIP3   OH241208   5.945   2.344   5.525 -0.1470 -0.0191  0.1971
 6598TIP3    H141209   5.942   2.327   5.619  0.5693  1.6442  0.5459
 6598TIP3    H241210   5.927   2.437   5.516  2.2187  0.3898 -1.0890
 6599TIP3   OH241211   4.954   4.155   1.814  0.5917  0.0372  0.8069
 6599TIP3    H141212   5.022   4.208   1.771  0.5976 -1.0139 -0.5577
 6599TIP3    H241213   4.872   4.189   1.779  0.6277 -1.3451 -0.7613
 6600TIP3   OH241214   1.758   1.179  16.982 -0.4801  0.1735  0.4156
 6600TIP3    H141215   1.789   1.207  16.896 -0.3219 -1.1226  0.0397
 6600TIP3    H241216   1.688   1.117  16.963 -1.1094  0.6005  1.2444
 6601TIP3   OH241217   6.101   4.050  12.838 -0.0108  0.4903  0.0726
 6601TIP3    H141218   6.098   4.019  12.747  3.1117 -0.2149  0.0912
 6601TIP3    H241219   6.010   4.053  12.865 -0.9216 -1.5245 -2.3548
 6602TIP3   OH241220   5.809   0.565   2.438 -0.2203 -0.2558  0.7310
 6602TIP3    H141221   5.871   0.637   2.448  1.2981 -1.7967  4.6158
 6602TIP3    H241222   5.741   0.583   2.503 -1.0649 -1.1931  0.1483
 6603TIP3   OH241223   3.187   5.050  12.504  0.0853  0.4657  0.3745
 6603TIP3    H141224   3.176   5.125  12.446 -0.2106  0.5130  0.4928
 6603TIP3    H241225   3.101   5.009  12.508  0.1490  0.3507  0.6279
 6604TIP3   OH241226   4.926   3.676  16.496  0.4286  0.8849  0.0359
 6604TIP3    H141227   4.999   3.727  16.532  0.2487  1.4536 -0.3936
 6604TIP3    H241228   4.923   3.597  16.551  1.9748  0.3851 -0.5489
 6605TIP3   OH241229   3.738   3.927  11.266 -0.3335  0.2510  0.2485
 6605TIP3    H141230   3.776   3.839  11.265  1.6404  0.9824  1.7476
 6605TIP3    H241231   3.713   3.944  11.175  0.5310 -1.3344 -0.3238
 6606TIP3   OH241232   3.919   2.254  11.875 -0.1719 -0.7708 -0.3309
 6606TIP3    H141233   3.897   2.183  11.814 -0.8917  1.2492 -2.5480
 6606TIP3    H241234   3.835   2.289  11.903  0.1470 -1.5196  1.8005
 6607TIP3   OH241235   3.827   0.612   5.681 -0.1665  0.3307  0.4444
 6607TIP3    H141236   3.892   0.573   5.739 -0.4647 -0.4447  0.2624
 6607TIP3    H241237   3.804   0.543   5.620 -0.7058  0.7922  0.1147
 6608TIP3   OH241238   0.115   3.575  13.144 -0.0732  0.5545  0.3711
 6608TIP3    H141239   0.020   3.585  13.155 -0.4432 -3.0575  2.1580
 6608TIP3    H241240   0.124   3.508  13.076  1.1034 -0.1857  1.2145
 6609TIP3   OH241241   2.943   0.526  15.940 -0.0304 -0.2114  0.1282
 6609TIP3    H141242   2.900   0.534  15.855 -1.9101  1.1086  1.1245
 6609TIP3    H241243   2.959   0.432  15.951 -0.8518 -0.5191 -1.1577
 6610TIP3   OH241244   1.316   1.639   1.227 -0.3439 -0.0250 -0.0406
 6610TIP3    H141245   1.252   1.585   1.272  0.3664  0.9723  2.2943
 6610TIP3    H241246   1.398   1.626   1.275  0.1295  2.1456 -0.1374
 6611TIP3   OH241247   6.622   3.342   0.520 -0.0554 -1.0641  0.0060
 6611TIP3    H141248   6.527   3.332   0.520 -0.2239  0.2740 -0.1717
 6611TIP3    H241249   6.636   3.437   0.516  1.2896 -1.2571 -0.4841
 6612TIP3   OH241250   1.020   4.231   0.864 -0.0288 -0.9346 -0.2962
 6612TIP3    H141251   1.103   4.257   0.825 -1.0968  0.7526 -1.6352
 6612TIP3    H241252   1.020   4.271   0.951 -0.3402  1.0590 -1.1571
 6613TIP3   OH241253   3.220   5.711  15.022  0.1023 -0.0393  0.5434
 6613TIP3    H141254   3.277   5.739  15.093  1.8799 -1.2206 -0.3245
 6613TIP3    H241255   3.163   5.645  15.061 -0.5653  1.0033  1.3807
 6614TIP3   OH241256   1.348   2.891  15.424 -0.0768  0.5410  0.0874
 6614TIP3    H141257   1.321   2.808  15.386 -0.4929  0.9066 -0.4330
 6614TIP3    H241258   1.296   2.899  15.504  0.5406 -0.0634  0.5592
 6615TIP3   OH241259   3.772   3.014  13.368 -0.5487 -0.4568 -0.2709
 6615TIP3    H141260   3.865   3.032  13.377 -0.5733 -0.6235  0.3404
 6615TIP3    H241261   3.732   3.053  13.445 -0.9835 -0.4173 -0.5123
 6616TIP3   OH241262   0.046   4.162  14.102 -0.5537  0.2348  0.2982
 6616TIP3    H141263   0.116   4.218  14.134 -0.6357 -1.2930  3.4799
 6616TIP3    H241264  -0.032   4.218  14.103  0.0531  1.1359 -0.5327
 6617TIP3   OH241265   4.394   2.733   3.927 -0.2119 -0.0536  0.5292
 6617TIP3    H141266   4.485   2.749   3.950 -0.1772  0.5895 -0.0179
 6617TIP3    H241267   4.360   2.818   3.901 -0.9884 -0.2742  0.7715
 6618TIP3   OH241268   3.783   6.038  15.403  0.2105  0.9233  0.2842
 6618TIP3    H141269   3.691   6.021  15.425  0.5913  1.0097  2.0843
 6618TIP3    H241270   3.811   6.104  15.467  1.6695  0.5280  0.0799
 6619TIP3   OH241271   3.137   3.956  12.795 -0.7156 -0.1755  0.2844
 6619TIP3    H141272   3.208   3.953  12.859 -0.8001  0.9665  0.4688
 6619TIP3    H241273   3.117   3.865  12.775  0.4938 -0.5119  0.5705
 6620TIP3   OH241274   6.744   3.477  17.080  0.4467 -0.2374 -0.0733
 6620TIP3    H141275   6.718   3.401  17.133 -1.6432  0.2774 -0.2769
 6620TIP3    H241276   6.668   3.535  17.082  1.8433  1.6901 -0.2712
 6621TIP3   OH241277   3.548   0.363  13.491  0.3286 -0.1315 -0.1650
 6621TIP3    H141278   3.485   0.397  13.428  0.2367 -0.5548 -0.3073
 6621TIP3    H241279   3.501   0.360  13.574 -0.1513 -1.3370 -0.4590
 6622TIP3   OH241280   3.406   0.482   5.851 -0.4016  0.8834 -0.5891
 6622TIP3    H141281   3.353   0.514   5.925  0.2655  0.7467 -0.0352
 6622TIP3    H241282   3.438   0.561   5.809  2.2261  1.0758  1.4890
 6623TIP3   OH241283   2.835   2.123   5.508  0.0321 -0.1037 -0.1407
 6623TIP3    H141284   2.843   2.044   5.454 -2.2133 -0.3065 -0.2538
 6623TIP3    H241285   2.802   2.091   5.592  1.8258  0.4195  0.8058
 6624TIP3   OH241286   2.540   0.865   1.664  0.5279 -0.3611  0.5154
 6624TIP3    H141287   2.506   0.811   1.593 -0.3778  1.2238 -0.3092
 6624TIP3    H241288   2.463   0.889   1.715  0.8441  0.5170  0.5959
 6625TIP3   OH241289   2.102   2.363  17.228 -0.0818 -0.7582 -0.5685
 6625TIP3    H141290   2.086   2.269  17.237  0.0921 -0.7008  0.4715
 6625TIP3    H241291   2.192   2.369  17.196 -0.5220 -0.9667 -1.8867
 6626TIP3   OH241292   4.892   2.130   0.891 -0.0218 -0.0316  0.7360
 6626TIP3    H141293   4.917   2.205   0.946  1.5488  0.3651 -0.4231
 6626TIP3    H241294   4.954   2.062   0.916  2.4872  0.9517 -2.1795
 6627TIP3   OH241295   1.082   3.516  16.188  0.1970  0.1266  0.2876
 6627TIP3    H141296   1.078   3.598  16.139  2.7143 -0.1738 -0.5458
 6627TIP3    H241297   1.041   3.537  16.273 -2.8510  1.0774 -1.2598
 6628TIP3   OH241298   4.641   5.692  13.318 -0.2698 -0.6163 -0.6036
 6628TIP3    H141299   4.673   5.602  13.324 -0.1929 -0.5569 -0.0862
 6628TIP3    H241300   4.721   5.745  13.306 -0.2794 -0.5798 -0.5082
 6629TIP3   OH241301   5.365   0.513  16.285  0.1356 -0.2764  0.2696
 6629TIP3    H141302   5.293   0.451  16.297  0.2874 -0.0734  2.5227
 6629TIP3    H241303   5.322   0.593  16.254 -0.3705 -0.7018 -0.1510
 6630TIP3   OH241304   6.640   2.767  16.170  0.1808  0.4397  0.2963
 6630TIP3    H141305   6.688   2.847  16.192  0.9793  0.7306 -2.2346
 6630TIP3    H241306   6.709   2.702  16.152 -0.4572 -0.8088  2.0634
 6631TIP3   OH241307   2.439   4.600  12.476  0.2306  0.3877  0.4686
 6631TIP3    H141308   2.488   4.526  12.439  1.5839  1.0260  0.9277
 6631TIP3    H241309   2.419   4.572  12.565 -2.4268 -0.8660 -0.4351
 6632TIP3   OH241310   2.877   1.554  14.247 -0.5702 -0.5041  0.1190
 6632TIP3    H141311   2.875   1.506  14.164 -1.5532 -0.0953 -0.1110
 6632TIP3    H241312   2.933   1.501  14.304  0.9978 -0.2459 -1.1134
 6633TIP3   OH241313   6.454   1.845  12.664  0.3431  0.3287  0.4060
 6633TIP3    H141314   6.484   1.762  12.627  1.2937  1.1216 -0.6895
 6633TIP3    H241315   6.491   1.847  12.752  1.7655  0.3091 -0.1567
 6634TIP3   OH241316   2.635   4.854  13.123  0.1743  0.0372  0.5312
 6634TIP3    H141317   2.568   4.900  13.173 -0.0669  1.1809 -0.8138
 6634TIP3    H241318   2.601   4.765  13.114 -1.3670  0.6908 -0.4463
 6635TIP3   OH241319   4.425   0.118  13.591  0.3930  0.2554 -0.2077
 6635TIP3    H141320   4.403   0.111  13.499  0.5303 -1.1134 -0.1519
 6635TIP3    H241321   4.398   0.035  13.629  0.8009  0.6028  0.8859
 6636TIP3   OH241322   4.677   1.876  12.605 -0.1656  0.3790 -0.4260
 6636TIP3    H141323   4.766   1.841  12.605 -0.0183  0.7225  0.3481
 6636TIP3    H241324   4.668   1.918  12.690  0.1255  3.4352 -1.7906
 6637TIP3   OH241325   4.845   0.146   2.045  0.0750  0.0343 -0.3577
 6637TIP3    H141326   4.934   0.179   2.058 -0.4471  1.7957 -0.9860
 6637TIP3    H241327   4.806   0.207   1.983 -1.6272 -0.6087  0.0329
 6638TIP3   OH241328   1.124   3.200   6.527 -0.1873  0.2905 -0.2411
 6638TIP3    H141329   1.084   3.253   6.459 -0.8421 -0.2029 -0.2422
 6638TIP3    H241330   1.070   3.121   6.532  0.4550 -0.1392  0.1351
 6639TIP3   OH241331   3.297   3.619   2.800  0.6682 -0.1354  0.5037
 6639TIP3    H141332   3.338   3.688   2.747  0.0601 -1.0372 -1.2242
 6639TIP3    H241333   3.247   3.567   2.737 -0.7846 -0.7856  2.1126
 6640TIP3   OH241334   1.653   4.475  16.444 -0.0322 -0.2351  0.1338
 6640TIP3    H141335   1.606   4.515  16.370  0.9706 -2.2242 -1.6797
 6640TIP3    H241336   1.584   4.454  16.507 -1.0785  0.3833 -0.7537
 6641TIP3   OH241337   3.463   4.469  11.114 -0.2376 -0.1671 -0.2869
 6641TIP3    H141338   3.411   4.534  11.067  0.1501 -0.6004 -1.3507
 6641TIP3    H241339   3.441   4.482  11.206 -1.7554  0.0696 -0.6658
 6642TIP3   OH241340   4.876   1.638  12.240 -0.1269 -0.0215  0.2423
 6642TIP3    H141341   4.866   1.640  12.145  2.1204  0.4408 -0.0256
 6642TIP3    H241342   4.800   1.686  12.273 -1.2531 -0.7067 -1.2634
 6643TIP3   OH241343   0.690   6.441  12.659  0.1893 -0.2925  0.1553
 6643TIP3    H141344   0.668   6.478  12.574  1.0728 -0.0333  0.0226
 6643TIP3    H241345   0.653   6.502  12.722 -0.1416 -0.2843 -0.0438
 6644TIP3   OH241346   2.361   6.423  13.214  0.3758  0.0383  0.2909
 6644TIP3    H141347   2.434   6.403  13.155  0.3159  0.3767  0.0973
 6644TIP3    H241348   2.377   6.514  13.241  0.2195 -0.0050  0.5288
 6645TIP3   OH241349   0.552   2.492  11.426 -0.3120  0.5234  0.6969
 6645TIP3    H141350   0.471   2.441  11.436 -0.0909 -0.3198 -1.1869
 6645TIP3    H241351   0.530   2.559  11.362  0.5011  0.1661  0.0149
 6646TIP3   OH241352   4.457   3.032   2.644  0.0305 -0.4668  0.3366
 6646TIP3    H141353   4.376   3.029   2.592  0.8326 -0.3230 -0.9595
 6646TIP3    H241354   4.438   3.094   2.714 -0.6941  0.2336 -0.4644
 6647TIP3   OH241355   3.889   6.475   3.135  0.1481 -0.0699  0.0556
 6647TIP3    H141356   3.922   6.515   3.214 -0.0142 -0.3238  0.2553
 6647TIP3    H241357   3.885   6.381   3.155 -4.4687  0.2061  1.5189
 6648TIP3   OH241358   4.143   5.506  14.597  0.2198 -0.7209  0.1228
 6648TIP3    H141359   4.050   5.523  14.615  0.6783  2.2652  0.1132
 6648TIP3    H241360   4.156   5.538  14.508  1.7962  1.6615  1.1158
 6649TIP3   OH241361   3.706   6.460   4.645  0.4662  0.2940  0.0154
 6649TIP3    H141362   3.787   6.467   4.695  0.1000  1.6807  0.4728
 6649TIP3    H241363   3.725   6.508   4.564  0.8611 -1.4313 -0.9727
 6650TIP3   OH241364   3.315   4.441   0.852 -0.2124 -0.1121  0.1255
 6650TIP3    H141365   3.380   4.377   0.821  0.8985  0.4349  1.2650
 6650TIP3    H241366   3.352   4.526   0.829 -1.3139  0.1768 -0.6704
 6651TIP3   OH241367   1.076   3.876  14.165 -0.0939 -0.3577  0.8439
 6651TIP3    H141368   1.158   3.862  14.117 -0.6563 -0.2434 -0.1725
 6651TIP3    H241369   1.104   3.919  14.246  0.8407 -0.1961  0.4567
 6652TIP3   OH241370   5.409   6.204   2.566  0.0757  0.0641  0.3972
 6652TIP3    H141371   5.318   6.203   2.594  0.2273  1.3653  0.9988
 6652TIP3    H241372   5.452   6.264   2.627  1.2688 -0.2739 -0.0891
 6653TIP3   OH241373   5.742   5.540   3.916 -0.2073  0.1241  0.4285
 6653TIP3    H141374   5.667   5.499   3.874 -0.4847  0.7971  0.2606
 6653TIP3    H241375   5.717   5.631   3.927  0.8234  0.5015 -0.1935
 6654TIP3   OH241376   6.205   2.960   5.199  0.1083  0.8272  0.2057
 6654TIP3    H141377   6.280   3.020   5.205  0.8818 -0.0715 -0.1196
 6654TIP3    H241378   6.193   2.928   5.288 -1.3024  2.5877  0.7053
 6655TIP3   OH241379   6.658   5.011  11.380 -0.2946 -0.2738 -0.3609
 6655TIP3    H141380   6.569   4.977  11.376 -0.7535  0.7986  0.3630
 6655TIP3    H241381   6.709   4.951  11.325 -1.8025  0.2043 -2.4107
 6656TIP3   OH241382   6.639   6.453  12.913 -0.0521 -0.2350  0.2402
 6656TIP3    H141383   6.590   6.490  12.987 -0.8790  0.6258 -0.6922
 6656TIP3    H241384   6.603   6.498  12.836  1.7453 -0.0930 -0.5650
 6657TIP3   OH241385   6.549   5.145  16.211  0.4018 -0.1262  0.2877
 6657TIP3    H141386   6.566   5.122  16.302 -0.1400 -0.5937  0.2843
 6657TIP3    H241387   6.568   5.064  16.163  0.7720  0.1464 -0.0218
 6658TIP3   OH241388   3.562   2.360   6.405 -0.6438  0.3500 -0.6244
 6658TIP3    H141389   3.610   2.288   6.362 -0.6117 -1.2388  1.8742
 6658TIP3    H241390   3.471   2.344   6.383 -0.5837 -0.1496 -0.5216
 6659TIP3   OH241391   0.834   4.495  15.500 -0.2584 -0.3362 -0.1728
 6659TIP3    H141392   0.769   4.427  15.517 -0.9538  0.5019  0.5983
 6659TIP3    H241393   0.789   4.577  15.519  0.0789  0.4833 -2.5619
 6660TIP3   OH241394   4.625   1.422  13.296 -0.8923  0.4241  0.0119
 6660TIP3    H141395   4.626   1.407  13.390 -0.8236  3.0189  0.4939
 6660TIP3    H241396   4.533   1.411  13.271 -0.7391 -1.4128  0.1132
 6661TIP3   OH241397   0.725   3.475   0.557 -0.0762  0.0883  0.2207
 6661TIP3    H141398   0.709   3.480   0.463  1.0241 -0.1885  0.0100
 6661TIP3    H241399   0.775   3.554   0.577  1.2085 -0.7199  0.2496
 6662TIP3   OH241400   4.139   0.507   0.094  0.0671  0.3630 -0.2762
 6662TIP3    H141401   4.088   0.542   0.167 -0.7775  1.6598 -1.4172
 6662TIP3    H241402   4.114   0.415   0.089 -0.3085  0.4002  0.7029
 6663TIP3   OH241403   0.640   2.708  11.588 -0.1827 -0.4478 -0.0831
 6663TIP3    H141404   0.633   2.624  11.542  0.1365 -0.0172 -0.9348
 6663TIP3    H241405   0.629   2.686  11.681 -0.6156 -1.3616 -0.3420
 6664TIP3   OH241406   5.067   4.531   1.321  0.0690  0.3538  0.3957
 6664TIP3    H141407   5.132   4.598   1.344 -0.3327  0.3696  1.5348
 6664TIP3    H241408   5.095   4.453   1.367  0.9963 -0.5362 -1.5911
 6665TIP3   OH241409   1.633   5.762   5.046  0.1174  0.2202  0.0715
 6665TIP3    H141410   1.563   5.822   5.070  1.0951  0.8222  1.5461
 6665TIP3    H241411   1.709   5.818   5.031  0.7077 -0.5425  0.1397
 6666TIP3   OH241412   1.699   6.086  13.742  0.3059  0.5889 -0.1622
 6666TIP3    H141413   1.692   6.161  13.801 -1.7196  0.8501 -0.6797
 6666TIP3    H241414   1.705   6.010  13.801 -3.8115  0.6335  0.5953
 6667TIP3   OH241415   0.543   3.515   1.403  0.4379  0.5940 -0.4850
 6667TIP3    H141416   0.470   3.455   1.388  0.2343  0.5947  0.4271
 6667TIP3    H241417   0.521   3.592   1.351 -1.4370  1.5488  1.5378
 6668TIP3   OH241418   6.241   5.673  15.363  0.1497  0.4390  0.2925
 6668TIP3    H141419   6.267   5.759  15.398 -2.8767  1.4917  0.2553
 6668TIP3    H241420   6.148   5.683  15.342 -1.2221 -3.6613  3.0443
 6669TIP3   OH241421   3.926   3.469  17.072 -0.2749  0.1867  0.3907
 6669TIP3    H141422   3.999   3.502  17.124  1.0949 -0.6012 -0.9401
 6669TIP3    H241423   3.906   3.384  17.111 -0.6564  0.5041  0.9007
 6670TIP3   OH241424   4.060   4.083   1.442 -0.5619 -0.3400  0.5625
 6670TIP3    H141425   4.050   4.123   1.355  1.2750  1.0134  0.9184
 6670TIP3    H241426   3.992   4.126   1.495 -0.7417 -0.1050  0.1524
 6671TIP3   OH241427   4.100   5.994   0.815  0.7692 -0.0728  0.0131
 6671TIP3    H141428   4.091   6.068   0.875  1.2569  0.4174 -0.5096
 6671TIP3    H241429   4.010   5.974   0.789  0.5389 -0.3798  0.9986
 6672TIP3   OH241430   2.171   6.159   0.059 -0.2564  0.1038  0.3609
 6672TIP3    H141431   2.229   6.235   0.055 -0.8129  0.4953 -1.6536
 6672TIP3    H241432   2.211   6.102   0.124  0.6317  1.7426  1.3284
 6673TIP3   OH241433   2.885   6.343  10.798 -0.2711 -1.1768 -0.2057
 6673TIP3    H141434   2.823   6.414  10.785  0.5711 -0.8155 -3.0660
 6673TIP3    H241435   2.838   6.264  10.770  0.1060 -1.0738 -1.1948
 6674TIP3   OH241436   6.507   3.649  14.859  0.7647 -0.5728 -0.2590
 6674TIP3    H141437   6.578   3.673  14.919  1.5635 -0.3255 -1.2793
 6674TIP3    H241438   6.479   3.563  14.889  0.5454 -0.0828  1.0078
 6675TIP3   OH241439   1.634   1.333   5.368 -0.0347  0.2331 -0.5812
 6675TIP3    H141440   1.614   1.340   5.275  0.4701  0.7913 -0.6481
 6675TIP3    H241441   1.729   1.329   5.373 -0.0820 -1.1311 -0.1693
 6676TIP3   OH241442   3.848   6.213   3.163 -0.4672  0.0249  0.2994
 6676TIP3    H141443   3.821   6.155   3.091 -1.2245  1.2155 -0.4158
 6676TIP3    H241444   3.831   6.163   3.242 -0.0502 -1.1464 -0.3231
 6677TIP3   OH241445   1.913   4.760   0.950 -0.8382  0.0420  0.1726
 6677TIP3    H141446   1.932   4.826   1.016 -1.0233 -1.4553  1.7847
 6677TIP3    H241447   1.820   4.741   0.961 -0.3337 -2.0949  1.3407
 6678TIP3   OH241448   2.431   6.098  17.086 -0.2198  0.0604 -0.2247
 6678TIP3    H141449   2.411   6.147  17.006 -0.4599  2.4965  1.2352
 6678TIP3    H241450   2.513   6.053  17.067 -0.3823  0.4230 -1.9108
 6679TIP3   OH241451   0.643   0.393  16.784 -0.3355  0.6572 -0.2584
 6679TIP3    H141452   0.593   0.381  16.703 -2.0282  2.4355  0.4444
 6679TIP3    H241453   0.686   0.477  16.773  0.2810  0.4179  0.2819
 6680TIP3   OH241454   3.651   2.942   6.053  0.4936  0.0453 -0.4100
 6680TIP3    H141455   3.716   2.885   6.010  2.3192  2.3075 -0.8145
 6680TIP3    H241456   3.636   2.901   6.138  1.5387 -1.1716 -0.7701
 6681TIP3   OH241457   4.766   4.271  14.365  0.0753 -0.0315  0.0776
 6681TIP3    H141458   4.704   4.270  14.438 -1.0209 -3.0188 -0.7225
 6681TIP3    H241459   4.850   4.246  14.404  0.7333  3.2647  1.0380
 6682TIP3   OH241460   3.846   1.877  16.878 -0.3736 -0.1830  0.3833
 6682TIP3    H141461   3.840   1.844  16.789  0.2111  0.9555 -0.0889
 6682TIP3    H241462   3.865   1.970  16.869  1.5138 -0.3858  1.6879
 6683TIP3   OH241463   2.517   5.769  11.017 -0.3371 -0.2462  0.2666
 6683TIP3    H141464   2.485   5.812  11.096  0.6970 -0.7004  0.9612
 6683TIP3    H241465   2.519   5.676  11.040 -4.1653 -1.0022 -1.7437
 6684TIP3   OH241466   5.057   6.364   6.362  0.3844 -0.6659 -0.2511
 6684TIP3    H141467   5.059   6.409   6.446 -0.8675  0.8007 -0.9646
 6684TIP3    H241468   4.977   6.312   6.364 -0.5916  0.7242 -1.1499
 6685TIP3   OH241469   0.145   1.530   2.939  0.2743  0.6038 -0.0287
 6685TIP3    H141470   0.082   1.596   2.969 -0.7536 -0.3669 -0.0024
 6685TIP3    H241471   0.166   1.556   2.850  0.4124  1.3565  0.2172
 6686TIP3   OH241472   2.205   3.654   3.166 -0.1964 -0.4600  0.3711
 6686TIP3    H141473   2.179   3.633   3.076  0.3747  0.8018 -0.1031
 6686TIP3    H241474   2.297   3.680   3.159 -0.7616  1.9272  0.9246
 6687TIP3   OH241475   5.298   4.041  14.373 -0.1711 -0.1763 -0.1225
 6687TIP3    H141476   5.222   4.060  14.428 -1.5821  0.1457 -2.0892
 6687TIP3    H241477   5.355   3.988  14.429 -1.5974 -0.0049  1.5777
 6688TIP3   OH241478   5.263   1.100  12.524  0.3252  0.0530 -0.4816
 6688TIP3    H141479   5.274   1.091  12.429  2.2384 -1.1141 -0.1996
 6688TIP3    H241480   5.311   1.180  12.546 -1.4122  1.2032 -0.6366
 6689TIP3   OH241481   4.504   2.468  17.144  0.4481  0.4333  1.1938
 6689TIP3    H141482   4.493   2.391  17.201  2.8108 -3.2879 -2.8004
 6689TIP3    H241483   4.598   2.470  17.125 -0.2660  0.7997 -3.1467
 6690TIP3   OH241484   2.684   3.848  13.667 -0.3265 -0.1742  0.1715
 6690TIP3    H141485   2.713   3.826  13.579  1.4361  0.3009  0.5991
 6690TIP3    H241486   2.627   3.924  13.655  0.4127  0.2870 -0.5060
 6691TIP3   OH241487   5.297   1.600   4.939  0.6994  0.3095 -0.5258
 6691TIP3    H141488   5.275   1.681   4.892 -2.8004  0.8097  1.6411
 6691TIP3    H241489   5.278   1.530   4.876 -0.7746  1.0479 -0.9501
 6692TIP3   OH241490   5.524   1.345   1.429  0.0202  0.0629 -0.0236
 6692TIP3    H141491   5.597   1.406   1.442  0.8815 -0.5028 -1.8258
 6692TIP3    H241492   5.455   1.377   1.487  1.9559  0.1128  2.4146
 6693TIP3   OH241493   2.545   0.677  13.895 -0.0745 -1.0039 -0.8730
 6693TIP3    H141494   2.508   0.630  13.970 -0.4662 -2.2185 -1.7981
 6693TIP3    H241495   2.597   0.612  13.849 -1.2136 -0.7564 -2.5906
 6694TIP3   OH241496   3.554   0.556   2.698  0.9364  0.5498  0.2883
 6694TIP3    H141497   3.530   0.469   2.730 -1.1384  0.0515 -2.2309
 6694TIP3    H241498   3.650   0.555   2.694  0.9792 -1.4007  0.9113
 6695TIP3   OH241499   2.692   0.693  11.241  0.1047 -0.4437  0.4182
 6695TIP3    H141500   2.702   0.634  11.165 -1.6280 -0.2978  0.0470
 6695TIP3    H241501   2.694   0.634  11.316 -0.7404 -0.8967  0.1006
 6696TIP3   OH241502   1.482   1.117   4.903 -0.4895  0.4810 -0.4995
 6696TIP3    H141503   1.459   1.047   4.842  2.3001 -0.2135 -0.9223
 6696TIP3    H241504   1.490   1.074   4.988  2.5354 -0.1354 -0.9870
 6697TIP3   OH241505   0.826   5.829   1.079  0.2378 -0.4297  0.2202
 6697TIP3    H141506   0.760   5.883   1.036  0.3185 -0.6767 -0.2179
 6697TIP3    H241507   0.790   5.810   1.166  0.2242  0.3500  0.3845
 6698TIP3   OH241508   3.454   5.304  12.109  0.0130  0.3184  0.0963
 6698TIP3    H141509   3.461   5.399  12.108 -0.3360  0.3516  0.5862
 6698TIP3    H241510   3.361   5.286  12.097  0.3748 -0.0453 -2.8434
 6699TIP3   OH241511   2.125   0.423   3.168  0.4897 -0.0403  0.4273
 6699TIP3    H141512   2.186   0.432   3.241 -0.9409 -0.8862  1.7937
 6699TIP3    H241513   2.058   0.363   3.200  0.2505 -1.1069 -1.9116
 6700TIP3   OH241514   0.489   5.269  10.616  0.4955 -0.2322  0.3481
 6700TIP3    H141515   0.495   5.343  10.676 -0.3926 -1.0599  1.5015
 6700TIP3    H241516   0.559   5.210  10.644  1.3542  0.2448 -0.7157
 6701TIP3   OH241517   2.116   5.142  12.964  1.2971 -0.2527  0.2344
 6701TIP3    H141518   2.057   5.120  12.891 -0.1430 -0.2428  1.3467
 6701TIP3    H241519   2.202   5.112  12.936  0.5965 -1.1137 -1.0755
 6702TIP3   OH241520   1.286   3.189   5.156  0.2974  0.0067  0.4511
 6702TIP3    H141521   1.336   3.207   5.077 -1.1928  2.1880 -0.0728
 6702TIP3    H241522   1.194   3.193   5.129 -0.2454 -1.2330  1.9110
 6703TIP3   OH241523   1.678   3.173   5.228 -0.1572 -0.0510 -0.2727
 6703TIP3    H141524   1.747   3.193   5.164 -0.5376 -0.2138 -0.7351
 6703TIP3    H241525   1.611   3.128   5.177 -1.7714  2.2929 -0.3682
 6704TIP3   OH241526   4.040   3.525   3.265 -0.0066 -0.1567 -0.2574
 6704TIP3    H141527   4.092   3.508   3.343 -0.0247 -4.2323 -0.8787
 6704TIP3    H241528   4.101   3.568   3.204  0.9552  0.1369  0.8808
 6705TIP3   OH241529   5.771   5.766  14.417 -0.5075  0.0667 -0.0363
 6705TIP3    H141530   5.842   5.805  14.367  0.1456  0.4664  1.1684
 6705TIP3    H241531   5.719   5.718  14.352 -0.3133  1.4604 -1.2604
 6706TIP3   OH241532   0.717   5.578   5.609 -0.1653  0.7030  0.3972
 6706TIP3    H141533   0.646   5.600   5.549 -0.6629  0.2220  0.8042
 6706TIP3    H241534   0.732   5.659   5.658 -0.1784  0.9130  0.0631
 6707TIP3   OH241535   5.493   3.665   2.158 -0.4600  0.5235  0.5326
 6707TIP3    H141536   5.526   3.639   2.244  0.0403  0.4947  0.3326
 6707TIP3    H241537   5.562   3.721   2.122  0.5940 -1.6657 -1.0074
 6708TIP3   OH241538   5.467   6.710   2.688  0.0644  0.2076  0.4510
 6708TIP3    H141539   5.509   6.625   2.703  0.2117  0.3368  0.7903
 6708TIP3    H241540   5.379   6.688   2.659 -0.3402 -0.0885  1.7982
 6709TIP3   OH241541   4.430   1.713  14.725  0.2874  0.6201  0.0795
 6709TIP3    H141542   4.427   1.620  14.746  1.2549  0.5109 -0.2072
 6709TIP3    H241543   4.374   1.722  14.648  0.5747  0.1852 -0.1878
 6710TIP3   OH241544   5.535   6.076  15.793  0.0647  0.4547 -0.3810
 6710TIP3    H141545   5.605   6.134  15.825  1.2383 -0.7003 -0.7517
 6710TIP3    H241546   5.575   5.989  15.791 -2.1195 -0.7107  1.7102
 6711TIP3   OH241547   3.644   2.401   4.206  0.1598 -0.2345  0.4252
 6711TIP3    H141548   3.611   2.340   4.272  1.1887  1.1528  2.3411
 6711TIP3    H241549   3.587   2.478   4.214  0.7778  0.2473  0.2624
 6712TIP3   OH241550   5.498   2.430  13.636 -0.5006 -0.3485 -0.7611
 6712TIP3    H141551   5.477   2.512  13.681  0.5705  0.3038 -1.4254
 6712TIP3    H241552   5.429   2.421  13.570 -1.9157 -1.1597  0.7385
 6713TIP3   OH241553   4.772   2.825  11.491  0.3605 -0.1712  0.3082
 6713TIP3    H141554   4.851   2.779  11.520  2.3480  3.4267  1.0845
 6713TIP3    H241555   4.787   2.843  11.398 -0.6772 -1.4568 -0.1437
 6714TIP3   OH241556   4.306   0.747  14.542 -0.2798  0.1850  0.5387
 6714TIP3    H141557   4.251   0.766  14.618 -1.1361  0.4080 -0.1185
 6714TIP3    H241558   4.383   0.803  14.553 -1.0552  1.2764  0.5304
 6715TIP3   OH241559   2.161   2.805   2.099  0.2667 -1.0509  0.1442
 6715TIP3    H141560   2.076   2.844   2.118  0.4649 -0.4299 -0.2144
 6715TIP3    H241561   2.149   2.711   2.114  0.5113 -0.6669  3.8884
 6716TIP3   OH241562   1.869   4.702   4.049 -0.0070  0.5713 -0.2033
 6716TIP3    H141563   1.858   4.707   4.144 -0.0907 -3.4570  0.1989
 6716TIP3    H241564   1.788   4.660   4.019  0.7721  0.1553 -1.7782
 6717TIP3   OH241565   0.530   5.346   3.566 -0.8558 -0.1348 -0.0189
 6717TIP3    H141566   0.441   5.362   3.534 -0.0095  2.5398 -1.3075
 6717TIP3    H241567   0.551   5.422   3.620  1.5273  0.6849 -1.8997
 6718TIP3   OH241568   3.762   2.485   5.397 -0.7435 -0.1623  0.0511
 6718TIP3    H141569   3.763   2.546   5.323 -0.3649 -0.1690  0.0482
 6718TIP3    H241570   3.670   2.458   5.405 -0.9512  0.5769  0.1994
 6719TIP3   OH241571   6.464   3.035  13.843 -0.0140  0.0275  0.1402
 6719TIP3    H141572   6.421   3.025  13.927  0.5340 -1.4236  0.2779
 6719TIP3    H241573   6.530   2.966  13.841 -0.2019 -0.1601 -1.5968
 6720TIP3   OH241574   4.379   5.445  11.072  0.7538 -0.0495  0.2285
 6720TIP3    H141575   4.456   5.487  11.033  0.2343  0.0615 -0.7116
 6720TIP3    H241576   4.344   5.390  11.002  0.6126 -0.9574  1.0040
 6721TIP3   OH241577   6.704   0.417  14.005  0.2922  0.4226 -0.1329
 6721TIP3    H141578   6.754   0.464  13.938 -0.3648  1.0800 -0.1692
 6721TIP3    H241579   6.743   0.443  14.088  1.6795 -1.0559 -0.2617
 6722TIP3   OH241580   2.620   3.190   4.641  0.0388 -0.1824  0.2560
 6722TIP3    H141581   2.619   3.239   4.559 -2.5494 -0.0549  0.3005
 6722TIP3    H241582   2.576   3.108   4.621  2.3930 -1.6592  0.7350
 6723TIP3   OH241583   3.972   1.202  11.864  0.3152  0.0459 -0.3723
 6723TIP3    H141584   4.063   1.231  11.863  0.2395  0.3982  1.0616
 6723TIP3    H241585   3.973   1.122  11.917 -0.0872 -0.4497 -1.0879
 6724TIP3   OH241586   6.539   6.526   5.635  0.5781  0.2080 -0.3769
 6724TIP3    H141587   6.620   6.573   5.657  0.5349  1.2961 -2.3225
 6724TIP3    H241588   6.479   6.594   5.605 -0.2364 -0.8484 -1.2395
 6725TIP3   OH241589   3.214   5.016   2.103 -0.8768 -0.1306  0.4195
 6725TIP3    H141590   3.159   5.040   2.179 -0.1669  0.7732  0.6583
 6725TIP3    H241591   3.274   4.949   2.137  2.4529  3.3006  1.9929
 6726TIP3   OH241592   5.621   4.346   3.925 -0.3506  0.2811 -0.0750
 6726TIP3    H141593   5.686   4.277   3.909 -2.0809 -1.4919  0.0570
 6726TIP3    H241594   5.590   4.371   3.838 -0.4457  0.1316 -0.0852
 6727TIP3   OH241595   6.080   1.535   3.139  0.0091 -0.1940  0.4567
 6727TIP3    H141596   6.141   1.466   3.164  1.0365  1.2285  2.1146
 6727TIP3    H241597   5.998   1.489   3.120 -0.0330 -1.7908  3.7019
 6728TIP3   OH241598   5.401   0.380   0.960  0.3492  0.4644  0.4022
 6728TIP3    H141599   5.486   0.385   1.004 -0.1629 -1.9914  1.8692
 6728TIP3    H241600   5.346   0.328   1.019 -1.5651  0.2282 -1.4451
 6729TIP3   OH241601   2.416   3.820   1.780 -0.3736 -0.3506  0.6577
 6729TIP3    H141602   2.327   3.788   1.765  0.2085 -1.3147 -1.0294
 6729TIP3    H241603   2.411   3.914   1.765 -1.3251 -0.2026  1.7596
 6730TIP3   OH241604   6.655   0.136   3.568 -0.0587  0.1593 -0.1156
 6730TIP3    H141605   6.698   0.064   3.615 -0.7488 -0.2515 -0.0937
 6730TIP3    H241606   6.719   0.163   3.501  0.9427  0.7588  1.0359
 6731TIP3   OH241607   0.929   0.928   4.248 -0.5858  0.1103  0.3989
 6731TIP3    H141608   0.851   0.946   4.300 -0.9253 -2.0634  0.7453
 6731TIP3    H241609   0.901   0.862   4.185  0.9211 -0.6504  0.4740
 6732TIP3   OH241610   4.201   4.257  17.047  0.1320 -0.1601 -0.2262
 6732TIP3    H141611   4.269   4.289  16.987  0.4120 -0.7761 -0.2393
 6732TIP3    H241612   4.119   4.278  17.003  0.3273 -0.0575 -0.5425
 6733TIP3   OH241613   3.670   0.088  13.512 -0.0801 -0.3446  0.4001
 6733TIP3    H141614   3.619   0.169  13.505 -2.4088 -1.7902 -0.6375
 6733TIP3    H241615   3.738   0.097  13.445 -1.6379 -0.0747 -1.2218
 6734TIP3   OH241616   4.032   2.895   3.469 -0.5923 -0.1217 -0.1011
 6734TIP3    H141617   4.029   2.987   3.442 -0.2538  0.5435  1.9462
 6734TIP3    H241618   3.944   2.878   3.503 -0.5988 -0.4924 -0.3070
 6735TIP3   OH241619   6.733   1.696   3.011 -0.0707 -0.3452 -0.2191
 6735TIP3    H141620   6.744   1.763   3.078  1.6788 -0.9153  0.1007
 6735TIP3    H241621   6.679   1.629   3.053  2.7202 -1.7075  1.4739
 6736TIP3   OH241622   2.938   5.428  16.809 -0.2487  0.0092  0.5006
 6736TIP3    H141623   2.965   5.476  16.730 -1.8597 -1.0849 -0.7954
 6736TIP3    H241624   2.993   5.350  16.809 -0.8357 -0.4167 -0.0613
 6737TIP3   OH241625   3.268   5.668  12.600 -0.4299 -0.1119 -0.3719
 6737TIP3    H141626   3.251   5.589  12.652 -1.3696  0.6224  0.4588
 6737TIP3    H241627   3.348   5.647  12.551  0.2096 -1.0118  0.9975
 6738TIP3   OH241628   0.600   2.847   4.670 -1.0002 -0.6549 -0.0714
 6738TIP3    H141629   0.679   2.794   4.657 -0.1095  0.5456  0.2232
 6738TIP3    H241630   0.567   2.819   4.756 -1.0692 -1.3704 -0.3239
 6739TIP3   OH241631   4.255   6.198  15.899 -0.2335 -0.1182  0.2545
 6739TIP3    H141632   4.246   6.194  15.994 -1.4580  0.3219  0.1707
 6739TIP3    H241633   4.311   6.274  15.883  1.3798 -1.1613  0.6705
 6740TIP3   OH241634   1.060   6.780  15.759  0.4033  0.3586 -0.4021
 6740TIP3    H141635   1.104   6.865  15.763 -0.3350  0.7271 -0.0546
 6740TIP3    H241636   1.118   6.721  15.808  0.8098  0.6978 -0.4656
 6741TIP3   OH241637   6.572   6.309  12.030  0.0632  0.6460  0.1499
 6741TIP3    H141638   6.658   6.348  12.050  0.7213 -0.4883 -0.3475
 6741TIP3    H241639   6.520   6.326  12.108  0.9516  0.8019  0.7289
 6742TIP3   OH241640   6.381   1.420   2.895 -0.0270 -0.0918  0.0206
 6742TIP3    H141641   6.381   1.444   2.988 -0.2603  3.7263 -0.8061
 6742TIP3    H241642   6.464   1.452   2.861 -0.4778 -0.2586 -1.3151
 6743TIP3   OH241643   5.375   1.873   3.550 -0.5307 -0.7401  0.1328
 6743TIP3    H141644   5.308   1.907   3.609  2.1983 -0.4088  3.3464
 6743TIP3    H241645   5.359   1.918   3.467 -2.2935  1.8029  1.6997
 6744TIP3   OH241646   0.784   6.683   2.410  0.3533 -0.4316 -0.5154
 6744TIP3    H141647   0.708   6.641   2.369 -0.7804  1.3258 -0.3565
 6744TIP3    H241648   0.750   6.767   2.442  2.0564 -0.1844  0.8058
 6745TIP3   OH241649   5.082   5.875   0.563  0.0291  0.3709 -0.0717
 6745TIP3    H141650   5.083   5.792   0.612 -0.5323 -0.6182 -1.6489
 6745TIP3    H241651   4.998   5.874   0.516  0.4988  1.3066 -0.9750
 6746TIP3   OH241652   6.555   3.878  13.625  0.4020 -0.4385  0.4041
 6746TIP3    H141653   6.462   3.883  13.648  0.8082  2.2757  1.8425
 6746TIP3    H241654   6.557   3.827  13.544 -2.5595  1.0374 -0.7468
 6747TIP3   OH241655   5.286   6.420   3.798 -0.4264  0.4394 -0.6443
 6747TIP3    H141656   5.325   6.432   3.712  1.2432  0.5467  0.0872
 6747TIP3    H241657   5.292   6.506   3.839  1.0454 -0.1265  0.4324
 6748TIP3   OH241658   2.936   0.027   0.389  0.0960  0.4097 -0.4769
 6748TIP3    H141659   2.849   0.036   0.348  0.0139 -1.0374 -0.6907
 6748TIP3    H241660   2.918   0.023   0.483 -0.0359  0.4840 -0.4986
 6749TIP3   OH241661   0.150   4.493  13.696  0.3380  0.4574 -0.1267
 6749TIP3    H141662   0.198   4.575  13.708 -0.5539  0.7318  1.9192
 6749TIP3    H241663   0.171   4.441  13.773  0.0101 -0.8148 -0.8596
 6750TIP3   OH241664   2.535   0.992   1.269 -0.0262  0.3830 -0.4045
 6750TIP3    H141665   2.553   1.049   1.343 -1.4302 -0.8353  0.9492
 6750TIP3    H241666   2.578   1.034   1.194  1.5990  1.5342  1.1159
 6751TIP3   OH241667   6.643   1.878   0.503 -0.1239  0.2144  0.3508
 6751TIP3    H141668   6.574   1.932   0.542  0.5998  1.1380  0.3663
 6751TIP3    H241669   6.595   1.806   0.460 -1.2026  1.5794 -0.8409
 6752TIP3   OH241670   6.555   4.245  15.464  0.3965 -0.5015  0.0691
 6752TIP3    H141671   6.646   4.269  15.446 -0.2932  2.4792  0.0269
 6752TIP3    H241672   6.529   4.193  15.389  1.2417  1.1138 -1.4163
 6753TIP3   OH241673   4.895   0.947   0.681  0.0241 -0.4940 -0.2398
 6753TIP3    H141674   4.979   0.945   0.636 -1.3143 -0.4640 -2.9686
 6753TIP3    H241675   4.893   1.032   0.724  0.8530  0.0839 -1.3008
 6754TIP3   OH241676   1.094   2.551  11.408 -0.0690 -0.3765  0.1820
 6754TIP3    H141677   1.116   2.602  11.485  0.5008  1.0529 -0.8690
 6754TIP3    H241678   1.151   2.586  11.339 -2.3454  0.2129 -1.5225
 6755TIP3   OH241679   0.730   3.384  16.187 -0.0785  0.1149 -0.1746
 6755TIP3    H141680   0.736   3.433  16.269  0.6343  0.5733 -0.4820
 6755TIP3    H241681   0.685   3.443  16.127 -1.9176 -0.7739  0.2638
 6756TIP3   OH241682   0.121   1.384  14.679 -0.0273 -0.1335 -0.9256
 6756TIP3    H141683   0.158   1.464  14.716  0.7027 -0.5395 -0.7571
 6756TIP3    H241684   0.027   1.400  14.677  0.0713  0.5479 -0.4585
 6757TIP3   OH241685   5.979   1.781   4.535  0.3680  0.4786  0.8801
 6757TIP3    H141686   6.016   1.868   4.546  0.6701  0.6876 -1.3799
 6757TIP3    H241687   5.885   1.792   4.549  0.4415  1.1102  0.8798
 6758TIP3   OH241688   2.102   6.274  15.934  0.0357 -0.0978 -0.0376
 6758TIP3    H141689   2.160   6.299  15.863 -2.7714  0.5805 -2.2781
 6758TIP3    H241690   2.104   6.179  15.935  0.0969 -0.1193 -1.0920
 6759TIP3   OH241691   1.534   0.070   0.100  0.2554 -1.4272 -0.1611
 6759TIP3    H141692   1.588   0.092   0.175 -1.0973 -0.5316  0.6028
 6759TIP3    H241693   1.584   0.004   0.052  1.3397 -1.7075  1.2896
 6760TIP3   OH241694   3.140   1.665   0.054  0.6524  0.3053  0.7431
 6760TIP3    H141695   3.056   1.648   0.013 -0.6094 -1.7568  3.8132
 6760TIP3    H241696   3.197   1.594   0.023  1.3068  1.5447 -1.1128
 6761TIP3   OH241697   2.749   5.086  13.867 -0.1755  0.1272 -0.2837
 6761TIP3    H141698   2.843   5.082  13.850 -0.4191 -0.8478 -1.5514
 6761TIP3    H241699   2.738   5.044  13.953  0.5746  0.6055  0.0544
 6762TIP3   OH241700   0.768   2.250   4.746 -0.3444 -0.3602 -0.5400
 6762TIP3    H141701   0.738   2.317   4.808 -0.0073  0.5061 -1.2834
 6762TIP3    H241702   0.699   2.184   4.747 -1.8156  1.0662 -1.4225
 6763TIP3   OH241703   3.567   3.969   5.010 -0.1426  0.4394 -0.2023
 6763TIP3    H141704   3.540   3.878   4.998  1.3785 -0.0784  0.0295
 6763TIP3    H241705   3.486   4.019   5.006 -1.3484 -1.1422  2.0943
 6764TIP3   OH241706   0.022   6.031  17.009  0.3352 -0.7568  0.4525
 6764TIP3    H141707  -0.020   5.946  17.017  0.7259 -1.2918 -2.2647
 6764TIP3    H241708   0.111   6.012  16.981  0.3184  0.5183 -0.5927
 6765TIP3   OH241709   6.563   6.488  16.547  0.5838  0.2259  0.0030
 6765TIP3    H141710   6.595   6.567  16.503  0.0352  0.6591  0.3634
 6765TIP3    H241711   6.502   6.449  16.485  0.1961  0.5617  0.1661
 6766TIP3   OH241712   3.101   1.637  13.576 -0.2218  0.2407 -0.2173
 6766TIP3    H141713   3.072   1.621  13.666 -1.4492  0.5080 -0.5426
 6766TIP3    H241714   3.118   1.550  13.540  0.1852  0.1286  0.2456
 6767TIP3   OH241715   6.167   5.385   2.808  0.0167  0.4641 -0.2704
 6767TIP3    H141716   6.166   5.296   2.842 -0.3854 -0.2372 -2.0393
 6767TIP3    H241717   6.218   5.434   2.872  0.0150 -0.9626  0.8756
 6768TIP3   OH241718   0.808   1.523   1.226 -0.4822 -0.1030 -0.0248
 6768TIP3    H141719   0.900   1.546   1.214 -0.7973  2.2617  1.3637
 6768TIP3    H241720   0.775   1.511   1.138  1.5773 -3.2742 -0.5256
 6769TIP3   OH241721   1.933   3.142   6.708 -0.0500  0.2143 -0.0679
 6769TIP3    H141722   1.955   3.056   6.745 -0.0764  0.8277  1.4415
 6769TIP3    H241723   2.017   3.183   6.691  0.0072  0.7470  1.3483
 6770TIP3   OH241724   0.518   3.372   0.071 -0.1685 -0.2435  0.3862
 6770TIP3    H141725   0.579   3.445   0.061 -0.4707  0.2160  1.6631
 6770TIP3    H241726   0.459   3.380  -0.004 -0.0114  0.6435  0.3429
 6771TIP3   OH241727   0.542   3.032   3.805  0.3687 -0.3662  0.0060
 6771TIP3    H141728   0.521   3.080   3.725 -0.4145  0.1240  0.4865
 6771TIP3    H241729   0.503   2.945   3.792 -3.0792  0.8036  1.2664
 6772TIP3   OH241730   6.302   4.246  12.223  0.6215  0.2652 -0.6945
 6772TIP3    H141731   6.388   4.237  12.263  0.8859 -3.2405 -1.7289
 6772TIP3    H241732   6.320   4.256  12.129 -0.0945 -0.7362 -0.9478
 6773TIP3   OH241733   4.423   2.196  15.425  0.6466  0.3652 -0.4129
 6773TIP3    H141734   4.497   2.244  15.462  2.7932 -2.3738 -0.8196
 6773TIP3    H241735   4.451   2.104  15.425 -2.2686 -0.6648 -1.8029
 6774TIP3   OH241736   5.579   0.648  13.819 -0.3924  0.6868 -0.2267
 6774TIP3    H141737   5.652   0.695  13.859 -0.9559  0.8193  0.6572
 6774TIP3    H241738   5.589   0.665  13.725 -0.4015  2.3375  0.0368
 6775TIP3   OH241739   3.952   1.292   1.270  0.0618 -0.0293 -0.9406
 6775TIP3    H141740   4.042   1.315   1.290 -0.5525  0.3731  1.8231
 6775TIP3    H241741   3.919   1.364   1.216  0.4458  1.6729  0.9626
 6776TIP3   OH241742   5.174   3.419  15.599  0.1710 -0.0959 -0.0215
 6776TIP3    H141743   5.144   3.377  15.519  0.7701 -1.8812  0.6540
 6776TIP3    H241744   5.117   3.495  15.608 -1.1419 -0.8945 -1.1534
 6777TIP3   OH241745   0.051   2.067  13.401 -0.3730  0.5812 -0.4776
 6777TIP3    H141746   0.082   2.053  13.311  1.5472  1.0537  0.0593
 6777TIP3    H241747   0.022   1.980  13.429 -0.9325  0.4102 -1.5063
 6778TIP3   OH241748   6.359   0.945  14.039 -0.2568  0.0079  0.9194
 6778TIP3    H141749   6.317   0.968  13.955 -0.2254  0.4962  1.0308
 6778TIP3    H241750   6.416   0.871  14.018 -1.4157 -0.8845  0.8309
 6779TIP3   OH241751   6.770   5.015  15.952  0.0477  1.0726 -0.1005
 6779TIP3    H141752   6.850   5.001  15.901  0.2910  0.7621  0.3580
 6779TIP3    H241753   6.725   4.930  15.949 -0.2490  1.2340 -0.3209
 6780TIP3   OH241754   1.616   2.189  14.547  0.4375  0.4577  0.1847
 6780TIP3    H141755   1.536   2.137  14.546  1.0545 -0.5353 -0.0788
 6780TIP3    H241756   1.681   2.130  14.586  1.0866  1.1648  0.1847
 6781TIP3   OH241757   0.680   0.098  17.249 -0.0123  0.2732  0.1073
 6781TIP3    H141758   0.696   0.153  17.173 -2.4991 -2.8535 -3.0295
 6781TIP3    H241759   0.586   0.082  17.247  0.4344 -3.4277  1.1173
 6782TIP3   OH241760   1.721   5.050   1.693 -0.0517  0.1803 -0.1297
 6782TIP3    H141761   1.673   5.000   1.627 -1.4295  1.7193 -0.3451
 6782TIP3    H241762   1.654   5.099   1.740  1.3236  2.9636 -0.8726
 6783TIP3   OH241763   6.689   2.341  11.588  0.1315  0.3888 -0.3282
 6783TIP3    H141764   6.690   2.404  11.515 -0.3590  0.0996 -0.5926
 6783TIP3    H241765   6.761   2.368  11.644  0.0993  1.0208 -0.5826
 6784TIP3   OH241766   3.180   4.251   3.864  0.3392 -0.3530  0.1347
 6784TIP3    H141767   3.219   4.331   3.826  1.1261 -1.5286 -1.6898
 6784TIP3    H241768   3.091   4.248   3.827 -0.4303  0.6647  1.7843
 6785TIP3   OH241769   5.785   0.469  16.214  0.0120  0.1061  0.5286
 6785TIP3    H141770   5.858   0.526  16.190  0.3229 -0.3421  0.4094
 6785TIP3    H241771   5.818   0.380  16.201 -0.5354 -0.1006  0.5273
 6786TIP3   OH241772   1.028   5.314   5.081  0.0455  0.2155  0.6578
 6786TIP3    H141773   1.034   5.272   4.995 -0.8171 -0.5657  0.9603
 6786TIP3    H241774   1.038   5.407   5.062 -0.1824  0.0622 -0.3106
 6787TIP3   OH241775   6.015   6.702  14.017  0.0476  0.4261 -0.4199
 6787TIP3    H141776   6.052   6.775  14.068  1.1628 -1.1005  1.0963
 6787TIP3    H241777   6.085   6.636  14.017 -1.0798 -0.8161 -1.3698
 6788TIP3   OH241778   2.467   0.667  14.449  0.2435  0.2252 -0.0418
 6788TIP3    H141779   2.392   0.706  14.494  1.0602  2.1094 -0.2262
 6788TIP3    H241780   2.524   0.635  14.519  0.0599  0.3081  0.1448
 6789TIP3   OH241781   0.322   1.815   1.470 -0.0116 -0.3293  0.3159
 6789TIP3    H141782   0.228   1.831   1.480  0.1565 -0.2163  2.0095
 6789TIP3    H241783   0.355   1.894   1.426 -0.9556 -1.1796 -2.0757
 6790TIP3   OH241784   4.767   6.416  13.229  0.0928 -0.2651 -0.3371
 6790TIP3    H141785   4.819   6.480  13.180  0.3942 -1.4824 -1.6803
 6790TIP3    H241786   4.831   6.372  13.285 -0.1023  0.5204  0.5322
 6791TIP3   OH241787   1.994   6.373  12.320  0.7567 -0.5163  0.0484
 6791TIP3    H141788   2.038   6.434  12.260 -1.2853 -0.6988 -1.7842
 6791TIP3    H241789   1.982   6.424  12.401  1.2178  0.6902 -0.6066
 6792TIP3   OH241790   0.253   3.926   5.019 -0.0309  0.0190  0.1541
 6792TIP3    H141791   0.248   3.894   4.929 -2.0911 -0.7443  0.4928
 6792TIP3    H241792   0.263   3.847   5.072  1.3090  0.4716  0.6251
 6793TIP3   OH241793   0.304   2.864   0.120  0.0459  0.7061 -0.0689
 6793TIP3    H141794   0.372   2.923   0.152  0.9458  0.2892 -1.1172
 6793TIP3    H241795   0.344   2.821   0.044 -0.3861 -1.6300  0.9427
 6794TIP3   OH241796   5.526   4.704   0.504 -0.5245  0.0001 -0.1584
 6794TIP3    H141797   5.580   4.631   0.532  1.9139  1.4150 -0.8663
 6794TIP3    H241798   5.522   4.763   0.579 -0.4378  0.2571 -0.3516
 6795TIP3   OH241799   1.427   3.137   5.381  0.5107  0.1608  0.0286
 6795TIP3    H141800   1.380   3.174   5.306  0.3868  0.5250  0.2794
 6795TIP3    H241801   1.515   3.174   5.375  0.2336  0.9646  0.5865
 6796TIP3   OH241802   1.508   1.020  12.337  0.2143 -1.3060 -0.7334
 6796TIP3    H141803   1.567   0.968  12.392  0.0311 -1.0673 -0.3047
 6796TIP3    H241804   1.511   0.977  12.251  2.1161 -0.5074 -1.1339
 6797TIP3   OH241805   5.803   1.587   0.357 -0.4051  0.6144  0.1409
 6797TIP3    H141806   5.773   1.642   0.286 -1.7673 -0.0015  0.2120
 6797TIP3    H241807   5.757   1.504   0.345 -1.1852  0.7033  2.0766
 6798TIP3   OH241808   1.699   2.814  17.204  0.2311  0.4361  0.0247
 6798TIP3    H141809   1.615   2.789  17.241 -0.5816  1.0394 -1.3219
 6798TIP3    H241810   1.689   2.907  17.184  0.1675 -0.0881 -2.7528
 6799TIP3   OH241811   5.446   1.748  13.325 -0.3595 -0.1188 -0.4067
 6799TIP3    H141812   5.359   1.726  13.357 -0.4262  1.8665  0.9961
 6799TIP3    H241813   5.494   1.665  13.324 -1.8948 -1.0411 -0.0325
 6800TIP3   OH241814   0.737   1.124  14.532  0.2261  0.2169 -0.0856
 6800TIP3    H141815   0.781   1.093  14.611 -0.1956 -1.4201 -0.4468
 6800TIP3    H241816   0.684   1.049  14.504 -1.5050  1.5560 -0.5838
 6801TIP3   OH241817   6.463   1.214   0.657 -0.1040  0.0159  0.3739
 6801TIP3    H141818   6.446   1.178   0.570 -0.2027 -0.1395  0.4581
 6801TIP3    H241819   6.470   1.309   0.642 -0.7320  0.0585  0.2849
 6802TIP3   OH241820   4.268   3.458   1.991  0.3686 -0.0972 -0.1404
 6802TIP3    H141821   4.363   3.441   1.988  0.2720 -1.0461  1.2994
 6802TIP3    H241822   4.242   3.432   2.079 -1.0720  1.1597 -0.1599
 6803TIP3   OH241823   2.916   4.417  13.679 -0.1652  0.0742 -0.1453
 6803TIP3    H141824   2.864   4.387  13.754 -2.6523  1.0268 -1.3719
 6803TIP3    H241825   2.860   4.482  13.636  2.2075  1.3949 -1.4415
 6804TIP3   OH241826   0.146   2.557  14.215 -0.1806  0.0853 -0.4385
 6804TIP3    H141827   0.178   2.543  14.125  0.2907 -0.3882 -0.2066
 6804TIP3    H241828   0.063   2.509  14.218  1.0371 -2.1602  0.1093
 6805TIP3   OH241829   4.842   5.906   2.963  0.6771  0.1421  0.2682
 6805TIP3    H141830   4.920   5.852   2.965 -1.4017 -3.1173  1.4146
 6805TIP3    H241831   4.839   5.940   2.873  3.2998  0.3218  0.1819
 6806TIP3   OH241832   5.865   4.222  16.517  0.4353 -0.0503 -0.4635
 6806TIP3    H141833   5.955   4.234  16.487  0.4691 -0.8906 -0.7116
 6806TIP3    H241834   5.858   4.129  16.538  0.1443  0.3289  1.3158
 6807TIP3   OH241835   2.292   5.222   6.156  0.2921 -0.3513  0.3844
 6807TIP3    H141836   2.237   5.163   6.105  1.3743 -0.2542 -0.9651
 6807TIP3    H241837   2.257   5.309   6.140  1.6415 -0.1158 -1.6824
 6808TIP3   OH241838   0.344   4.883   2.872  0.6111  0.3578  0.1342
 6808TIP3    H141839   0.435   4.882   2.842 -0.3617  0.1112 -3.2544
 6808TIP3    H241840   0.326   4.793   2.899  0.9293 -0.0104 -0.8365
 6809TIP3   OH241841   5.017   5.334  17.097 -0.0794 -0.4902  0.2072
 6809TIP3    H141842   4.937   5.289  17.124  0.6284 -1.6235  0.4722
 6809TIP3    H241843   5.040   5.388  17.173 -0.9335  0.3530 -0.1123
 6810TIP3   OH241844   4.438   1.223   1.428 -0.2307  0.0705  0.5194
 6810TIP3    H141845   4.418   1.169   1.505 -1.6464 -1.2948 -0.7155
 6810TIP3    H241846   4.442   1.160   1.355 -0.8696  1.5105 -0.8241
 6811TIP3   OH241847   4.915   3.554  13.322 -0.2324 -0.1488 -0.5716
 6811TIP3    H141848   4.896   3.605  13.243  1.7675  1.4330 -0.1244
 6811TIP3    H241849   4.832   3.555  13.372 -0.7613  1.1559 -1.4143
 6812TIP3   OH241850   2.443   3.464   2.338 -0.0598 -0.5194 -0.3363
 6812TIP3    H141851   2.430   3.394   2.402 -0.3133 -1.0481 -0.9592
 6812TIP3    H241852   2.538   3.480   2.339  0.1441 -1.5913 -0.9314
 6813TIP3   OH241853   4.811   4.732  14.760  0.1535  0.2174  0.3682
 6813TIP3    H141854   4.837   4.822  14.738  2.2622 -0.1375  1.1726
 6813TIP3    H241855   4.718   4.738  14.781  0.1591  2.1311  0.0113
 6814TIP3   OH241856   1.736   3.252  14.758  0.9062  0.3690  0.6664
 6814TIP3    H141857   1.795   3.178  14.773  2.7737  1.8938  1.3258
 6814TIP3    H241858   1.725   3.292  14.844 -1.4999 -0.0789  0.6419
 6815TIP3   OH241859   2.603   5.656  11.899  0.1671 -0.1524 -0.0125
 6815TIP3    H141860   2.647   5.582  11.858  1.5167  1.0411 -0.8359
 6815TIP3    H241861   2.581   5.714  11.826  2.8263  2.1523  0.8163
 6816TIP3   OH241862   4.390   5.625  11.936  0.2576 -0.1544 -0.0354
 6816TIP3    H141863   4.321   5.668  11.986  0.4625 -0.7922  0.8329
 6816TIP3    H241864   4.377   5.532  11.954  1.7922 -0.2464  0.7681
 6817TIP3   OH241865   3.644   4.044   5.322 -0.1532 -0.3048  0.0185
 6817TIP3    H141866   3.704   4.113   5.295 -0.3725 -0.6492 -1.4156
 6817TIP3    H241867   3.587   4.030   5.246  0.4682 -2.6899 -0.0976
 6818TIP3   OH241868   2.319   1.239   3.410  0.0723 -0.2406 -0.2247
 6818TIP3    H141869   2.377   1.239   3.486 -0.8012  0.0876  0.4741
 6818TIP3    H241870   2.341   1.160   3.361  0.6141 -0.4816  0.4041
 6819TIP3   OH241871   2.143   3.286  15.725  0.1183 -0.2632 -0.3749
 6819TIP3    H141872   2.222   3.326  15.687 -0.7086 -0.0044 -1.9235
 6819TIP3    H241873   2.082   3.359  15.733 -0.6075 -0.7937 -1.0031
 6820TIP3   OH241874   0.219   6.110  13.272  0.0841  0.9733 -0.1734
 6820TIP3    H141875   0.185   6.105  13.183  0.2746  0.0297 -0.1949
 6820TIP3    H241876   0.241   6.020  13.295  0.4470  1.2691  0.6697
 6821TIP3   OH241877   0.936   0.293  14.701 -0.2987  0.0390 -0.5258
 6821TIP3    H141878   0.905   0.373  14.658  0.1485 -0.0683 -1.0571
 6821TIP3    H241879   0.855   0.248  14.727 -0.5598  0.4688 -0.5782
 6822TIP3   OH241880   4.678   0.248   1.525 -0.2343 -0.3381  0.9081
 6822TIP3    H141881   4.631   0.319   1.570 -1.5804 -0.4692 -0.2335
 6822TIP3    H241882   4.632   0.238   1.441  1.1080 -1.2963  0.2512
 6823TIP3   OH241883   2.594   2.667  13.905  0.7166  0.8759 -0.0259
 6823TIP3    H141884   2.587   2.582  13.949 -2.8402  1.2231  0.4098
 6823TIP3    H241885   2.628   2.647  13.818 -1.0688 -1.2277 -0.3306
 6824TIP3   OH241886   3.391   3.911  11.388 -0.4472  0.1805 -0.1445
 6824TIP3    H141887   3.456   3.844  11.408 -1.0526 -0.5602 -0.6062
 6824TIP3    H241888   3.394   3.920  11.292 -1.7591 -0.6380 -0.2795
 6825TIP3   OH241889   6.181   6.618  16.154 -0.2565 -0.4329  0.1663
 6825TIP3    H141890   6.200   6.650  16.066 -2.8784  1.2992  0.1213
 6825TIP3    H241891   6.230   6.537  16.161  0.9337 -0.0399 -2.4630
 6826TIP3   OH241892   3.653   3.181   3.127  0.3685 -0.5248 -0.0293
 6826TIP3    H141893   3.648   3.216   3.038  0.5031 -0.1009  0.1254
 6826TIP3    H241894   3.693   3.095   3.117 -0.2925 -0.7908 -0.4562
 6827TIP3   OH241895   4.032   4.685  15.645 -0.0359 -0.2477  0.7684
 6827TIP3    H141896   4.076   4.651  15.723  1.3720  1.7920  0.9773
 6827TIP3    H241897   4.070   4.636  15.573  1.4616  0.3365  1.1049
 6828TIP3   OH241898   3.345   4.734   1.787  0.4443  0.2215  0.4043
 6828TIP3    H141899   3.342   4.659   1.726  0.1392  0.3560  0.2488
 6828TIP3    H241900   3.257   4.772   1.781  0.3654  0.1419  1.0532
 6829TIP3   OH241901   5.712   0.161   3.271  0.2065 -0.3974  0.4379
 6829TIP3    H141902   5.782   0.152   3.336 -0.0234 -0.9010  0.6255
 6829TIP3    H241903   5.643   0.102   3.302 -0.8540  1.0651  0.9664
 6830TIP3   OH241904   2.989   1.812  12.173  0.9593  0.1263  0.0471
 6830TIP3    H141905   2.898   1.795  12.150  0.8444 -1.0947  1.2348
 6830TIP3    H241906   2.990   1.902  12.205  0.4675  0.6447 -1.3304
 6831TIP3   OH241907   0.557   2.444  12.611 -0.3908  0.0336  0.1481
 6831TIP3    H141908   0.535   2.371  12.553  0.6883 -0.0688 -0.1524
 6831TIP3    H241909   0.621   2.408  12.672  1.6092  1.1692 -1.1888
 6832TIP3   OH241910   6.697   5.578  14.946 -0.8014  0.3203  0.2884
 6832TIP3    H141911   6.656   5.650  14.994  0.4034  1.8459 -0.8692
 6832TIP3    H241912   6.791   5.591  14.958 -0.4686  0.3966 -1.8638
 6833TIP3   OH241913   0.340   4.703  17.255  0.3961  0.1505  0.5532
 6833TIP3    H141914   0.348   4.705  17.351  0.6033  1.8497  0.5210
 6833TIP3    H241915   0.270   4.640  17.239  1.1810 -1.0934  1.7520
 6834TIP3   OH241916   6.056   2.724  11.352  0.1602 -0.5516  0.4720
 6834TIP3    H141917   5.969   2.688  11.370  0.6347 -1.6787  0.5969
 6834TIP3    H241918   6.108   2.701  11.429  0.7349 -0.4639  0.1134
 6835TIP3   OH241919   6.501   0.596   4.290  0.1784 -0.1583 -0.8122
 6835TIP3    H141920   6.438   0.626   4.224 -1.4618  0.0264  0.7504
 6835TIP3    H241921   6.474   0.507   4.311 -0.3844  0.3396  0.7511
 6836TIP3   OH241922   4.832   0.106   6.295 -0.0542 -0.4634  0.8954
 6836TIP3    H141923   4.886   0.036   6.332  1.6262  1.6190  2.7048
 6836TIP3    H241924   4.823   0.169   6.366 -1.2617  1.2921 -0.7116
 6837TIP3   OH241925   0.102   2.545  12.531  0.4366 -0.2590  0.3184
 6837TIP3    H141926   0.032   2.596  12.572  0.7762 -0.4644  1.1704
 6837TIP3    H241927   0.061   2.461  12.511  0.3632 -0.2810  0.5599
 6838TIP3   OH241928   5.822   0.548  14.431  0.6888  0.2226  0.8067
 6838TIP3    H141929   5.772   0.497  14.368 -0.4348  2.6133 -0.3586
 6838TIP3    H241930   5.782   0.528  14.515  0.6836 -1.2206  0.4970
 6839TIP3   OH241931   4.493   3.526  15.440  0.3555 -0.5934  0.1823
 6839TIP3    H141932   4.503   3.461  15.509 -1.5751 -0.2002  0.8897
 6839TIP3    H241933   4.409   3.505  15.399  1.1912 -0.4701 -1.6903
 6840TIP3   OH241934   3.288   5.102   6.581  0.1243 -0.1997 -0.2256
 6840TIP3    H141935   3.303   5.115   6.488  1.6509 -0.7882 -0.0812
 6840TIP3    H241936   3.288   5.190   6.618 -0.6121  0.0456 -0.7813
 6841TIP3   OH241937   4.091   0.317  13.727 -0.7398 -0.0138 -0.1406
 6841TIP3    H141938   4.106   0.251  13.795  0.0049  1.0496  0.7701
 6841TIP3    H241939   4.010   0.361  13.753 -1.2049 -0.5147 -0.7158
 6842TIP3   OH241940   2.569   4.556  13.117 -0.3205  0.4014 -0.0845
 6842TIP3    H141941   2.603   4.494  13.182 -0.9466  0.6178  0.4643
 6842TIP3    H241942   2.595   4.519  13.033  2.2946  1.1438  0.3064
 6843TIP3   OH241943   0.500   3.722   2.071 -0.3061  0.1890  0.2345
 6843TIP3    H141944   0.482   3.760   2.157 -1.3513  0.7786 -0.2239
 6843TIP3    H241945   0.595   3.732   2.060  0.0348 -0.9194  1.7730
 6844TIP3   OH241946   2.764   1.145   5.769  0.1672 -0.2788  0.3957
 6844TIP3    H141947   2.722   1.209   5.710  1.7782 -0.2195 -0.7375
 6844TIP3    H241948   2.774   1.193   5.851  1.5371  1.0731 -0.4928
 6845TIP3   OH241949   6.210   5.330   0.269 -0.1280  0.1913 -0.0108
 6845TIP3    H141950   6.177   5.412   0.233  0.6381  0.1948 -0.7359
 6845TIP3    H241951   6.133   5.288   0.307 -0.1904  2.2660  2.4498
 6846TIP3   OH241952   3.059   3.714  12.670 -0.4639  0.4689  0.4426
 6846TIP3    H141953   2.977   3.708  12.719  0.0134  0.4426  1.2602
 6846TIP3    H241954   3.113   3.643  12.705 -0.1839  0.3172 -0.2737
 6847TIP3   OH241955   3.546   3.312  13.713  0.3592  0.0714  0.0849
 6847TIP3    H141956   3.549   3.239  13.776  1.3206 -0.4411 -0.5363
 6847TIP3    H241957   3.562   3.390  13.767 -0.8329 -0.1332  0.7816
 6848TIP3   OH241958   0.853   1.727  12.177 -0.0528 -0.0347 -0.5044
 6848TIP3    H141959   0.789   1.668  12.218  0.3300 -0.9555 -1.1922
 6848TIP3    H241960   0.936   1.679  12.183  0.4850  0.9192 -0.1001
 6849TIP3   OH241961   3.874   2.226   6.033 -0.1581  0.5943  0.5426
 6849TIP3    H141962   3.959   2.202   5.997 -0.5983  0.4653 -0.4432
 6849TIP3    H241963   3.885   2.220   6.128  0.3965 -1.3601  0.4040
 6850TIP3   OH241964   6.271   5.265  11.796 -0.0090 -0.0244 -0.0438
 6850TIP3    H141965   6.279   5.172  11.774  0.3623  0.1003 -0.4610
 6850TIP3    H241966   6.321   5.310  11.727  1.2602  0.3808  1.1108
 6851TIP3   OH241967   4.535   5.166  14.472  0.4299  0.4600  0.2852
 6851TIP3    H141968   4.620   5.195  14.505  0.0485  0.7338  1.0616
 6851TIP3    H241969   4.471   5.206  14.532 -0.4579  2.8511 -2.0284
 6852TIP3   OH241970   5.463   4.311  14.606 -0.2803 -0.2502  0.2629
 6852TIP3    H141971   5.456   4.388  14.663  1.1395 -0.2684  0.4813
 6852TIP3    H241972   5.481   4.238  14.666  2.0685 -0.1409 -0.2327
 6853TIP3   OH241973   2.399   5.672  12.609 -0.1325  0.1728  0.0404
 6853TIP3    H141974   2.388   5.678  12.514 -2.2130 -0.7966  0.1517
 6853TIP3    H241975   2.346   5.596  12.634 -0.7226  1.1989  2.1123
 6854TIP3   OH241976   6.164   4.626   5.386 -0.0486  0.3832  0.6562
 6854TIP3    H141977   6.256   4.602   5.379  0.0893  1.3162 -1.5686
 6854TIP3    H241978   6.120   4.544   5.411  1.1720 -0.5488 -0.1156
 6855TIP3   OH241979   1.865   4.884  16.865  0.1107  0.3875 -0.0413
 6855TIP3    H141980   1.832   4.961  16.819  1.4896  2.2890  1.9701
 6855TIP3    H241981   1.952   4.869  16.827 -0.7130 -1.1398 -1.4306
 6856TIP3   OH241982   6.301   2.852  13.179  0.0262 -0.1756 -0.0078
 6856TIP3    H141983   6.318   2.835  13.272  1.5407 -2.1664 -0.5833
 6856TIP3    H241984   6.252   2.775  13.149 -1.8201  1.1495 -0.5669
 6857TIP3   OH241985   6.650   3.725  14.144  0.3298  0.5361 -0.3510
 6857TIP3    H141986   6.707   3.788  14.099  0.7222  0.8711  0.5892
 6857TIP3    H241987   6.651   3.753  14.235 -1.8074  0.9133 -0.3800
 6858TIP3   OH241988   4.137   0.341   3.313  0.2652 -0.4261 -0.2301
 6858TIP3    H141989   4.096   0.408   3.258 -0.0489 -0.1036  0.3807
 6858TIP3    H241990   4.224   0.376   3.331  0.2437 -0.3672 -0.2374
 6859TIP3   OH241991   1.992   5.150   6.236 -0.4017  0.2775  0.2024
 6859TIP3    H141992   2.058   5.098   6.189 -0.8460  0.3922 -0.5688
 6859TIP3    H241993   2.027   5.239   6.234 -0.6549  0.3701 -0.3667
 6860TIP3   OH241994   3.564   6.346   0.299  0.4661  0.2989 -0.4009
 6860TIP3    H141995   3.491   6.392   0.257 -0.7614 -1.0273  0.2259
 6860TIP3    H241996   3.565   6.380   0.389  0.6383  0.3254 -0.4120
 6861TIP3   OH241997   2.660   3.207  16.010  0.2448  0.0148 -0.1996
 6861TIP3    H141998   2.693   3.125  16.046 -1.8458 -0.0836  1.6819
 6861TIP3    H241999   2.581   3.227  16.061  0.4563  3.0116 -0.8217
 6862TIP3   OH242000   3.985   0.637  16.265  0.0146  0.7550  0.6414
 6862TIP3    H142001   3.908   0.662  16.214  1.1864 -0.1454 -1.7605
 6862TIP3    H242002   3.963   0.552  16.303  0.2020 -0.0976 -1.0716
 6863TIP3   OH242003   1.418   1.220   0.870 -0.3325  0.9815 -0.1672
 6863TIP3    H142004   1.451   1.156   0.807  0.1874  0.3602  0.7154
 6863TIP3    H242005   1.377   1.168   0.939 -1.9034  1.6842 -0.5087
 6864TIP3   OH242006   6.217   5.578  14.088  0.3139 -0.2827 -0.1375
 6864TIP3    H142007   6.193   5.485  14.081 -0.1700 -0.0779 -1.5840
 6864TIP3    H242008   6.158   5.613  14.155  1.3462 -1.2584  1.3565
 6865TIP3   OH242009   2.169   6.775  10.786  0.0335 -0.5710  0.2488
 6865TIP3    H142010   2.171   6.782  10.882  0.7434 -1.1308  0.2800
 6865TIP3    H242011   2.223   6.699  10.766  1.5300  0.6831 -0.7065
 6866TIP3   OH242012   4.359   1.294   3.798 -0.2252  0.0913  0.1855
 6866TIP3    H142013   4.393   1.211   3.765  0.0344  0.0197  0.6255
 6866TIP3    H242014   4.317   1.335   3.722  1.2934  0.4229 -0.5251
 6867TIP3   OH242015   1.572   1.230   3.387 -0.4353  0.0388  0.4754
 6867TIP3    H142016   1.506   1.270   3.443  1.0618  1.8561  1.0689
 6867TIP3    H242017   1.561   1.274   3.302 -1.0531 -0.8678  0.0781
 6868TIP3   OH242018   5.852   4.909   5.676  0.0473  0.1256 -0.2018
 6868TIP3    H142019   5.937   4.939   5.645  0.0367  0.1963 -0.1620
 6868TIP3    H242020   5.854   4.814   5.663 -0.1057  0.1979 -0.7892
 6869TIP3   OH242021   4.611   2.648   4.847 -0.2778 -0.1718 -0.2012
 6869TIP3    H142022   4.689   2.598   4.821  0.5712  1.6461 -1.3233
 6869TIP3    H242023   4.560   2.655   4.766  0.4320  2.1139 -0.5281
 6870TIP3   OH242024   3.929   5.784  11.190 -0.1238 -0.1107  0.1934
 6870TIP3    H142025   3.909   5.862  11.138  0.0644  0.4442  0.9431
 6870TIP3    H242026   4.016   5.758  11.161 -1.2132 -1.6393 -1.9812
 6871TIP3   OH242027   2.282   0.634  12.508  0.0077  0.0795 -0.4771
 6871TIP3    H142028   2.247   0.713  12.549 -2.7272  0.5660 -3.4146
 6871TIP3    H242029   2.366   0.663  12.470  0.3645  0.7743  0.7504
 6872TIP3   OH242030   4.729   3.197  13.516 -0.6049  0.6930  0.2148
 6872TIP3    H142031   4.755   3.284  13.548 -0.1533  0.6977 -0.1509
 6872TIP3    H242032   4.795   3.175  13.450  0.3192 -0.6992  1.5512
 6873TIP3   OH242033   0.568   0.462  13.725 -0.2670  0.2091 -0.0330
 6873TIP3    H142034   0.478   0.471  13.756 -0.1338  1.7383 -0.0244
 6873TIP3    H242035   0.575   0.370  13.698 -1.5329 -0.1720  0.8445
 6874TIP3   OH242036   6.189   4.196   2.556  0.0996 -0.3401 -0.0738
 6874TIP3    H142037   6.232   4.161   2.634  0.8634  0.9141  0.1030
 6874TIP3    H242038   6.105   4.150   2.552 -0.1191 -0.1637  1.6943
 6875TIP3   OH242039   3.071   6.626  11.524 -0.1934 -0.2873 -1.0061
 6875TIP3    H142040   3.132   6.558  11.495  1.1680  1.4257 -2.3715
 6875TIP3    H242041   3.013   6.639  11.449 -0.9019 -0.3985 -0.4911
 6876TIP3   OH242042   6.156   3.170   2.067  0.0363  0.1659 -0.0129
 6876TIP3    H142043   6.077   3.120   2.086  0.3398 -0.3210 -0.0077
 6876TIP3    H242044   6.188   3.135   1.984 -0.5967  1.4308 -0.8243
 6877TIP3   OH242045   5.633   0.182   0.826  0.4132 -0.8071 -0.0767
 6877TIP3    H142046   5.640   0.235   0.906  1.2047  1.4117 -1.5368
 6877TIP3    H242047   5.700   0.217   0.768 -0.8512 -1.6244 -2.1295
 6878TIP3   OH242048   5.304   4.369  12.703 -0.0842 -0.0658  0.3855
 6878TIP3    H142049   5.379   4.428  12.700  0.6098 -0.9200 -2.2670
 6878TIP3    H242050   5.234   4.417  12.659  0.6332 -1.2585 -2.2585
 6879TIP3   OH242051   4.828   2.217   5.634  0.5186  0.3086  0.7650
 6879TIP3    H142052   4.859   2.306   5.651 -1.0379  0.9590  0.3467
 6879TIP3    H242053   4.733   2.226   5.626  0.4054 -1.2761  0.0069
 6880TIP3   OH242054   1.088   5.880  12.299  0.4467 -0.6796 -0.3828
 6880TIP3    H142055   1.029   5.920  12.363 -1.5787 -0.3907 -2.3211
 6880TIP3    H242056   1.136   5.953  12.261  0.9944 -0.7581  0.1395
 6881TIP3   OH242057   5.307   3.881   0.473 -0.1400  0.3361 -0.2220
 6881TIP3    H142058   5.332   3.791   0.451  0.0822  0.2221  0.4617
 6881TIP3    H242059   5.266   3.915   0.394 -0.7313 -0.5512 -0.3111
 6882TIP3   OH242060   3.039   4.528  12.558  0.2532  0.2773 -0.1302
 6882TIP3    H142061   2.975   4.596  12.538  1.2439  1.0596 -0.7569
 6882TIP3    H242062   3.069   4.497  12.473 -0.0715 -0.8392  0.1555
 6883TIP3   OH242063   3.225   1.969   4.881  1.0794 -0.4665  0.2278
 6883TIP3    H142064   3.292   1.930   4.825  0.2665  0.0639 -1.1610
 6883TIP3    H242065   3.161   1.899   4.895  1.1366 -0.5107  0.2714
 6884TIP3   OH242066   2.768   4.819   5.247  0.0603  0.1022  0.3017
 6884TIP3    H142067   2.857   4.784   5.248 -0.2281 -0.7773 -1.6527
 6884TIP3    H242068   2.765   4.877   5.171 -1.4449 -1.0872 -0.6062
 6885TIP3   OH242069   0.746   3.231  11.321 -0.0486  0.6871  0.1394
 6885TIP3    H142070   0.657   3.210  11.348 -0.3605  0.0528 -1.2628
 6885TIP3    H242071   0.781   3.284  11.392  0.1604 -3.0377  3.0846
 6886TIP3   OH242072   3.799   6.572  13.289  0.2099 -0.0609  0.3853
 6886TIP3    H142073   3.843   6.657  13.286  0.2966 -0.1165  0.0751
 6886TIP3    H242074   3.864   6.513  13.327 -0.1926  0.2169  1.5467
 6887TIP3   OH242075   0.795   6.350  16.278 -0.0656  0.1973 -0.1480
 6887TIP3    H142076   0.749   6.407  16.216 -0.2561  1.3000  0.9698
 6887TIP3    H242077   0.880   6.391  16.291 -0.0179 -0.0381  0.3060
 6888TIP3   OH242078   0.339   0.462   1.951 -0.3660  0.0934  0.3356
 6888TIP3    H142079   0.361   0.416   2.032  1.9915  1.0781  0.3259
 6888TIP3    H242080   0.300   0.395   1.895  1.7145 -1.6106  0.7999
 6889TIP3   OH242081   3.883   5.984  10.995  0.6312 -0.2945 -0.4235
 6889TIP3    H142082   3.916   6.007  10.908 -1.9097  0.4430 -1.2946
 6889TIP3    H242083   3.801   5.938  10.977  0.0537 -0.1307  1.6118
 6890TIP3   OH242084   2.321   2.008   2.918  0.2197 -0.3929 -0.0354
 6890TIP3    H142085   2.323   2.102   2.934  0.1571 -0.5010  0.6353
 6890TIP3    H242086   2.267   1.998   2.840  0.3452  0.1385 -0.1948
 6891TIP3   OH242087   3.023   6.746  12.826  0.4455  0.6618  0.0951
 6891TIP3    H142088   3.076   6.690  12.883 -0.2559 -0.2565 -0.1246
 6891TIP3    H242089   3.045   6.835  12.853  0.8795  0.2676  1.1092
 6892TIP3   OH242090   3.304   2.676   1.998  0.2537 -0.1804 -0.4010
 6892TIP3    H142091   3.256   2.672   1.915  0.8272  2.0488 -0.8964
 6892TIP3    H242092   3.239   2.709   2.061  0.0445 -1.0909 -0.1256
 6893TIP3   OH242093   4.798   2.592   1.471  0.8350 -0.0862  0.3577
 6893TIP3    H142094   4.768   2.616   1.559 -0.2382 -0.4718  0.1094
 6893TIP3    H242095   4.892   2.607   1.473  0.6209  1.3462  1.1164
 6894TIP3   OH242096   6.606   1.619   4.733 -0.5161  0.1881 -0.0348
 6894TIP3    H142097   6.641   1.571   4.808  2.1968 -0.3323 -1.5223
 6894TIP3    H242098   6.633   1.568   4.657  0.4154  2.7758 -1.5637
 6895TIP3   OH242099   1.660   4.360   3.250  0.1321  0.4060 -0.1531
 6895TIP3    H142100   1.618   4.331   3.169  0.6552  2.0202 -1.0620
 6895TIP3    H242101   1.590   4.405   3.298 -0.4714 -1.5406  0.8760
 6896TIP3   OH242102   1.965   5.280  14.451  0.0450  0.1408 -0.2349
 6896TIP3    H142103   1.880   5.254  14.488 -0.5606  1.6607 -0.4859
 6896TIP3    H242104   1.979   5.219  14.378  0.3003 -1.6028  1.1980
 6897TIP3   OH242105   6.070   2.261  11.038  0.0631 -0.2415 -0.5176
 6897TIP3    H142106   6.014   2.214  10.975  0.4116 -1.2130 -0.1121
 6897TIP3    H242107   6.124   2.318  10.984 -0.6961  0.0617 -0.9816
 6898TIP3   OH242108   4.356   2.558  11.792 -0.5600 -0.1389 -0.2471
 6898TIP3    H142109   4.344   2.650  11.769 -0.8501 -0.5307 -1.8539
 6898TIP3    H242110   4.440   2.555  11.838 -0.0980  0.8095 -0.9966
 6899TIP3   OH242111   1.419   5.424   1.642  0.3993 -0.2982  0.1710
 6899TIP3    H142112   1.493   5.381   1.598  1.9802  2.1714  0.2036
 6899TIP3    H242113   1.441   5.420   1.735 -0.0529 -0.4553  0.2745
 6900TIP3   OH242114   1.712   0.490  15.372 -0.0404 -0.4316 -0.4322
 6900TIP3    H142115   1.642   0.556  15.376 -1.0332 -1.5138  0.5701
 6900TIP3    H242116   1.671   0.409  15.400  1.2813 -1.4060 -1.2085
 6901TIP3   OH242117   1.215   4.007   1.123 -0.2870 -0.3283 -0.4793
 6901TIP3    H142118   1.241   4.010   1.030 -1.1273  0.2608 -0.7035
 6901TIP3    H242119   1.137   3.952   1.124 -0.1587 -0.5103 -0.0768
 6902TIP3   OH242120   4.872   5.334   1.463 -0.5309  0.2415 -0.3057
 6902TIP3    H142121   4.806   5.321   1.531  0.8117  0.8826  1.2040
 6902TIP3    H242122   4.918   5.251   1.457  0.5837  0.7334  0.9943
 6903TIP3   OH242123   5.968   1.730   2.031  0.2669  0.0829  0.8435
 6903TIP3    H142124   6.027   1.655   2.040  0.5931  0.4587  2.1920
 6903TIP3    H242125   5.904   1.718   2.102 -0.9651 -0.0284 -0.2513
 6904TIP3   OH242126   5.389   1.095  14.899 -0.1876  0.1609  0.2353
 6904TIP3    H142127   5.444   1.050  14.962 -1.1340 -0.2792  0.7723
 6904TIP3    H242128   5.300   1.065  14.919 -0.5150  0.0848 -1.2528
 6905TIP3   OH242129   5.497   4.104  16.779  0.6897 -0.0165  0.2742
 6905TIP3    H142130   5.475   4.190  16.816 -1.6963  0.0981 -1.1469
 6905TIP3    H242131   5.592   4.102  16.777  0.8361  1.8655  1.9671
 6906TIP3   OH242132   4.642   4.314  15.550 -0.0102 -0.0800  0.4214
 6906TIP3    H142133   4.592   4.236  15.574 -1.1802  0.7116  0.6777
 6906TIP3    H242134   4.734   4.288  15.556 -0.3846 -1.5894 -0.0554
 6907TIP3   OH242135   4.919   2.768  12.113 -0.0265  0.1379 -0.0401
 6907TIP3    H142136   4.949   2.854  12.081  0.5137 -0.8907 -2.4847
 6907TIP3    H242137   4.829   2.784  12.142 -0.2298  1.3728 -1.2385
 6908TIP3   OH242138   4.972   1.328   1.419  0.5970 -0.3175 -0.5478
 6908TIP3    H142139   4.902   1.280   1.463  2.1136 -0.9501  1.2892
 6908TIP3    H242140   5.020   1.371   1.489  0.8888  1.7854 -1.9194
 6909TIP3   OH242141   1.122   4.379   1.105 -0.2939  0.3586 -0.3631
 6909TIP3    H142142   1.190   4.313   1.120 -0.3345  0.5790  0.8932
 6909TIP3    H242143   1.170   4.459   1.084 -0.1158  0.7176  1.3400
 6910TIP3   OH242144   5.187   6.702  13.034 -0.4257  0.8908  0.3656
 6910TIP3    H142145   5.177   6.737  12.946 -1.3885 -0.1498  0.0448
 6910TIP3    H242146   5.243   6.765  13.079 -0.7015  1.9174 -0.7054
 6911TIP3   OH242147   0.703   1.389  14.646  0.3220  0.1357 -0.7390
 6911TIP3    H142148   0.786   1.357  14.682 -0.6466 -0.2170  1.2999
 6911TIP3    H242149   0.666   1.313  14.601 -0.1363 -0.5351  0.7087
 6912TIP3   OH242150   6.481   4.555  17.162 -0.2247 -0.1202 -0.0950
 6912TIP3    H142151   6.439   4.641  17.169 -0.7013 -0.2697 -0.9574
 6912TIP3    H242152   6.548   4.566  17.094  0.3905 -0.1749  0.4974
 6913TIP3   OH242153   6.393   4.005   2.525 -0.4337 -0.7081 -0.2650
 6913TIP3    H142154   6.369   4.019   2.617  1.1896  1.2568 -0.0739
 6913TIP3    H242155   6.427   4.089   2.496 -0.7655 -1.3320 -2.6523
 6914TIP3   OH242156   2.457   4.235  11.538  0.0058  0.4319  0.2270
 6914TIP3    H142157   2.402   4.267  11.467  0.5505  1.8054  0.3910
 6914TIP3    H242158   2.526   4.185  11.494  0.4997  1.5094 -0.2547
 6915TIP3   OH242159   2.325   6.113   6.328 -0.0462  0.1835  0.2543
 6915TIP3    H142160   2.408   6.147   6.293  0.1688  0.9079  1.4052
 6915TIP3    H242161   2.334   6.018   6.321  0.5194  0.2682 -0.4162
 6916TIP3   OH242162   1.839   1.546  11.574  0.0950  0.7647  0.1748
 6916TIP3    H142163   1.879   1.463  11.603 -0.8439  0.7558  1.5708
 6916TIP3    H242164   1.899   1.580  11.509  0.6687 -0.8713 -0.2102
 6917TIP3   OH242165   0.189   0.372   4.160  0.0094 -0.0232  0.0139
 6917TIP3    H142166   0.249   0.342   4.092  0.5608  0.1269  0.4298
 6917TIP3    H242167   0.193   0.305   4.228 -2.1276 -1.2572 -0.9801
 6918TIP3   OH242168   1.011   4.625  14.557 -0.1519  0.7016  0.3619
 6918TIP3    H142169   0.949   4.577  14.502  0.0283 -0.5902  1.2522
 6918TIP3    H242170   1.076   4.659  14.496 -0.5677  0.2384 -0.3463
 6919TIP3   OH242171   0.794   0.814   1.041 -0.2054  0.0535  0.3663
 6919TIP3    H142172   0.762   0.818   0.952 -2.4796 -1.3728  1.0529
 6919TIP3    H242173   0.785   0.903   1.074 -1.0316  0.2087 -0.2644
 6920TIP3   OH242174   1.330   5.397   3.881  0.1591  0.0834  0.1594
 6920TIP3    H142175   1.409   5.435   3.844  0.2736  0.1248  0.4416
 6920TIP3    H242176   1.262   5.462   3.865  0.3456  0.3906  0.5990
 6921TIP3   OH242177   5.438   5.537  12.954  0.0044 -0.0385 -0.3519
 6921TIP3    H142178   5.347   5.541  12.984 -0.1969  0.1828 -0.9765
 6921TIP3    H242179   5.490   5.534  13.034 -0.3909  3.1245  0.1442
 6922TIP3   OH242180   3.652   4.539   4.787 -0.3398 -1.0326  0.9330
 6922TIP3    H142181   3.649   4.502   4.698  1.7296  1.3441 -0.2753
 6922TIP3    H242182   3.568   4.584   4.797  0.2376  0.6377 -0.8720
 6923TIP3   OH242183   2.367   4.203   0.670 -0.1315  0.3422  0.5881
 6923TIP3    H142184   2.345   4.213   0.763 -1.5009 -0.1042  0.3339
 6923TIP3    H242185   2.397   4.290   0.643  1.1367  0.2615  1.6478
 6924TIP3   OH242186   1.964   4.763  14.282  0.1056  0.1417  0.4086
 6924TIP3    H142187   1.973   4.767  14.377 -0.7641  1.7164  0.4622
 6924TIP3    H242188   2.048   4.728  14.251  0.4433 -0.2672  1.7325
 6925TIP3   OH242189   6.747   2.585   3.717  0.2496  0.2342 -0.0006
 6925TIP3    H142190   6.802   2.658   3.690  0.2716  0.7630  1.3599
 6925TIP3    H242191   6.674   2.585   3.655  0.9100  0.5963 -0.7907
 6926TIP3   OH242192   6.169   0.678  14.596  0.0121  0.1633 -0.1000
 6926TIP3    H142193   6.201   0.767  14.583  0.7083 -0.0925 -0.1719
 6926TIP3    H242194   6.073   0.686  14.592  0.0585  0.9419  0.1414
 6927TIP3   OH242195   5.238   0.689  15.524 -0.1601  0.2169 -0.0405
 6927TIP3    H142196   5.209   0.768  15.568 -0.6375 -1.3228  2.6108
 6927TIP3    H242197   5.158   0.642  15.502  0.1482 -0.5120  0.3566
 6928TIP3   OH242198   2.572   5.970  10.834 -0.2153  0.4275  0.1194
 6928TIP3    H142199   2.554   5.904  10.902 -1.1445  1.6603  1.1073
 6928TIP3    H242200   2.494   5.969  10.778 -0.5012  1.1250  0.5050
 6929TIP3   OH242201   0.672   0.579   0.774 -0.1176 -0.5476  0.1721
 6929TIP3    H142202   0.650   0.538   0.858 -0.8461 -1.1069 -0.2775
 6929TIP3    H242203   0.751   0.534   0.745 -0.5075 -1.1641  0.0274
 6930TIP3   OH242204   2.811   6.467   0.898  0.2490  0.2066  0.1322
 6930TIP3    H142205   2.848   6.504   0.978 -0.4932 -2.1834  1.6985
 6930TIP3    H242206   2.774   6.383   0.925 -2.4474  0.4900 -2.1912
 6931TIP3   OH242207   2.783   4.857   3.970 -0.9035  0.4706  0.6549
 6931TIP3    H142208   2.837   4.850   4.049 -0.6980 -0.7618  0.4136
 6931TIP3    H242209   2.700   4.893   4.001 -0.8681 -0.1110  1.4508
 6932TIP3   OH242210   1.929   0.216   4.249 -0.3830 -0.1049 -0.6300
 6932TIP3    H142211   1.918   0.227   4.155  2.0505 -0.7245 -1.0484
 6932TIP3    H242212   1.853   0.259   4.287 -1.5917 -0.1245 -2.8742
 6933TIP3   OH242213   2.216   0.961  11.983 -0.0670 -0.1242  0.3094
 6933TIP3    H142214   2.294   0.945  12.037 -1.5365  0.8120  2.8761
 6933TIP3    H242215   2.238   1.039  11.932  0.7547  0.0095  0.8527
 6934TIP3   OH242216   0.141   4.258   4.778 -0.2071 -0.0334  0.1649
 6934TIP3    H142217   0.096   4.177   4.802  0.9838 -0.5045  0.9144
 6934TIP3    H242218   0.118   4.272   4.686 -1.2749 -0.6411  0.3206
 6935TIP3   OH242219   2.282   1.947  12.715 -0.4455 -0.3177 -0.4406
 6935TIP3    H142220   2.346   2.002  12.671  0.3208  0.6196  1.7351
 6935TIP3    H242221   2.284   1.865  12.666 -0.2325  0.8928 -2.5906
 6936TIP3   OH242222   0.629   4.948   5.733 -0.2065 -0.1299  0.2589
 6936TIP3    H142223   0.544   4.990   5.747  0.6500  1.3546  1.3231
 6936TIP3    H242224   0.633   4.931   5.639 -1.3748  0.4838  0.0846
 6937TIP3   OH242225   4.871   2.706   4.570  0.2835  0.1110  0.2984
 6937TIP3    H142226   4.785   2.670   4.549  0.3342  0.3192 -0.2811
 6937TIP3    H242227   4.933   2.644   4.531  0.3739  0.7007 -0.5260
 6938TIP3   OH242228   4.269   4.979  11.739 -0.0657  0.3186  0.8601
 6938TIP3    H142229   4.348   4.970  11.792  0.6042 -0.9935 -0.3156
 6938TIP3    H242230   4.279   5.063  11.695 -0.4892  1.2880  2.5147
 6939TIP3   OH242231   5.090   6.215  11.715 -0.0205  0.4762 -0.1285
 6939TIP3    H142232   5.059   6.169  11.637 -0.4002 -0.3200  0.4687
 6939TIP3    H242233   5.185   6.210  11.710 -0.0090  1.3675 -1.0729
 6940TIP3   OH242234   5.172   5.973  13.152  0.8828 -0.1777 -0.0259
 6940TIP3    H142235   5.261   5.986  13.186  1.0970 -0.3822 -0.4998
 6940TIP3    H242236   5.181   5.902  13.088  0.3136 -0.4432  0.1843
 6941TIP3   OH242237   4.581   5.823  12.492 -0.6639  0.2666  0.2429
 6941TIP3    H142238   4.643   5.811  12.420  0.6726  0.8526  1.2516
 6941TIP3    H242239   4.568   5.735  12.528  0.5149  0.2883  0.7503
 6942TIP3   OH242240   1.491   1.791   5.673  0.2939  0.1060 -0.5756
 6942TIP3    H142241   1.523   1.717   5.621 -2.4593 -1.8605  0.3276
 6942TIP3    H242242   1.488   1.758   5.763 -1.7510  0.9754 -0.2704
 6943TIP3   OH242243   4.881   0.638   4.029  0.0882 -0.2053  0.0101
 6943TIP3    H142244   4.948   0.671   3.968  0.8223 -1.9972 -0.2159
 6943TIP3    H242245   4.864   0.711   4.088  0.7592  0.9523 -1.1744
 6944TIP3   OH242246   6.499   4.216   2.429 -0.0662 -0.3902 -0.5643
 6944TIP3    H142247   6.461   4.268   2.358 -0.8439 -0.1709  0.0043
 6944TIP3    H242248   6.538   4.281   2.489  0.7438 -0.5833 -0.8639
 6945TIP3   OH242249   5.222   0.065   2.521  0.1407  0.6033  0.1552
 6945TIP3    H142250   5.212   0.070   2.616 -0.9521  3.1244  0.0019
 6945TIP3    H242251   5.140   0.025   2.491 -0.3182  1.4506  0.2180
 6946TIP3   OH242252   1.931   3.658  15.020 -0.1437 -0.4821  0.2157
 6946TIP3    H142253   1.862   3.724  15.018 -1.0539 -1.3566  1.4717
 6946TIP3    H242254   1.887   3.576  14.995  0.8138 -0.7665 -0.6332
 6947TIP3   OH242255   2.156   1.769   4.981  0.1313  0.2661  0.2114
 6947TIP3    H142256   2.204   1.691   4.952 -2.7381 -1.4776 -0.2553
 6947TIP3    H242257   2.193   1.840   4.928  1.8524 -1.0091 -0.4187
 6948TIP3   OH242258   4.452   6.398   2.203 -0.0414 -0.4929  0.3257
 6948TIP3    H142259   4.481   6.355   2.122  0.8780  1.4402 -0.4259
 6948TIP3    H242260   4.530   6.400   2.257 -0.2348 -0.2870  0.5952
 6949TIP3   OH242261   0.169   6.779   5.372 -0.1614 -0.0072  0.3774
 6949TIP3    H142262   0.177   6.698   5.422 -2.4701  0.7885  2.2462
 6949TIP3    H242263   0.074   6.792   5.362  0.1706  1.6756 -1.2323
 6950TIP3   OH242264   4.694   4.028  12.359  0.2804 -0.5763 -0.4693
 6950TIP3    H142265   4.697   4.122  12.344  0.2680 -0.4785  0.0973
 6950TIP3    H242266   4.712   3.989  12.274 -2.5965 -0.1075 -1.3928
 6951TIP3   OH242267   2.422   4.538  12.737 -0.6386  0.0454  0.0829
 6951TIP3    H142268   2.373   4.573  12.811  3.1726  2.9301  1.5829
 6951TIP3    H242269   2.471   4.464  12.772  1.5965  1.7479  0.8403
 6952TIP3   OH242270   2.116   2.635   0.643 -0.3752 -0.4217 -0.7641
 6952TIP3    H142271   2.066   2.627   0.724  0.6599 -0.5644 -0.1258
 6952TIP3    H242272   2.205   2.612   0.667  0.3888  1.5623 -1.4869
 6953TIP3   OH242273   5.939   2.017  13.249  0.4001 -0.3139  0.0677
 6953TIP3    H142274   5.878   2.009  13.175 -0.3796  1.8864  0.4027
 6953TIP3    H242275   5.887   1.993  13.326  0.7445 -1.0212  0.0854
 6954TIP3   OH242276   0.016   4.332   2.263  0.5136  0.2019 -0.1894
 6954TIP3    H142277   0.057   4.405   2.309  0.3709  0.5488 -0.6016
 6954TIP3    H242278   0.038   4.255   2.316  1.0186  0.4847  0.0279
 6955TIP3   OH242279   2.160   6.204   4.953  0.0382 -0.3005  0.0921
 6955TIP3    H142280   2.221   6.261   5.001  1.2446  0.4720 -2.2102
 6955TIP3    H242281   2.078   6.253   4.951  0.8361  1.1024 -1.1709
 6956TIP3   OH242282   0.002   0.221  13.473 -0.1926  0.5631 -0.2359
 6956TIP3    H142283  -0.001   0.312  13.445 -0.7045  0.8759  0.7646
 6956TIP3    H242284  -0.088   0.189  13.461 -0.1630  0.3829  0.0023
 6957TIP3   OH242285   4.071   3.645  12.545  0.0427 -0.1235  0.0034
 6957TIP3    H142286   4.137   3.640  12.615 -0.1121  0.3692  0.1864
 6957TIP3    H242287   4.116   3.612  12.467  0.7836  1.0181 -0.0774
 6958TIP3   OH242288   0.508   6.070   4.072  0.1628  0.2041 -0.1025
 6958TIP3    H142289   0.562   6.032   4.141 -1.0972  0.5516  1.1376
 6958TIP3    H242290   0.418   6.060   4.104 -0.5310 -0.2928 -2.0467
 6959TIP3   OH242291   4.612   5.806  10.594 -0.2685  0.2412 -0.0145
 6959TIP3    H142292   4.691   5.762  10.624  0.1403 -0.3063 -1.7834
 6959TIP3    H242293   4.541   5.745  10.614  0.3000 -1.4274 -2.5371
 6960TIP3   OH242294   1.922   4.308  11.545 -0.0246 -0.1373  0.4235
 6960TIP3    H142295   1.857   4.366  11.506 -0.3176 -0.0260  1.0714
 6960TIP3    H242296   1.873   4.230  11.572  0.1929 -0.2568  0.4798
 6961TIP3   OH242297   6.060   5.668  13.010 -0.3633  0.2144  0.4004
 6961TIP3    H142298   6.066   5.630  12.922 -2.8820  0.6623 -0.0618
 6961TIP3    H242299   6.009   5.604  13.060  1.5456 -0.3111  1.7595
 6962TIP3   OH242300   4.374   2.779  14.429 -0.3759  0.8761 -0.3771
 6962TIP3    H142301   4.384   2.810  14.339  3.4002  0.9616 -0.0939
 6962TIP3    H242302   4.405   2.852  14.483 -0.1574 -0.0568  0.8128
 6963TIP3   OH242303   3.286   4.326   5.275  0.2485  0.1510  0.8814
 6963TIP3    H142304   3.193   4.336   5.295 -0.0705 -0.2470 -0.3197
 6963TIP3    H242305   3.311   4.411   5.239 -0.5923 -0.7886 -2.2119
 6964TIP3   OH242306   1.763   5.269  10.818 -0.3980  0.0992  0.1624
 6964TIP3    H142307   1.703   5.335  10.784  1.4069  1.4839 -0.4920
 6964TIP3    H242308   1.845   5.316  10.833  0.8750 -1.9312 -0.0018
 6965TIP3   OH242309   1.944   0.542   5.646 -0.6665 -0.1441 -0.7378
 6965TIP3    H142310   1.963   0.540   5.740 -1.9310 -1.2713 -0.4765
 6965TIP3    H242311   2.019   0.497   5.606 -0.6236 -0.5939 -0.1666
 6966TIP3   OH242312   1.282   3.572  15.151  0.0892 -0.7607  0.0908
 6966TIP3    H142313   1.302   3.513  15.223  1.0650 -1.7840 -0.9985
 6966TIP3    H242314   1.330   3.652  15.172 -0.9176 -0.4497  1.3649
 6967TIP3   OH242315   4.275   6.207   3.663 -0.2615 -0.1070 -0.1735
 6967TIP3    H142316   4.367   6.183   3.661 -0.1059  0.3881  0.6100
 6967TIP3    H242317   4.229   6.124   3.672  0.0996 -0.3582 -0.5995
 6968TIP3   OH242318   5.678   4.607  13.879  0.2086 -0.2101 -0.0552
 6968TIP3    H142319   5.719   4.522  13.893 -0.6271 -0.4248  1.2344
 6968TIP3    H242320   5.584   4.589  13.884  0.0302  0.8869  0.9109
 6969TIP3   OH242321   6.533   4.128  12.930 -0.2557  0.3900  0.0777
 6969TIP3    H142322   6.621   4.093  12.918 -0.4031  0.8352 -3.1047
 6969TIP3    H242323   6.475   4.061  12.892 -1.0026  1.5504 -0.8792
 6970TIP3   OH242324   0.992   2.345  11.891  0.0434  0.5632  0.4253
 6970TIP3    H142325   0.975   2.319  11.801  1.2915 -1.6758  0.7638
 6970TIP3    H242326   0.913   2.392  11.918 -1.7960 -1.6496 -0.7938
 6971TIP3   OH242327   4.440   0.800  10.887 -0.2387 -0.7592  0.0289
 6971TIP3    H142328   4.441   0.891  10.856 -0.7844 -1.0596 -0.9185
 6971TIP3    H242329   4.474   0.804  10.976 -2.4630  0.7079  0.8845
 6972TIP3   OH242330   0.721   6.223   0.402 -0.2868  0.2062 -0.0057
 6972TIP3    H142331   0.812   6.203   0.382 -0.6633 -1.4112 -0.2613
 6972TIP3    H242332   0.682   6.243   0.317 -0.5383 -0.8056 -0.1443
 6973TIP3   OH242333   2.830   4.966   2.928 -0.1059 -0.4675  0.1430
 6973TIP3    H142334   2.806   4.963   2.836 -0.2070 -1.2272  0.1837
 6973TIP3    H242335   2.925   4.958   2.929 -0.0687 -0.0309  0.0869
 6974TIP3   OH242336   2.725   6.057  13.654 -0.0413  0.0139  0.5546
 6974TIP3    H142337   2.752   6.130  13.710 -1.8706 -0.0444  1.5801
 6974TIP3    H242338   2.701   5.988  13.715  1.4283 -1.4211 -0.3991
 6975TIP3   OH242339   6.755   1.682  11.749  0.7727  0.2310 -0.3791
 6975TIP3    H142340   6.691   1.685  11.677  0.8022 -1.3319 -0.5060
 6975TIP3    H242341   6.762   1.773  11.778 -1.8361  0.4172 -0.0835
 6976TIP3   OH242342   4.870   4.791  17.094  0.2536 -0.5161 -0.1567
 6976TIP3    H142343   4.916   4.836  17.165 -1.4677  2.1903 -0.5994
 6976TIP3    H242344   4.939   4.763  17.034  1.7560 -2.8807  2.4399
 6977TIP3   OH242345   3.961   2.446  14.534  0.0707  0.5829 -0.4037
 6977TIP3    H142346   4.018   2.387  14.584 -3.3593 -2.3513  0.4924
 6977TIP3    H242347   3.990   2.533  14.558  2.0171 -0.7298  2.6035
 6978TIP3   OH242348   4.515   1.257   1.895 -0.5739  0.2561 -0.0193
 6978TIP3    H142349   4.544   1.345   1.920 -0.1197  0.1358 -0.1242
 6978TIP3    H242350   4.444   1.272   1.832 -0.9419  0.5522  0.4534
 6979TIP3   OH242351   2.873   5.008   6.205 -0.5849  0.8049  0.0620
 6979TIP3    H142352   2.854   4.922   6.244 -1.3701 -0.3044 -2.5095
 6979TIP3    H242353   2.787   5.040   6.177  0.0038  1.1431 -1.4031
 6980TIP3   OH242354   4.513   2.669  15.663  0.6323 -0.0128  0.5812
 6980TIP3    H142355   4.456   2.743  15.645 -0.1159 -1.0607 -1.7104
 6980TIP3    H242356   4.600   2.698  15.636  0.7576  0.7065  1.6869
 6981TIP3   OH242357   2.173   3.297   4.153  0.0614 -0.6482 -0.0146
 6981TIP3    H142358   2.225   3.361   4.105  0.3083 -0.4273  0.5286
 6981TIP3    H242359   2.202   3.307   4.244  0.0422 -1.4707  0.0886
 6982TIP3   OH242360   0.163   6.687   0.690  1.0360  0.2266  0.5211
 6982TIP3    H142361   0.087   6.743   0.699  0.0054 -1.0287  0.0074
 6982TIP3    H242362   0.221   6.734   0.631 -0.0524  0.5090 -0.3487
 6983TIP3   OH242363   2.193   3.174   2.412  0.0541  0.2881 -0.0399
 6983TIP3    H142364   2.162   3.165   2.503 -1.2458  2.2086 -0.2164
 6983TIP3    H242365   2.277   3.129   2.411 -0.2192 -0.3958  1.9450
 6984TIP3   OH242366   6.267   0.983  14.599 -0.1539 -0.8148 -0.0963
 6984TIP3    H142367   6.362   0.967  14.596 -0.2820 -1.9107  0.8754
 6984TIP3    H242368   6.257   1.055  14.661  0.1070  0.1054 -1.0889
 6985TIP3   OH242369   4.097   5.905   5.757  0.0281  0.2613 -0.3128
 6985TIP3    H142370   4.090   5.888   5.664 -0.0813 -1.9756  0.0473
 6985TIP3    H242371   4.168   5.969   5.765  1.2000 -0.7818 -1.8359
 6986TIP3   OH242372   5.484   1.333   3.416  0.2610 -0.1259  0.1985
 6986TIP3    H142373   5.502   1.281   3.495 -0.2585 -1.7791 -0.7242
 6986TIP3    H242374   5.391   1.319   3.398  0.3151  0.4234 -0.5678
 6987TIP3   OH242375   4.063   5.391  15.408  0.8588 -0.2721 -0.2202
 6987TIP3    H142376   4.094   5.443  15.333  2.1503 -1.6825 -0.7075
 6987TIP3    H242377   4.026   5.312  15.369 -2.2855  0.7327  0.4284
 6988TIP3   OH242378   1.120   6.700  11.830 -0.4673 -0.4674 -0.0973
 6988TIP3    H142379   1.050   6.634  11.833  0.7122 -1.8825 -1.9601
 6988TIP3    H242380   1.091   6.763  11.764 -0.7968 -0.0190  0.4592
 6989TIP3   OH242381   0.060   2.049  16.585  0.6946  0.1565 -0.0041
 6989TIP3    H142382   0.127   2.098  16.539  1.3413 -0.0611  0.6795
 6989TIP3    H242383  -0.019   2.103  16.578  1.2151  0.9480  0.1159
 6990TIP3   OH242384   0.020   2.585  16.572  0.4843  0.1995  0.1501
 6990TIP3    H142385  -0.044   2.656  16.574  2.5035  2.1107  0.5126
 6990TIP3    H242386  -0.010   2.524  16.641 -0.9630  0.9573  0.2347
 6991TIP3   OH242387   5.290   3.686  14.504 -0.0545 -0.8443  0.2668
 6991TIP3    H142388   5.329   3.634  14.575 -0.9085 -1.1512  0.5132
 6991TIP3    H242389   5.301   3.633  14.426  2.2339  0.1159 -0.1478
 6992TIP3   OH242390   0.196   1.797  16.751  0.4276 -0.7292 -0.2625
 6992TIP3    H142391   0.228   1.738  16.819  1.1794 -0.4648 -0.3790
 6992TIP3    H242392   0.268   1.800  16.687 -0.3961 -1.2434 -1.2386
 6993TIP3   OH242393   1.274   2.245   3.660 -0.0148  0.2554 -0.1192
 6993TIP3    H142394   1.364   2.277   3.657 -0.1121  0.5726  0.2614
 6993TIP3    H242395   1.279   2.155   3.627  0.4269  0.3020 -0.1818
 6994TIP3   OH242396   4.038   2.132  11.048 -0.3612  0.1103 -0.4018
 6994TIP3    H142397   4.107   2.074  11.015  0.5746  0.7817  0.3075
 6994TIP3    H242398   4.047   2.212  10.996 -0.7482  0.1290 -0.4442
 6995TIP3   OH242399   6.535   5.679  11.429  0.0023 -0.2033  0.1775
 6995TIP3    H142400   6.549   5.709  11.519  0.3404 -0.2292  0.1320
 6995TIP3    H242401   6.528   5.584  11.437  1.1490 -0.3048  0.0319
 6996TIP3   OH242402   6.778   4.999   0.857  0.1135 -0.1146 -0.4362
 6996TIP3    H142403   6.683   4.996   0.862  0.0939  1.2320  0.6874
 6996TIP3    H242404   6.807   4.922   0.905 -0.4166 -0.3948 -0.5637
 6997TIP3   OH242405   6.731   2.295   3.683 -0.7324 -0.6504  0.6000
 6997TIP3    H142406   6.710   2.387   3.698 -1.3998 -0.7749  0.4727
 6997TIP3    H242407   6.674   2.269   3.610 -0.2026 -1.0356  0.3134
 6998TIP3   OH242408   1.888   3.567  14.720  0.1374 -0.0018 -0.2720
 6998TIP3    H142409   1.842   3.525  14.792  2.0837 -0.0394  1.0176
 6998TIP3    H242410   1.978   3.536  14.728  0.7646  1.3355 -1.6983
 6999TIP3   OH242411   5.502   6.149  10.635 -0.3470 -0.4588  0.3167
 6999TIP3    H142412   5.556   6.190  10.568  1.0658 -0.3769  1.4473
 6999TIP3    H242413   5.442   6.219  10.663 -1.5639 -0.7468 -1.4252
 7000TIP3   OH242414   6.463   2.051   2.763  0.2013  0.0980 -0.2243
 7000TIP3    H142415   6.429   1.997   2.692  0.5309  0.9283 -1.0450
 7000TIP3    H242416   6.555   2.027   2.770  0.0706 -0.2736  0.1977
 7001TIP3   OH242417   5.545   1.511   1.010  0.5105 -0.0137 -0.5818
 7001TIP3    H142418   5.587   1.551   0.934  0.9473  0.6906  0.0237
 7001TIP3    H242419   5.616   1.469   1.058  0.6250  1.5040  0.6506
 7002TIP3   OH242420   3.614   3.115   3.484 -0.6161 -0.1391  0.4220
 7002TIP3    H142421   3.576   3.114   3.396  0.5842  0.0172 -0.1114
 7002TIP3    H242422   3.694   3.167   3.475 -0.3265 -0.3651  1.5498
 7003TIP3   OH242423   1.248   5.349   2.365  0.2601 -0.4761  0.1830
 7003TIP3    H142424   1.319   5.386   2.313 -0.2229  1.3860  0.7638
 7003TIP3    H242425   1.169   5.390   2.328 -0.3253 -1.1029  0.7283
 7004TIP3   OH242426   0.014   1.202   4.529 -0.5275  0.1993 -0.5115
 7004TIP3    H142427   0.007   1.246   4.444 -1.2158 -0.6808 -0.9353
 7004TIP3    H242428  -0.050   1.247   4.584  0.5491  1.3558 -0.1794
 7005TIP3   OH242429   1.888   4.636   2.462  0.1793  0.9444  0.3244
 7005TIP3    H142430   1.835   4.711   2.434 -0.0276  0.4393 -0.6664
 7005TIP3    H242431   1.906   4.653   2.554 -1.8112  1.0921  0.7379
 7006TIP3   OH242432   0.579   3.126  13.000  0.2005 -0.5870  0.4391
 7006TIP3    H142433   0.508   3.128  12.936  0.6220 -1.5373 -0.0944
 7006TIP3    H242434   0.568   3.042  13.045  0.1169 -0.0783  1.3673
 7007TIP3   OH242435   2.025   5.426   2.455  0.3372 -0.9555  0.1554
 7007TIP3    H142436   2.001   5.334   2.445 -0.8700 -0.6952  0.4650
 7007TIP3    H242437   2.118   5.425   2.479  0.5424 -2.0451 -0.6228
 7008TIP3   OH242438   0.805   3.724   6.204  0.8292 -0.1443  0.0090
 7008TIP3    H142439   0.889   3.770   6.200 -0.1775  1.8303  0.5034
 7008TIP3    H242440   0.766   3.750   6.287 -0.2077 -1.1741 -0.1205
 7009TIP3   OH242441   2.719   4.623  12.033 -0.2274  0.0784  0.0333
 7009TIP3    H142442   2.700   4.568  11.957  0.3882 -0.9494  0.5881
 7009TIP3    H242443   2.810   4.603  12.054 -0.3209  0.5245  0.8918
 7010TIP3   OH242444   2.588   5.663   1.650  0.0048  0.0329 -0.8448
 7010TIP3    H142445   2.663   5.701   1.695 -0.3337 -0.0945 -0.1552
 7010TIP3    H242446   2.559   5.592   1.707 -2.6077  2.0684  0.6244
 7011TIP3   OH242447   6.023   5.410  10.773  0.3981 -0.0659 -0.8978
 7011TIP3    H142448   5.929   5.421  10.761  0.0266 -1.2213  0.6950
 7011TIP3    H242449   6.050   5.485  10.825  0.4556  0.4686 -1.6760
 7012TIP3   OH242450   0.022   2.744   2.661 -0.6280  0.1771  0.2569
 7012TIP3    H142451   0.079   2.710   2.592 -0.9411  0.7445 -0.3011
 7012TIP3    H242452  -0.067   2.725   2.629 -0.7710  0.0637  0.7110
 7013TIP3   OH242453   2.682   3.884  15.776 -0.2698 -0.0766  0.3168
 7013TIP3    H142454   2.775   3.869  15.757  0.1097  2.1336  0.1335
 7013TIP3    H242455   2.679   3.972  15.813 -2.3808  0.2216 -0.4256
 7014TIP3   OH242456   0.136   1.894   2.372 -0.0837  0.5398 -0.6815
 7014TIP3    H142457   0.156   1.816   2.424 -1.7914  2.1984  2.8564
 7014TIP3    H242458   0.221   1.937   2.360  0.3779  0.3295  1.3808
 7015TIP3   OH242459   0.987   3.203  15.370 -0.1096 -0.5263 -0.0284
 7015TIP3    H142460   1.075   3.184  15.404  0.0542 -1.6467 -1.0433
 7015TIP3    H242461   1.002   3.259  15.294 -0.3325 -0.0746  0.2544
 7016TIP3   OH242462   1.172   5.021  10.678  0.1533  0.0508 -0.4536
 7016TIP3    H142463   1.166   4.972  10.596 -0.5047 -1.1914  0.3108
 7016TIP3    H242464   1.106   4.981  10.735  1.2255  0.2703  1.0051
 7017TIP3   OH242465   6.440   1.991  16.623 -0.8512 -0.0529  0.4427
 7017TIP3    H142466   6.467   1.905  16.592 -1.5140 -0.6100  1.3630
 7017TIP3    H242467   6.448   1.986  16.718  0.1961  1.2871  0.4506
 7018TIP3   OH242468   5.991   2.000  11.607 -0.3649 -0.2446 -0.1644
 7018TIP3    H142469   6.011   2.093  11.621  2.0930 -0.8633  0.9104
 7018TIP3    H242470   6.040   1.977  11.528  2.3118 -1.4371  1.6781
 7019TIP3   OH242471   6.301   5.289   2.053  0.2224  0.0573 -0.3575
 7019TIP3    H142472   6.237   5.357   2.033 -1.1662 -1.4625 -1.3463
 7019TIP3    H242473   6.327   5.305   2.144 -1.8047  0.5583  0.1781
 7020TIP3   OH242474   5.981   4.278   1.902 -0.5799  1.5217 -0.4630
 7020TIP3    H142475   5.901   4.310   1.945 -2.1037  0.5720 -2.4050
 7020TIP3    H242476   5.979   4.184   1.917 -0.4102  1.3603 -1.3948
 7021TIP3   OH242477   4.242   6.669   5.869  0.4325 -0.4987  0.0407
 7021TIP3    H142478   4.250   6.718   5.951  0.4561  0.7616 -0.6803
 7021TIP3    H242479   4.154   6.633   5.870  0.0929  0.3213  0.2017
 7022TIP3   OH242480   3.767   3.873   1.964 -0.2833 -0.0407 -0.1036
 7022TIP3    H142481   3.779   3.952   2.016 -1.4380 -0.4028  0.7656
 7022TIP3    H242482   3.848   3.824   1.976 -0.2626  0.1971  0.8391
 7023TIP3   OH242483   4.082   3.170  10.629 -0.0462  0.2325  0.5918
 7023TIP3    H142484   4.060   3.262  10.645  1.4379  0.4749  1.4455
 7023TIP3    H242485   4.004   3.133  10.587 -1.2704  1.4757  1.6800
 7024TIP3   OH242486   2.400   5.630  17.214 -0.5067  0.2533  0.2617
 7024TIP3    H142487   2.334   5.691  17.182 -0.5800  0.1582  0.2309
 7024TIP3    H242488   2.407   5.650  17.308  0.7713  1.5397 -0.0703
 7025TIP3   OH242489   6.678   4.549  15.857  0.0104  0.3518  0.2999
 7025TIP3    H142490   6.758   4.581  15.899  0.0103  1.8409 -0.7932
 7025TIP3    H242491   6.708   4.508  15.776 -0.2262 -0.2588  0.5133
 7026TIP3   OH242492   1.290   4.943  14.181 -0.2883 -0.3643  0.2944
 7026TIP3    H142493   1.386   4.945  14.176 -0.3483  2.0770 -1.9245
 7026TIP3    H242494   1.262   4.939  14.090 -2.3050  0.3639  0.8387
 7027TIP3   OH242495   6.652   1.307   4.763 -0.1549 -1.0433 -0.2190
 7027TIP3    H142496   6.579   1.330   4.706  1.6074 -0.2087 -2.2892
 7027TIP3    H242497   6.620   1.325   4.852 -3.0785 -2.5983 -0.8362
 7028TIP3   OH242498   2.863   5.991  13.404 -0.4083 -0.2140 -0.6420
 7028TIP3    H142499   2.815   6.055  13.351 -0.0592  1.4760  0.9992
 7028TIP3    H242500   2.803   5.969  13.475  0.8133  1.2278  0.9210
 7029TIP3   OH242501   1.716   3.642   3.026  0.5078  0.1073  0.1354
 7029TIP3    H142502   1.728   3.632   2.931 -0.3097 -0.4280  0.0792
 7029TIP3    H242503   1.621   3.641   3.038  0.6152 -0.2487  1.0056
 7030TIP3   OH242504   2.669   3.062   5.985 -0.4134 -0.4920 -0.4921
 7030TIP3    H142505   2.626   2.999   5.927 -1.1954  0.4008 -0.8928
 7030TIP3    H242506   2.659   3.024   6.072 -0.7287 -1.0047 -0.7429
 7031TIP3   OH242507   6.370   4.288   0.272  0.3321 -0.1423 -0.1621
 7031TIP3    H142508   6.437   4.356   0.288  1.0987 -0.7013 -0.9077
 7031TIP3    H242509   6.330   4.274   0.358  0.8563  0.5427  0.2102
 7032TIP3   OH242510   6.665   5.961   0.525 -0.6151  0.0834 -0.9900
 7032TIP3    H142511   6.670   5.929   0.615 -0.5794 -2.2684 -1.7455
 7032TIP3    H242512   6.744   6.013   0.513 -1.5137  2.0088  0.8344
 7033TIP3   OH242513   3.490   4.712  16.760 -0.3687 -0.3634  0.1245
 7033TIP3    H142514   3.487   4.778  16.830  1.0579  0.6144 -0.6875
 7033TIP3    H242515   3.423   4.740  16.698  1.3065  1.3709 -1.0318
 7034TIP3   OH242516   0.948   0.504  16.632 -0.5615  0.5247 -0.3642
 7034TIP3    H142517   0.979   0.417  16.657 -0.5569  0.7598  0.4682
 7034TIP3    H242518   0.900   0.535  16.709 -0.0877  1.4861 -0.4481
 7035TIP3   OH242519   1.144   1.874   0.484 -0.6086 -0.9291  0.2305
 7035TIP3    H142520   1.127   1.803   0.547  0.8718 -0.8727  0.7176
 7035TIP3    H242521   1.145   1.953   0.538  1.3764 -0.9521  0.2931
 7036TIP3   OH242522   4.450   3.021   5.721  0.6494  0.4518  0.2447
 7036TIP3    H142523   4.458   3.016   5.625  2.4619 -0.0792  0.3886
 7036TIP3    H242524   4.356   3.016   5.737  0.2506  1.3115 -1.5450
 7037TIP3   OH242525   5.268   1.077   3.205  0.0568  0.1359  0.6621
 7037TIP3    H142526   5.216   0.999   3.227 -0.1222  0.5144  1.6012
 7037TIP3    H242527   5.227   1.110   3.125  1.2317 -1.7260 -0.7844
 7038TIP3   OH242528   6.344   3.473   2.766  0.2314 -0.2166  0.2386
 7038TIP3    H142529   6.314   3.453   2.678 -1.0080 -0.0022  0.5933
 7038TIP3    H242530   6.387   3.558   2.759  0.2512 -0.2624 -0.1815
 7039TIP3   OH242531   3.073   1.415  12.506  0.0456  0.8466  0.7663
 7039TIP3    H142532   3.132   1.340  12.494 -1.4250 -0.1788 -0.5853
 7039TIP3    H242533   3.052   1.443  12.417  0.2357  2.6466  1.2508
 7040TIP3   OH242534   0.334   0.371  11.699 -0.2112  0.0398 -0.5307
 7040TIP3    H142535   0.288   0.455  11.698 -0.3401  0.0209  1.2098
 7040TIP3    H242536   0.420   0.390  11.661 -0.5611  0.7385 -0.9992
 7041TIP3   OH242537   0.925   3.871   1.718 -0.3007 -0.3162  0.5631
 7041TIP3    H142538   0.886   3.959   1.723 -0.3496 -0.1823 -1.2317
 7041TIP3    H242539   0.872   3.825   1.653  0.8756 -1.0236  0.0577
 7042TIP3   OH242540   3.441   4.713   2.292  0.1501  0.4362  0.5917
 7042TIP3    H142541   3.532   4.693   2.317  1.0772 -0.3752 -2.8771
 7042TIP3    H242542   3.449   4.766   2.213 -2.4309  0.7167  0.4474
 7043TIP3   OH242543   4.817   3.846   0.724  0.0417 -0.1572 -0.2622
 7043TIP3    H142544   4.898   3.827   0.676  0.8797  1.0533  0.6130
 7043TIP3    H242545   4.748   3.807   0.670  0.7947  1.9046 -2.9842
 7044TIP3   OH242546   1.453   6.064   1.498 -0.3010  0.3620  0.3767
 7044TIP3    H142547   1.427   6.107   1.580 -0.8927 -0.3559  0.5733
 7044TIP3    H242548   1.377   6.012   1.473  0.1758 -0.0702 -0.1914
 7045TIP3   OH242549   3.021   5.337   6.669 -0.7265  1.0913 -1.0249
 7045TIP3    H142550   3.006   5.426   6.639 -0.1629  1.2641 -0.8031
 7045TIP3    H242551   3.110   5.338   6.704 -1.2958  0.8456  0.4835
 7046TIP3   OH242552   3.968   3.614   0.201  0.2639  0.6829  0.2377
 7046TIP3    H142553   4.041   3.560   0.229 -0.5281 -0.4983  0.0828
 7046TIP3    H242554   3.890   3.568   0.232 -0.4992  0.9254 -1.2189
 7047TIP3   OH242555   4.446   5.272  16.070  0.0067 -0.1441 -0.0234
 7047TIP3    H142556   4.388   5.305  16.001 -0.9147  1.9188  1.6412
 7047TIP3    H242557   4.393   5.211  16.120  0.4213 -0.9873 -0.5744
 7048TIP3   OH242558   2.587   6.510   0.011 -0.8099  0.5451  0.5529
 7048TIP3    H142559   2.636   6.529  -0.068 -2.4022  0.7128 -0.4530
 7048TIP3    H242560   2.571   6.416   0.008 -3.0847  0.8898 -0.7688
 7049TIP3   OH242561   4.735   2.217  17.072  0.1240  0.1005 -0.3247
 7049TIP3    H142562   4.703   2.135  17.034 -4.5835  0.1612  2.6576
 7049TIP3    H242563   4.717   2.209  17.166 -0.2992  4.3698  0.1625
 7050TIP3   OH242564   5.458   5.262   0.655  0.4477  0.7837  0.0787
 7050TIP3    H142565   5.536   5.284   0.605  0.9226  3.0608  1.6837
 7050TIP3    H242566   5.488   5.198   0.719  1.3024  2.3817  1.3411
 7051TIP3   OH242567   4.846   1.092  13.018 -0.0869  0.4915 -0.0673
 7051TIP3    H142568   4.860   1.040  13.097  0.4554  1.0567  0.2208
 7051TIP3    H242569   4.758   1.070  12.989 -0.3172  0.3354  0.7461
 7052TIP3   OH242570   0.552   4.226  11.022  0.8748 -0.1261  0.0367
 7052TIP3    H142571   0.531   4.195  10.934 -0.5551  3.0693 -0.9317
 7052TIP3    H242572   0.647   4.219  11.029  1.1186  0.3105 -2.1532
 7053TIP3   OH242573   5.748   2.464  14.579  0.5484  0.1942  0.1320
 7053TIP3    H142574   5.714   2.540  14.626 -0.8580  0.4619 -1.2060
 7053TIP3    H242575   5.840   2.484  14.564  0.3315  1.4105  0.2817
 7054TIP3   OH242576   1.548   0.064   3.835  0.1664  0.2254  0.2865
 7054TIP3    H142577   1.459   0.070   3.800  0.9708  0.5047 -1.8460
 7054TIP3    H242578   1.591   0.144   3.805  1.1314  0.1254  1.3519
 7055TIP3   OH242579   3.915   2.053   4.920 -0.1708 -0.1704 -0.2014
 7055TIP3    H142580   3.833   2.079   4.880  0.1527  0.3787 -0.5259
 7055TIP3    H242581   3.903   1.960   4.942 -1.9045  0.5701  2.4006
 7056TIP3   OH242582   1.336   0.080   2.101 -1.0698  0.1588  0.8285
 7056TIP3    H142583   1.340   0.104   2.194  0.7882 -3.0393  1.7295
 7056TIP3    H242584   1.414   0.121   2.062  0.3400 -1.6458  1.6348
 7057TIP3   OH242585   1.269   2.059   5.746  0.2004 -0.8709 -0.1956
 7057TIP3    H142586   1.184   2.103   5.752 -0.3013 -1.7200 -0.7655
 7057TIP3    H242587   1.256   1.976   5.793  1.0353 -0.5523  0.6094
 7058TIP3   OH242588   4.014   2.630   3.616  0.6595 -0.0995  0.0689
 7058TIP3    H142589   3.970   2.705   3.655  1.9750  0.3191  0.7967
 7058TIP3    H242590   3.964   2.554   3.647 -0.9520  0.4474 -1.0211
 7059TIP3   OH242591   6.465   2.898  15.393 -0.6137  0.6866 -0.4847
 7059TIP3    H142592   6.380   2.856  15.387 -1.8416  2.8889  0.2036
 7059TIP3    H242593   6.506   2.861  15.471 -0.2392 -1.4481 -1.6181
 7060TIP3   OH242594   1.608   2.315   5.505 -0.1339 -0.1494 -0.4308
 7060TIP3    H142595   1.526   2.274   5.530 -1.0957  0.6108 -2.2087
 7060TIP3    H242596   1.656   2.325   5.588 -2.8653  1.6730  1.0904
 7061TIP3   OH242597   5.009   2.116  12.598  0.2070  0.1271  0.1928
 7061TIP3    H142598   5.032   2.085  12.510  0.3242  0.6333  0.0414
 7061TIP3    H242599   4.943   2.183  12.582 -0.8041 -0.7521  0.5755
 7062TIP3   OH242600   2.540   2.329   5.432  0.0272 -0.1167 -0.0212
 7062TIP3    H142601   2.556   2.251   5.380  1.6781  0.6813 -0.8017
 7062TIP3    H242602   2.563   2.304   5.521 -0.8064 -0.9062 -0.0219
 7063TIP3   OH242603   0.497   6.175  16.672  0.0674  0.0989  0.1954
 7063TIP3    H142604   0.537   6.210  16.592 -0.6167  1.2076  0.3206
 7063TIP3    H242605   0.433   6.111  16.640 -1.0971  1.4288 -0.2508
 7064TIP3   OH242606   5.712   2.538  12.216  0.5488  0.2257 -0.4649
 7064TIP3    H142607   5.675   2.571  12.298 -0.9367  1.3729 -1.5445
 7064TIP3    H242608   5.730   2.617  12.165 -1.4162 -0.5004 -2.4271
 7065TIP3   OH242609   1.334   4.399  11.696  0.5281 -0.3905  0.9981
 7065TIP3    H142610   1.425   4.376  11.674  0.7254  0.4144  0.9235
 7065TIP3    H242611   1.318   4.479  11.647 -0.6100 -1.1318  0.1318
 7066TIP3   OH242612   4.746   3.069   0.080 -0.1849  0.2176  0.2534
 7066TIP3    H142613   4.709   3.144   0.033  0.4644  1.7916  2.1335
 7066TIP3    H242614   4.831   3.099   0.111  0.4972 -1.6285  0.3069
 7067TIP3   OH242615   0.645   2.403   5.339  0.0764 -0.2122 -0.1617
 7067TIP3    H142616   0.579   2.400   5.408  0.6103  1.1940  0.4487
 7067TIP3    H242617   0.727   2.382   5.384  0.1794 -1.1276 -0.7536
 7068TIP3   OH242618   5.026   4.782  16.012 -0.1101 -0.6945  0.1992
 7068TIP3    H142619   5.099   4.760  15.955 -0.2621  1.2133 -0.8196
 7068TIP3    H242620   4.958   4.718  15.990  0.5977 -1.3309 -0.1631
 7069TIP3   OH242621   4.834   4.016   3.849 -0.6421 -0.1214 -0.3030
 7069TIP3    H142622   4.896   4.005   3.922 -0.3088  0.9954 -0.3951
 7069TIP3    H242623   4.841   3.935   3.799  0.9935  0.0955 -0.4781
 7070TIP3   OH242624   0.462   5.519   5.202 -0.0636  0.1652  0.2403
 7070TIP3    H142625   0.386   5.570   5.232 -0.1125  0.0489  0.3123
 7070TIP3    H242626   0.489   5.562   5.121 -0.4965 -0.0815 -0.0353
 7071TIP3   OH242627   3.900   0.419   4.538 -0.4917  0.7638  0.5911
 7071TIP3    H142628   3.939   0.363   4.605  0.0822 -0.2227 -0.5345
 7071TIP3    H242629   3.912   0.508   4.572  2.8369  0.5488  0.3151
 7072TIP3   OH242630   0.402   2.330   2.117  0.3492 -0.2434  0.8436
 7072TIP3    H142631   0.338   2.292   2.177  0.7122 -3.6686 -0.7306
 7072TIP3    H242632   0.349   2.365   2.045  0.1177 -0.3368  0.9663
 7073TIP3   OH242633   4.925   1.366  12.048 -0.4791 -0.5490 -0.3365
 7073TIP3    H142634   4.833   1.392  12.048 -0.4520 -0.4022  0.8863
 7073TIP3    H242635   4.973   1.446  12.067 -0.3182 -1.1572  2.1487
 7074TIP3   OH242636   0.276   5.392   3.405  0.1284  0.1104  0.0343
 7074TIP3    H142637   0.245   5.310   3.369 -0.8612 -0.6617  2.4681
 7074TIP3    H242638   0.208   5.456   3.384  0.7804  0.3102 -1.6314
 7075TIP3   OH242639   4.763   5.078   4.007  0.1883 -0.3844  0.5154
 7075TIP3    H142640   4.734   5.083   3.916  0.1663 -1.0706  0.4797
 7075TIP3    H242641   4.854   5.049   4.001 -0.4658 -2.6874  0.7659
 7076TIP3   OH242642   3.854   1.484  13.063 -0.0047 -0.2981  0.4473
 7076TIP3    H142643   3.776   1.435  13.088  0.7396 -2.3402 -0.9755
 7076TIP3    H242644   3.927   1.426  13.088  0.9318  0.2610 -0.8942
 7077TIP3   OH242645   3.068   6.237   2.831  0.1607  0.5118  0.0552
 7077TIP3    H142646   3.072   6.231   2.736 -1.1534 -1.8413  0.0693
 7077TIP3    H242647   3.159   6.252   2.858  0.9088 -0.9303 -1.4830
 7078TIP3   OH242648   1.396   2.492  10.870 -0.4871  0.4138 -0.0991
 7078TIP3    H142649   1.342   2.551  10.923 -0.2602  0.7097 -0.1895
 7078TIP3    H242650   1.372   2.404  10.899 -1.7593  0.4830 -0.8276
 7079TIP3   OH242651   3.860   4.116   1.641  0.1694 -0.7141  0.5592
 7079TIP3    H142652   3.868   4.210   1.659  1.7808 -0.2810 -1.9124
 7079TIP3    H242653   3.772   4.106   1.607 -0.6113 -0.4572  2.3551
 7080TIP3   OH242654   6.660   0.420   2.723  0.3554 -0.5944  0.4934
 7080TIP3    H142655   6.598   0.437   2.794 -3.0058  0.7388 -2.4370
 7080TIP3    H242656   6.654   0.326   2.708 -1.6495 -0.4181 -0.1620
 7081TIP3   OH242657   6.070   4.007  13.293  0.0584  0.3625 -0.7250
 7081TIP3    H142658   6.158   4.029  13.261 -0.5262  1.7420 -1.5358
 7081TIP3    H242659   6.083   3.971  13.380  1.4168  0.7914 -0.7341
 7082TIP3   OH242660   4.936   6.685   3.647 -0.5022 -0.0114  0.2293
 7082TIP3    H142661   4.867   6.623   3.622 -1.4262  1.0672 -0.0116
 7082TIP3    H242662   4.902   6.729   3.724 -0.1713  0.6652  0.0010
 7083TIP3   OH242663   0.426   0.541  16.397  0.2541  1.0753  0.0996
 7083TIP3    H142664   0.337   0.575  16.388  0.1763  1.0711  0.7677
 7083TIP3    H242665   0.470   0.566  16.316 -0.8518 -0.4735 -1.0435
 7084TIP3   OH242666   4.145   1.329  14.174 -0.6180  0.4808 -0.0974
 7084TIP3    H142667   4.121   1.320  14.267  1.3177 -0.0339  0.4034
 7084TIP3    H242668   4.157   1.238  14.145 -0.6130  0.6729 -0.6913
 7085TIP3   OH242669   4.754   0.235  11.635 -0.3409  0.1086 -0.6405
 7085TIP3    H142670   4.800   0.298  11.581 -1.2787 -0.6881 -2.4308
 7085TIP3    H242671   4.820   0.169  11.657 -0.1934 -0.1221 -1.7415
 7086TIP3   OH242672   5.092   3.566   2.722  0.2185 -0.0954  0.5408
 7086TIP3    H142673   5.059   3.549   2.634 -0.5955  2.1624  0.3362
 7086TIP3    H242674   5.172   3.617   2.709  0.2097  0.0721  1.0958
 7087TIP3   OH242675   5.411   1.425  16.830  0.1923  0.3628  0.0352
 7087TIP3    H142676   5.328   1.407  16.786  0.5832 -0.3071 -0.4449
 7087TIP3    H242677   5.452   1.494  16.777  0.9868 -0.9359 -1.1169
 7088TIP3   OH242678   0.418   1.123   5.437  0.2487  0.5430  0.1913
 7088TIP3    H142679   0.425   1.178   5.359  1.4982  0.1832  0.0270
 7088TIP3    H242680   0.371   1.045   5.408 -1.9715  1.6646  0.5362
 7089TIP3   OH242681   5.603   4.854   2.211 -0.2857  0.0343  0.2511
 7089TIP3    H142682   5.693   4.833   2.187 -0.7970 -0.3617 -1.4306
 7089TIP3    H242683   5.550   4.826   2.136 -1.6463  1.7597  0.4907
 7090TIP3   OH242684   4.657   2.392   0.788  0.6562 -0.1805 -0.0712
 7090TIP3    H142685   4.636   2.480   0.759  1.3257 -0.4659 -1.5087
 7090TIP3    H242686   4.597   2.375   0.860 -0.0464  1.1333 -0.3264
 7091TIP3   OH242687   1.791   0.173   6.150 -0.6807 -0.3452 -0.2538
 7091TIP3    H142688   1.836   0.257   6.146 -1.5488  0.1737  0.5769
 7091TIP3    H242689   1.699   0.194   6.134 -0.9196 -1.1247  0.0474
 7092TIP3   OH242690   2.033   3.916   3.404  0.5233  0.0271  0.0090
 7092TIP3    H142691   1.961   3.970   3.436 -0.4458  0.2358 -2.3160
 7092TIP3    H242692   2.027   3.923   3.308  1.4307 -2.7840 -0.3446
 7093TIP3   OH242693   3.189   3.293   3.738 -0.0352 -0.3969  0.2012
 7093TIP3    H142694   3.268   3.240   3.750  0.8055  0.9090  0.6250
 7093TIP3    H242695   3.222   3.378   3.710 -1.4437 -0.6042 -2.4160
 7094TIP3   OH242696   5.295   1.731   1.150 -0.1403  0.4579 -0.2610
 7094TIP3    H142697   5.215   1.718   1.098  0.8421 -1.3577 -1.4265
 7094TIP3    H242698   5.303   1.650   1.201  0.0848  1.3214  1.1264
 7095TIP3   OH242699   1.301   5.601   3.152  0.5675  0.0570 -0.3435
 7095TIP3    H142700   1.214   5.567   3.176  0.3486  0.2720 -0.8109
 7095TIP3    H242701   1.343   5.528   3.107  1.7646 -1.0592  2.3866
 7096TIP3   OH242702   3.703   4.745  11.999 -0.1948  0.4448 -0.4357
 7096TIP3    H142703   3.653   4.785  12.071 -0.1878  1.0269 -0.7483
 7096TIP3    H242704   3.777   4.704  12.043 -1.3586 -1.1609  0.1288
 7097TIP3   OH242705   6.087   4.407   1.382  1.0456 -1.1254  0.0975
 7097TIP3    H142706   6.033   4.382   1.457  0.7983 -1.1140 -0.0746
 7097TIP3    H242707   6.155   4.464   1.419  1.5958 -2.0060  0.4885
 7098TIP3   OH242708   6.688   3.127   3.955  0.0450  0.5843 -0.3448
 7098TIP3    H142709   6.639   3.187   3.900  0.8354 -0.2692 -2.0449
 7098TIP3    H242710   6.640   3.125   4.038 -1.0229  2.0978 -0.9005
 7099TIP3   OH242711   0.704   1.511  11.953 -0.0798 -0.2827 -0.6276
 7099TIP3    H142712   0.695   1.471  12.040 -1.7374  0.2392 -0.5135
 7099TIP3    H242713   0.742   1.442  11.898  0.3784 -0.8314  0.3507
 7100TIP3   OH242714   4.861   5.413  15.076 -0.2678 -0.0707 -0.3667
 7100TIP3    H142715   4.924   5.385  15.010  1.7660  0.9191  1.0457
 7100TIP3    H242716   4.814   5.486  15.035  0.2197 -0.1518 -1.0906
 7101TIP3   OH242717   3.857   5.459  16.893  0.1321  0.5006 -0.2385
 7101TIP3    H142718   3.924   5.500  16.948  1.1489 -0.7783 -0.4837
 7101TIP3    H242719   3.774   5.482  16.935  0.8794 -0.6635  1.9963
 7102TIP3   OH242720   4.460   4.303  13.401 -0.3714 -0.0659 -0.0831
 7102TIP3    H142721   4.501   4.278  13.484 -0.9209  0.1981  0.2751
 7102TIP3    H242722   4.369   4.273  13.409  0.6690 -4.7878 -2.6354
 7103TIP3   OH242723   0.394   2.562  13.604  0.7163  0.0791 -0.3133
 7103TIP3    H142724   0.415   2.653  13.585  0.5597  0.3479  0.7819
 7103TIP3    H242725   0.414   2.551  13.697 -1.4948 -0.3626  0.1572
 7104TIP3   OH242726   2.613   1.824  13.652 -0.1533  0.1159  0.2545
 7104TIP3    H142727   2.650   1.807  13.739  2.0881 -1.5514 -0.9243
 7104TIP3    H242728   2.690   1.830  13.595 -1.6113  0.2023 -1.7794
 7105TIP3   OH242729   6.018   0.104  14.400  0.5765  0.3165  0.0046
 7105TIP3    H142730   6.096   0.052  14.380  1.7390  1.5937  0.9916
 7105TIP3    H242731   5.989   0.073  14.486  0.0296 -0.0937 -0.3205
 7106TIP3   OH242732   1.181   5.067  10.982 -0.2046 -0.1744 -0.6435
 7106TIP3    H142733   1.245   5.041  10.916  2.8607 -0.6093  2.2466
 7106TIP3    H242734   1.179   5.162  10.977  0.5296 -0.1646 -0.9128
 7107TIP3   OH242735   4.568   5.712  15.194  0.0893  0.0954 -0.6462
 7107TIP3    H142736   4.597   5.797  15.228  0.4435  0.2464 -1.3033
 7107TIP3    H242737   4.609   5.648  15.251 -0.3873  0.3644  0.0142
 7108TIP3   OH242738   3.618   1.721   4.507  0.8854 -0.6351  0.1728
 7108TIP3    H142739   3.685   1.788   4.492  0.4915  0.0938  1.5019
 7108TIP3    H242740   3.607   1.679   4.422  1.3823  0.7657 -0.6140
 7109TIP3   OH242741   5.622   2.517   3.969 -0.2496  0.0338 -0.2201
 7109TIP3    H142742   5.675   2.596   3.972  0.6059 -0.5444  0.5381
 7109TIP3    H242743   5.533   2.547   3.986 -0.1794  1.0064 -1.4188
 7110TIP3   OH242744   0.891   5.411  12.029  0.0055 -0.8976 -0.2399
 7110TIP3    H142745   0.816   5.382  12.081  0.5654 -1.4047  0.3019
 7110TIP3    H242746   0.967   5.386  12.081  0.6025 -1.7876 -1.4713
 7111TIP3   OH242747   5.760   1.897  13.420 -0.2516  0.1233  0.0012
 7111TIP3    H142748   5.725   1.910  13.332  0.2665 -0.0824 -0.2404
 7111TIP3    H242749   5.752   1.802  13.434  2.3763 -0.3462 -1.0199
 7112TIP3   OH242750   3.867   3.433  13.097  0.2535 -0.6525 -0.1984
 7112TIP3    H142751   3.953   3.445  13.058 -0.2458  0.1658 -1.0577
 7112TIP3    H242752   3.835   3.521  13.115 -0.1845 -0.9620  0.6426
 7113TIP3   OH242753   3.857   3.966  16.071 -0.2398 -0.3903  1.2334
 7113TIP3    H142754   3.874   3.991  16.162 -1.2746 -2.3133  2.0107
 7113TIP3    H242755   3.937   3.990  16.025 -0.3651  2.3466  2.2316
 7114TIP3   OH242756   1.699   2.642  13.813 -1.0668  0.2811  0.1523
 7114TIP3    H142757   1.645   2.605  13.743 -2.6862  1.3153  0.7936
 7114TIP3    H242758   1.737   2.566  13.857 -0.3859 -0.4102 -1.4973
 7115TIP3   OH242759   1.783   2.319   3.088  0.3571  0.3338 -0.1486
 7115TIP3    H142760   1.708   2.261   3.102 -0.0069  0.0607 -2.7524
 7115TIP3    H242761   1.797   2.360   3.173  0.0938 -2.8899  1.6315
 7116TIP3   OH242762   1.185   0.852  13.222  0.4589  0.2697  0.1476
 7116TIP3    H142763   1.102   0.809  13.204 -0.0317  0.9890  0.6246
 7116TIP3    H242764   1.169   0.902  13.302  1.1459  0.9442 -0.1273
 7117TIP3   OH242765   2.284   3.791  17.163 -0.4499 -0.2862 -0.4114
 7117TIP3    H142766   2.252   3.749  17.244  1.1541  0.6575  0.7694
 7117TIP3    H242767   2.355   3.734  17.133 -0.5278 -0.2172 -0.7266
 7118TIP3   OH242768   0.349   4.070   4.179  0.5401 -0.0938  0.1696
 7118TIP3    H142769   0.368   4.130   4.106 -0.7897 -0.5763 -0.6086
 7118TIP3    H242770   0.425   4.012   4.183  1.0790  0.5790 -0.1666
 7119TIP3   OH242771   3.353   5.066   1.441 -0.0910  0.0408  0.4702
 7119TIP3    H142772   3.262   5.088   1.457 -0.4328  1.2777 -2.4478
 7119TIP3    H242773   3.403   5.124   1.498 -1.1351  1.1061  0.3367
 7120TIP3   OH242774   6.501   5.375  16.010 -0.6618 -0.0570 -0.2154
 7120TIP3    H142775   6.431   5.425  15.966  0.4090  0.2217 -1.6763
 7120TIP3    H242776   6.524   5.307  15.947  0.6915  0.1384  0.0505
 7121TIP3   OH242777   2.484   5.257  13.067  0.4149 -0.4815  0.2035
 7121TIP3    H142778   2.549   5.192  13.040  2.0329  1.7348 -1.6806
 7121TIP3    H242779   2.537   5.331  13.098 -1.1458  1.4619 -1.5214
 7122TIP3   OH242780   4.660   0.774  13.064  0.5128  0.1560 -0.4837
 7122TIP3    H142781   4.601   0.831  13.015  0.9560 -0.3858 -1.6936
 7122TIP3    H242782   4.612   0.751  13.144 -0.0660  1.3859 -0.4571
 7123TIP3   OH242783   2.133   5.869   3.446  0.8609  0.3686  0.0639
 7123TIP3    H142784   2.211   5.891   3.497  0.8405  0.8075 -0.0922
 7123TIP3    H242785   2.062   5.920   3.486  0.5113 -0.5141  0.6164
 7124TIP3   OH242786   3.127   4.149   0.154 -0.4482  0.4471  0.2175
 7124TIP3    H142787   3.210   4.102   0.145 -0.3445  0.6211  0.2670
 7124TIP3    H242788   3.088   4.115   0.234 -0.0285  0.9792  0.6524
 7125TIP3   OH242789   5.074   5.390   5.166  0.3844  0.2599 -0.6611
 7125TIP3    H142790   4.998   5.353   5.211  0.9291 -0.3103 -0.1882
 7125TIP3    H242791   5.055   5.483   5.158  0.9553  0.7254  2.2505
 7126TIP3   OH242792   4.184   5.513   0.012  0.4189  0.3123  0.0309
 7126TIP3    H142793   4.196   5.469   0.096 -0.8787  0.3632  0.2647
 7126TIP3    H242794   4.251   5.582   0.011  0.6626  0.0932  0.8712
 7127TIP3   OH242795   0.462   0.606   4.746  0.1986 -0.6972  0.0630
 7127TIP3    H142796   0.507   0.689   4.762 -1.4850  0.1904  0.5552
 7127TIP3    H242797   0.523   0.555   4.694  0.0366  2.1547 -3.2931
 7128TIP3   OH242798   2.671   6.675   1.349 -0.1328  0.4179  0.2996
 7128TIP3    H142799   2.674   6.767   1.322  2.0484  0.2582 -0.2322
 7128TIP3    H242800   2.627   6.630   1.277 -1.0624  1.0017  0.4877
 7129TIP3   OH242801   1.325   4.091   0.255  0.8677  0.5234 -0.0408
 7129TIP3    H142802   1.296   4.058   0.169 -2.2431  2.1555  0.2584
 7129TIP3    H242803   1.392   4.156   0.234  1.2903 -0.2312 -1.1138
 7130TIP3   OH242804   4.068   0.890   3.060  0.1348  0.3646  0.1274
 7130TIP3    H142805   4.155   0.859   3.036  0.0232 -0.3076  0.5776
 7130TIP3    H242806   4.008   0.835   3.010 -0.0481  0.2361  0.4832
 7131TIP3   OH242807   0.298   3.978   6.130  0.1764  0.0920 -0.6329
 7131TIP3    H142808   0.382   4.022   6.116  1.5815 -2.0375  0.4618
 7131TIP3    H242809   0.275   3.997   6.221 -1.9584  2.7753 -1.6023
 7132TIP3   OH242810   0.909   6.116   5.970 -0.1892  0.3895  0.2695
 7132TIP3    H142811   0.990   6.093   6.016  1.6118  0.9702 -2.4202
 7132TIP3    H242812   0.846   6.049   5.998  1.3370 -0.4101  2.0039
 7133TIP3   OH242813   2.790   5.419   3.723 -0.0943 -0.2209  0.6611
 7133TIP3    H142814   2.829   5.380   3.645  1.1046  2.0960  0.0082
 7133TIP3    H242815   2.731   5.351   3.757  0.3536 -1.7825 -1.4738
 7134TIP3   OH242816   3.954   4.181   4.944  0.1989 -0.1775  0.4667
 7134TIP3    H142817   3.870   4.175   4.898  0.5772 -2.1588 -0.0512
 7134TIP3    H242818   4.001   4.251   4.898  0.3497 -1.7216 -1.9117
 7135TIP3   OH242819   1.891   1.270  14.329 -0.2909  0.3723  0.3802
 7135TIP3    H142820   1.878   1.190  14.379 -0.5613  1.4384  2.0672
 7135TIP3    H242821   1.804   1.290  14.294 -0.3650  0.2917  0.5166
 7136TIP3   OH242822   1.438   6.367  16.526  0.3181 -0.1959  0.1558
 7136TIP3    H142823   1.460   6.282  16.562 -1.1596 -0.4154  0.6188
 7136TIP3    H242824   1.391   6.348  16.445 -2.4569 -0.0150  1.5826
 7137TIP3   OH242825   2.541   3.614  13.705 -0.0971  0.2699 -0.1174
 7137TIP3    H142826   2.595   3.549  13.659  1.0026  0.2754  1.0854
 7137TIP3    H242827   2.595   3.693  13.705 -0.2276  0.3739  0.8182
 7138TIP3   OH242828   2.289   3.648  13.559  0.8244 -0.3842 -0.7690
 7138TIP3    H142829   2.270   3.742  13.564 -0.9331 -0.7532  0.6577
 7138TIP3    H242830   2.355   3.633  13.627  0.8854 -0.2220 -0.7930
 7139TIP3   OH242831   2.476   2.574  11.770 -0.5114  0.0284 -0.0337
 7139TIP3    H142832   2.538   2.503  11.756 -1.1764 -0.3207 -1.4493
 7139TIP3    H242833   2.406   2.535  11.823 -0.3331 -0.0525  0.1422
 7140TIP3   OH242834   3.381   2.571   4.226 -0.0941  0.4089 -0.3927
 7140TIP3    H142835   3.358   2.638   4.289 -1.1424 -0.2050 -0.0972
 7140TIP3    H242836   3.298   2.528   4.205  0.4038 -0.1390 -1.3327
 7141TIP3   OH242837   1.477   3.255   1.504  0.5934 -0.1836  0.3582
 7141TIP3    H142838   1.500   3.163   1.520 -0.4510 -0.5144  0.1040
 7141TIP3    H242839   1.389   3.264   1.542 -0.9724 -0.3525 -2.8798
 7142TIP3   OH242840   5.559   2.412  11.197 -0.7354  0.1354 -0.2362
 7142TIP3    H142841   5.507   2.489  11.174  1.8403  1.5656 -1.7749
 7142TIP3    H242842   5.568   2.364  11.115  0.0279 -0.2879  0.0857
 7143TIP3   OH242843   0.127   2.878   3.244 -0.0740  0.1360 -0.4525
 7143TIP3    H142844   0.051   2.898   3.189 -0.3001  0.1945 -0.1261
 7143TIP3    H242845   0.197   2.856   3.182 -0.5349 -0.5460 -0.7523
 7144TIP3   OH242846   3.232   1.365   1.991  0.0219  0.5357 -0.0353
 7144TIP3    H142847   3.276   1.435   2.040  0.6405 -0.5711  1.0601
 7144TIP3    H242848   3.301   1.328   1.936  0.5312 -1.1467  1.6200
 7145TIP3   OH242849   6.615   1.313  16.951  0.2274 -0.4424  0.2442
 7145TIP3    H142850   6.633   1.221  16.931 -0.6486 -0.4892 -0.3603
 7145TIP3    H242851   6.580   1.312  17.040 -0.3831 -0.7636  0.0006
 7146TIP3   OH242852   1.189   6.420   0.021  0.7742 -0.1655  0.2989
 7146TIP3    H142853   1.255   6.456  -0.038  2.0479  0.1925  1.8497
 7146TIP3    H242854   1.206   6.464   0.104 -0.3544 -1.3059  1.1636
 7147TIP3   OH242855   1.538   5.700   2.043  0.3988  0.0919  0.5072
 7147TIP3    H142856   1.618   5.744   2.012 -0.1356  0.0665 -0.9876
 7147TIP3    H242857   1.473   5.718   1.975 -0.6997 -0.4305  1.3876
 7148TIP3   OH242858   5.143   2.731  15.472 -0.5231  0.0518  0.6207
 7148TIP3    H142859   5.175   2.771  15.552 -0.6871 -0.2808  0.8578
 7148TIP3    H242860   5.222   2.702  15.426 -0.4649 -2.5991  2.1548
 7149TIP3   OH242861   6.288   2.062   4.026 -0.6631  0.1364  0.1445
 7149TIP3    H142862   6.328   2.076   3.941 -0.8481 -0.2833 -0.0147
 7149TIP3    H242863   6.281   2.149   4.065  0.5130  0.2060  0.2263
 7150TIP3   OH242864   3.533   0.045   2.050 -0.1619  0.4507 -0.4343
 7150TIP3    H142865   3.492   0.007   2.128 -0.3244  2.3551  0.4625
 7150TIP3    H242866   3.462   0.047   1.985 -0.9022  1.6166  0.3698
 7151TIP3   OH242867   3.525   4.623  13.769 -0.1364 -1.2407  0.3202
 7151TIP3    H142868   3.619   4.616  13.785  0.4533  1.8228 -1.1399
 7151TIP3    H242869   3.495   4.692  13.827 -1.6247 -2.3728  0.9838
 7152TIP3   OH242870   5.839   3.248   1.435 -0.3024  1.0231  0.5452
 7152TIP3    H142871   5.917   3.242   1.491 -1.2408  2.0257  2.0305
 7152TIP3    H242872   5.873   3.238   1.346  1.6283  2.1731  1.0880
 7153TIP3   OH242873   2.864   2.607  11.913  0.2724 -0.2782  0.1176
 7153TIP3    H142874   2.883   2.588  12.005 -0.1150 -0.7694  0.0954
 7153TIP3    H242875   2.908   2.538  11.864 -0.9244 -1.0055  0.0291
 7154TIP3   OH242876   6.186   2.595  11.549  0.0983  0.6674 -0.1042
 7154TIP3    H142877   6.214   2.509  11.517  0.2300  0.2568  1.0570
 7154TIP3    H242878   6.238   2.609  11.628 -0.4353  1.5055  0.1119
 7155TIP3   OH242879   6.462   3.130   4.126  0.0137 -0.0185 -0.4873
 7155TIP3    H142880   6.430   3.201   4.182  1.8037  1.1054 -0.7954
 7155TIP3    H242881   6.428   3.051   4.166 -0.1569  0.8664  1.2152
 7156TIP3   OH242882   3.349   1.273   3.332 -0.0156 -0.1311  0.0924
 7156TIP3    H142883   3.397   1.356   3.339 -0.1221 -0.1731  2.2390
 7156TIP3    H242884   3.415   1.206   3.348 -0.2803 -0.3421  0.3107
 7157TIP3   OH242885   4.021   4.048   4.547  0.4801 -0.4842 -0.3725
 7157TIP3    H142886   4.103   4.014   4.583 -0.3058 -0.7737  1.2721
 7157TIP3    H242887   4.028   4.143   4.559 -0.3929 -0.6575  2.1487
 7158TIP3   OH242888   2.693   3.631   3.304 -0.2348  0.0932  0.5148
 7158TIP3    H142889   2.623   3.573   3.274 -0.1851  0.9524 -1.4268
 7158TIP3    H242890   2.722   3.677   3.224  0.4040  2.0365  1.7988
 7159TIP3   OH242891   3.590   2.554  16.390  0.2401 -0.0151 -0.0734
 7159TIP3    H142892   3.681   2.533  16.408 -0.1537 -2.7996 -0.7064
 7159TIP3    H242893   3.549   2.468  16.374 -2.5747  1.0791  0.5895
 7160TIP3   OH242894   3.848   2.810   2.479 -0.1804 -0.0784 -0.0954
 7160TIP3    H142895   3.797   2.872   2.530 -2.4184 -1.2541 -0.8043
 7160TIP3    H242896   3.796   2.730   2.478  0.8632 -0.8258 -2.2804
 7161TIP3   OH242897   4.849   0.448   1.334 -0.1967 -0.2401  0.5774
 7161TIP3    H142898   4.878   0.363   1.368 -0.7022 -1.3934 -1.6810
 7161TIP3    H242899   4.902   0.462   1.256 -1.6554  0.4082 -0.3414
 7162TIP3   OH242900   1.903   2.775  11.733 -0.5833 -0.0208  0.3053
 7162TIP3    H142901   1.970   2.751  11.669 -1.4168  1.3745 -1.1562
 7162TIP3    H242902   1.820   2.753  11.691 -1.1863  1.7036  0.5245
 7163TIP3   OH242903   0.474   5.798  15.689  0.0113  0.1404 -0.2113
 7163TIP3    H142904   0.499   5.848  15.612  2.4555  0.9852  1.0303
 7163TIP3    H242905   0.397   5.842  15.723  0.9971  1.9542 -0.2281
 7164TIP3   OH242906   2.677   4.814   1.305  0.4939 -0.2561  0.2966
 7164TIP3    H142907   2.688   4.880   1.374 -1.1900  1.2714 -0.8306
 7164TIP3    H242908   2.667   4.864   1.224  1.3940 -1.9806 -0.9493
 7165TIP3   OH242909   1.512   6.123   3.290  0.0405  0.3834 -0.4963
 7165TIP3    H142910   1.443   6.173   3.332  0.4920 -0.2376  1.0436
 7165TIP3    H242911   1.468   6.074   3.220 -0.8975  0.7337 -0.1573
 7166TIP3   OH242912   5.166   6.692  15.204  0.0254  0.4739 -0.1516
 7166TIP3    H142913   5.159   6.752  15.130 -2.1489 -1.0120 -1.2572
 7166TIP3    H242914   5.119   6.735  15.275 -0.5449  0.5981 -0.5978
 7167TIP3   OH242915   1.218   0.988   0.844 -0.1498  0.0397  0.3064
 7167TIP3    H142916   1.299   0.975   0.795 -0.9839 -0.0738 -1.1014
 7167TIP3    H242917   1.185   1.072   0.812 -0.4638  0.2147  1.0705
 7168TIP3   OH242918   4.178   0.995   2.520  0.6394 -0.2763  0.1134
 7168TIP3    H142919   4.232   1.046   2.459  0.2427  2.9360  2.1995
 7168TIP3    H242920   4.091   0.995   2.480  0.1438  2.6519  0.9191
 7169TIP3   OH242921   0.696   1.655  12.419  0.5498  0.2032 -0.2572
 7169TIP3    H142922   0.648   1.695  12.492  0.7016 -0.6601  0.3338
 7169TIP3    H242923   0.630   1.603  12.374  0.4935  0.6075 -0.6516
 7170TIP3   OH242924   3.155   0.174   0.919  0.3448  0.4866 -0.0341
 7170TIP3    H142925   3.165   0.125   0.837  0.6229  0.5624 -0.0469
 7170TIP3    H242926   3.219   0.245   0.912  0.7002  0.2175  0.4548
 7171TIP3   OH242927   3.991   5.475  11.831 -0.1836  0.0269  0.4483
 7171TIP3    H142928   3.940   5.502  11.907 -0.9551 -2.1939  0.8176
 7171TIP3    H242929   3.929   5.424  11.777  0.8935 -0.2569 -0.5740
 7172TIP3   OH242930   3.828   6.435   4.261 -0.0431  0.0038  0.3914
 7172TIP3    H142931   3.840   6.445   4.166 -1.5924 -0.8700  0.0608
 7172TIP3    H242932   3.739   6.399   4.270 -0.4177  1.2259  2.2421
 7173TIP3   OH242933   1.250   4.546   0.331  0.1123 -0.6829 -0.0948
 7173TIP3    H142934   1.240   4.457   0.363 -0.3287 -0.9373 -0.8950
 7173TIP3    H242935   1.163   4.585   0.342  0.2136 -0.4634 -0.0641
 7174TIP3   OH242936   6.638   2.386  15.263  0.4370  0.2595 -0.7781
 7174TIP3    H142937   6.688   2.462  15.293 -0.8064  0.2839  1.5071
 7174TIP3    H242938   6.698   2.313  15.273  0.3541  0.3955  1.2283
 7175TIP3   OH242939   2.094   5.182  13.401 -0.1680 -0.1401 -0.1002
 7175TIP3    H142940   2.171   5.238  13.392 -0.7643  0.9812  1.4646
 7175TIP3    H242941   2.089   5.136  13.317  3.0126 -1.3471  0.2200
 7176TIP3   OH242942   3.250   3.030   4.455  0.1486 -0.4542 -0.2019
 7176TIP3    H142943   3.278   3.116   4.486  1.6565 -0.8208 -0.4153
 7176TIP3    H242944   3.155   3.034   4.453  0.0513  0.3880  2.1940
 7177TIP3   OH242945   5.544   0.379  12.275 -0.3888 -0.3428  0.3217
 7177TIP3    H142946   5.616   0.334  12.318  1.3813  1.2807 -0.7691
 7177TIP3    H242947   5.484   0.402  12.346  2.2625  1.9661  2.0441
 7178TIP3   OH242948   5.239   2.404   0.678 -0.2253 -0.2105 -0.0103
 7178TIP3    H142949   5.177   2.334   0.659 -0.5860  0.2584 -0.6056
 7178TIP3    H242950   5.226   2.467   0.606 -0.1857  0.6441  0.7174
 7179TIP3   OH242951   4.235   0.742  17.040  0.1000 -0.1576 -0.0752
 7179TIP3    H142952   4.322   0.739  16.999  1.5954  1.0488  2.7291
 7179TIP3    H242953   4.193   0.818  17.001  1.3546  0.7890  0.3297
 7180TIP3   OH242954   2.642   4.789  10.989 -0.6209  0.7464  0.3541
 7180TIP3    H142955   2.645   4.758  10.898 -0.9926  2.0971 -0.1551
 7180TIP3    H242956   2.729   4.825  11.005 -0.3723 -0.0155  0.7410
 7181TIP3   OH242957   5.385   0.527   3.485 -0.0779 -0.4905  0.1834
 7181TIP3    H142958   5.445   0.579   3.430  1.5849 -1.6283  0.8440
 7181TIP3    H242959   5.432   0.516   3.568 -1.6939 -0.5095  1.1475
 7182TIP3   OH242960   5.575   2.096   2.954  0.1969  0.1441 -0.3267
 7182TIP3    H142961   5.587   2.183   2.917  0.4933  0.6484  0.9169
 7182TIP3    H242962   5.655   2.049   2.931  0.0353  0.1845 -0.9985
 7183TIP3   OH242963   0.181   3.127   5.996 -0.1168  0.0702 -0.4931
 7183TIP3    H142964   0.242   3.137   6.069 -0.2138 -0.4435 -0.3381
 7183TIP3    H242965   0.124   3.055   6.022 -0.3978  0.1408 -0.9074
 7184TIP3   OH242966   2.841   0.419  14.336 -0.0409 -0.0264  0.0725
 7184TIP3    H142967   2.803   0.425  14.248  0.9266 -0.6529 -0.3964
 7184TIP3    H242968   2.899   0.496  14.342  1.1222 -0.8330 -0.4579
 7185TIP3   OH242969   6.535   5.139   0.704  0.2156 -0.2080 -0.2932
 7185TIP3    H142970   6.472   5.167   0.770 -0.1519 -0.9168 -0.3246
 7185TIP3    H242971   6.500   5.172   0.621  0.6416  0.6223 -0.1517
 7186TIP3   OH242972   6.650   3.344   2.642 -0.1209  0.2400 -0.3740
 7186TIP3    H142973   6.712   3.302   2.582  0.8363  0.8454  0.1706
 7186TIP3    H242974   6.578   3.281   2.650  0.2613 -0.3340 -1.2699
 7187TIP3   OH242975   4.995   6.160  13.223 -0.4263  0.0424 -0.2944
 7187TIP3    H142976   5.056   6.086  13.213 -0.8261 -0.3225 -0.0891
 7187TIP3    H242977   4.977   6.163  13.317  0.0038  0.7479 -0.2321
 7188TIP3   OH242978   4.388   6.763  16.584  0.4955  0.0123  0.1314
 7188TIP3    H142979   4.438   6.806  16.515 -0.4053  1.1141  0.1500
 7188TIP3    H242980   4.444   6.690  16.612  1.3458  0.2123 -0.9928
 7189TIP3   OH242981   5.681   3.760   5.394 -0.5784  0.1728  0.0384
 7189TIP3    H142982   5.639   3.836   5.435  0.9233 -0.4187  3.0163
 7189TIP3    H242983   5.636   3.685   5.432  1.2335 -0.4174  1.1785
 7190TIP3   OH242984   0.502   5.959  13.174 -0.0420  0.0968  0.0546
 7190TIP3    H142985   0.462   5.978  13.089  0.1983 -0.7741 -0.2691
 7190TIP3    H242986   0.438   5.904  13.219 -0.3131  0.8362  0.5743
 7191TIP3   OH242987   4.292   3.695  12.878  0.1477  0.0874 -0.1244
 7191TIP3    H142988   4.339   3.689  12.795  0.0442 -0.1247 -0.1676
 7191TIP3    H242989   4.358   3.725  12.940 -0.1737  1.8990 -0.6171
 7192TIP3   OH242990   1.880   2.611   5.110 -0.4854 -0.1802 -0.2087
 7192TIP3    H142991   1.886   2.534   5.167 -1.5582  0.3765  0.6959
 7192TIP3    H242992   1.951   2.600   5.047 -1.0103 -2.2612 -0.5264
 7193TIP3   OH242993   1.265   4.937  15.821  0.2178  0.3870 -0.1832
 7193TIP3    H142994   1.219   4.854  15.828 -1.1801  1.2263  1.3935
 7193TIP3    H242995   1.230   4.977  15.741  1.8086 -1.0034 -1.6446
 7194TIP3   OH242996   4.495   3.168  13.996 -0.4360  0.2809  0.3988
 7194TIP3    H142997   4.457   3.248  13.959  0.3536  0.8340  0.7524
 7194TIP3    H242998   4.560   3.140  13.932 -0.7440 -0.1191  0.2521
 7195TIP3   OH242999   1.434   6.595   2.267  0.1675 -0.1632 -0.0585
 7195TIP3    H143000   1.393   6.510   2.254 -0.1654 -0.2274  1.2608
 7195TIP3    H243001   1.387   6.653   2.207 -0.7331 -0.5775  0.2284
 7196TIP3   OH243002   5.865   3.158  13.284  0.6932  0.1329  0.1963
 7196TIP3    H143003   5.859   3.228  13.219  1.0803  1.8368  1.8998
 7196TIP3    H243004   5.779   3.158  13.327  0.3364 -1.1823 -0.4636
 7197TIP3   OH243005   5.033   1.037   1.378  0.0240 -0.3731 -0.2982
 7197TIP3    H143006   4.958   1.005   1.429  0.0273 -0.6654 -0.4788
 7197TIP3    H243007   5.030   1.132   1.390  0.7564 -0.5150  1.2826
 7198TIP3   OH243008   4.231   5.644  13.022 -0.3106 -0.5511  0.2014
 7198TIP3    H143009   4.260   5.682  12.939 -1.7801 -0.3506 -0.2555
 7198TIP3    H243010   4.310   5.639  13.075  0.6487 -0.6323 -1.1868
 7199TIP3   OH243011   4.486   1.956  16.503 -0.1211 -0.6286 -0.2509
 7199TIP3    H143012   4.470   2.048  16.522  0.1735  0.0738 -2.9593
 7199TIP3    H243013   4.581   1.951  16.487 -0.3839 -0.9938 -1.8554
 7200TIP3   OH243014   0.451   6.710  14.063 -0.8308  0.2860  0.3095
 7200TIP3    H143015   0.390   6.730  13.992 -1.7216  2.2410  1.5264
 7200TIP3    H243016   0.403   6.648  14.119 -0.8955  0.2509  0.2153
 7201TIP3   OH243017   3.947   0.362   1.921  0.1633  0.0984  0.3821
 7201TIP3    H143018   3.886   0.411   1.975  0.2723  0.5874  0.0682
 7201TIP3    H243019   3.978   0.425   1.855  0.0485 -0.4746 -0.2361
 7202TIP3   OH243020   3.850   3.480   2.919  0.2429  0.8789  0.0839
 7202TIP3    H143021   3.843   3.575   2.934  1.6984  1.0533 -0.1782
 7202TIP3    H243022   3.760   3.448   2.929 -0.2722  2.2711  0.2524
 7203TIP3   OH243023   5.398   4.375   1.895  0.2767 -0.3791 -0.5027
 7203TIP3    H143024   5.388   4.456   1.846  0.6858 -1.5681 -2.6693
 7203TIP3    H243025   5.479   4.388   1.946 -0.5000  1.1122  0.4217
 7204TIP3   OH243026   3.559   2.392   3.394 -0.6558 -0.3071  0.1087
 7204TIP3    H143027   3.610   2.454   3.446  0.0570 -0.3778 -0.4975
 7204TIP3    H243028   3.468   2.412   3.417 -0.3870  0.1790  0.7954
 7205TIP3   OH243029   1.862   3.831  14.609  0.4652  0.2441  0.2072
 7205TIP3    H143030   1.896   3.755  14.656  0.5431  0.2840  0.2142
 7205TIP3    H243031   1.848   3.799  14.520  1.5444  0.5214 -0.0764
 7206TIP3   OH243032   6.379   3.330  13.281  0.6113  0.1271  0.2176
 7206TIP3    H143033   6.303   3.277  13.304  0.5213  0.2290  0.1540
 7206TIP3    H243034   6.454   3.279  13.311  0.5650 -0.3595 -0.4764
 7207TIP3   OH243035   1.598   0.418  13.566  0.4898  0.4939  0.0462
 7207TIP3    H143036   1.671   0.471  13.535 -0.0913  0.5065 -1.3389
 7207TIP3    H243037   1.638   0.334  13.588  1.1351  0.9405  0.6394
 7208TIP3   OH243038   1.592   1.097   2.879 -0.2674  0.1449 -0.0687
 7208TIP3    H143039   1.674   1.052   2.860 -0.5347  0.1173 -1.2306
 7208TIP3    H243040   1.527   1.027   2.881 -0.3731  0.2494  0.1439
 7209TIP3   OH243041   6.369   4.781  17.238 -0.3407 -0.6720  0.7869
 7209TIP3    H143042   6.358   4.855  17.178  1.2821 -0.0051  1.2752
 7209TIP3    H243043   6.384   4.821  17.324 -0.1259 -1.5755  1.1832
 7210TIP3   OH243044   5.146   2.580  14.414 -0.0148  0.0233  0.3190
 7210TIP3    H143045   5.229   2.568  14.460  0.2943 -0.2817 -0.3112
 7210TIP3    H243046   5.097   2.640  14.469 -0.1275 -1.2405  1.6615
 7211TIP3   OH243047   2.727   4.128  12.728  0.2892 -0.3210 -0.7230
 7211TIP3    H143048   2.650   4.118  12.673 -0.6744  1.2216  0.2687
 7211TIP3    H243049   2.716   4.065  12.799 -0.3333  0.2241 -0.3221
 7212TIP3   OH243050   4.205   4.275   5.842  0.8438 -0.0841 -0.1795
 7212TIP3    H143051   4.288   4.294   5.886  0.9934 -0.7061 -0.1833
 7212TIP3    H243052   4.146   4.247   5.912  0.8025 -0.1678 -0.2471
 7213TIP3   OH243053   2.945   5.338   2.578 -0.1897 -0.0149  0.2218
 7213TIP3    H143054   2.942   5.244   2.561  0.8545 -0.1026  0.4118
 7213TIP3    H243055   2.979   5.345   2.667 -0.0635  0.5464  0.1357
 7214TIP3   OH243056   4.004   2.674  14.217 -0.3507  0.2575 -0.2646
 7214TIP3    H143057   4.008   2.598  14.158 -0.5938 -0.2946  0.4190
 7214TIP3    H243058   3.965   2.639  14.297  0.6381  0.8434  0.4821
 7215TIP3   OH243059   1.467   2.483  13.653 -0.1760  0.0795  0.4148
 7215TIP3    H143060   1.527   2.410  13.666  0.8301  0.6668 -0.6687
 7215TIP3    H243061   1.382   2.442  13.637  0.6877 -1.0062 -2.0092
 7216TIP3   OH243062   5.958   6.613   5.260  0.2630 -0.9209  0.0296
 7216TIP3    H143063   5.997   6.611   5.173  0.2785  1.8183 -0.1222
 7216TIP3    H243064   5.873   6.655   5.248  1.1191  1.4430  1.5380
 7217TIP3   OH243065   5.329   5.176  15.264 -0.3891 -0.2423  0.2620
 7217TIP3    H143066   5.310   5.102  15.206  0.2941 -2.5076  2.7571
 7217TIP3    H243067   5.245   5.221  15.273 -0.7836 -0.5639 -1.4403
 7218TIP3   OH243068   3.475   6.464   1.444 -0.3747  0.0622  0.7571
 7218TIP3    H143069   3.399   6.428   1.398  0.8595 -1.9533  0.1645
 7218TIP3    H243070   3.489   6.405   1.518  0.4472  0.5795  1.0317
 7219TIP3   OH243071   3.916   5.277  16.683 -0.3253 -0.2341  0.1265
 7219TIP3    H143072   3.938   5.191  16.719  0.2217 -0.0004  0.3696
 7219TIP3    H243073   3.894   5.330  16.760 -0.3370 -0.0643  0.0072
 7220TIP3   OH243074   4.213   3.748  15.428  0.0035  0.0006 -0.1696
 7220TIP3    H143075   4.122   3.777  15.437  0.4890  1.2347  0.9771
 7220TIP3    H243076   4.220   3.673  15.486 -0.0843  0.3937  0.3545
 7221TIP3   OH243077   2.553   3.993   0.917  0.3010  0.1464 -0.3042
 7221TIP3    H143078   2.556   4.029   1.005  0.9876  0.8041 -0.5863
 7221TIP3    H243079   2.473   4.030   0.879  0.2467  0.2258 -0.1150
 7222TIP3   OH243080   0.306   2.577  13.007  0.5450  0.0372  0.3772
 7222TIP3    H143081   0.386   2.600  12.959  0.7891 -0.7879  0.3761
 7222TIP3    H243082   0.246   2.649  12.988  0.4202 -0.5511 -1.6999
 7223TIP3   OH243083   3.005   5.784  14.160 -0.4633  0.4728 -0.9047
 7223TIP3    H143084   3.068   5.714  14.141  0.9475  1.1530  0.9119
 7223TIP3    H243085   2.948   5.787  14.083 -0.4727 -2.5257 -1.1575
 7224TIP3   OH243086   2.844   4.800  13.384 -0.3944  0.0471 -0.0737
 7224TIP3    H143087   2.871   4.776  13.295  2.5800  0.1633  0.7004
 7224TIP3    H243088   2.889   4.883  13.400  0.9871 -1.0763  2.2941
 7225TIP3   OH243089   3.862   4.950   2.676 -0.8427  0.1580  0.0698
 7225TIP3    H143090   3.819   4.869   2.649 -0.8808  0.1917  0.0303
 7225TIP3    H243091   3.942   4.953   2.624 -0.5699 -0.1316  0.4641
 7226TIP3   OH243092   0.485   0.806  14.016  0.4924  0.1660 -0.5410
 7226TIP3    H143093   0.393   0.802  13.991  0.8002 -2.6851 -1.4907
 7226TIP3    H243094   0.485   0.858  14.097 -1.4455  3.2371 -2.2786
 7227TIP3   OH243095   5.242   5.683   4.413 -0.6556 -0.2431  0.5619
 7227TIP3    H143096   5.227   5.626   4.489  1.3823 -2.9141 -0.8286
 7227TIP3    H243097   5.278   5.763   4.450 -1.1348 -0.8642  2.4977
 7228TIP3   OH243098   6.000   2.208  15.699  0.3231  0.2027  0.2850
 7228TIP3    H143099   6.089   2.176  15.717  0.1565 -0.0158  0.7430
 7228TIP3    H243100   5.950   2.130  15.679  0.5386  0.4593 -1.3463
 7229TIP3   OH243101   3.152   1.898  10.589 -0.4189 -0.6385 -0.4109
 7229TIP3    H143102   3.190   1.812  10.610  0.5268 -0.4689 -1.3981
 7229TIP3    H243103   3.101   1.920  10.667 -0.7889 -2.1526 -0.1834
 7230TIP3   OH243104   1.551   3.328  13.729  0.1790  0.1140 -0.4635
 7230TIP3    H143105   1.570   3.326  13.823  0.8724  0.5003 -0.5877
 7230TIP3    H243106   1.502   3.247  13.712 -1.1380  0.6807  0.4681
 7231TIP3   OH243107   0.233   1.403   5.301  0.0944  0.2138  0.5689
 7231TIP3    H143108   0.180   1.327   5.278 -0.5323  0.5760  0.7975
 7231TIP3    H243109   0.314   1.392   5.251  0.0237 -0.6185  0.6238
 7232TIP3   OH243110   1.021   3.395  14.527  0.3873 -0.7212 -0.5061
 7232TIP3    H143111   1.059   3.483  14.532  2.0627 -1.2919 -1.9848
 7232TIP3    H243112   0.972   3.385  14.608  1.6454  0.9156  0.5179
 7233TIP3   OH243113   5.454   3.682   5.630 -0.3767  0.1207  0.6164
 7233TIP3    H143114   5.394   3.698   5.558 -0.2823  0.5882  0.6357
 7233TIP3    H243115   5.496   3.767   5.645  2.7947 -0.8476 -1.6369
 7234TIP3   OH243116   1.481   5.002   2.328  0.1883  0.1749 -0.2990
 7234TIP3    H143117   1.426   5.006   2.406  1.1124  1.2318  0.3294
 7234TIP3    H243118   1.451   5.076   2.274 -1.1024 -1.1075 -1.4497
 7235TIP3   OH243119   3.773   4.547  11.412 -0.5876 -0.2045 -0.1488
 7235TIP3    H143120   3.846   4.559  11.352 -0.9946  1.7760 -0.3098
 7235TIP3    H243121   3.808   4.574  11.497 -1.9330  4.0985 -0.7611
 7236TIP3   OH243122   4.223   0.298   1.248 -0.5681 -0.3393 -0.1554
 7236TIP3    H143123   4.138   0.294   1.204 -0.9841 -0.1381  0.5966
 7236TIP3    H243124   4.207   0.356   1.323  0.2368 -0.3063 -0.0047
 7237TIP3   OH243125   4.604   3.758   2.968  0.2748 -0.5829  0.0475
 7237TIP3    H143126   4.672   3.713   2.918 -0.1545 -0.7574 -0.3890
 7237TIP3    H243127   4.588   3.701   3.043  1.5030  0.0823  0.8390
 7238TIP3   OH243128   4.727   0.694  17.254  0.1552 -0.3844 -0.0013
 7238TIP3    H143129   4.823   0.701  17.257  0.1042  0.0753  1.4893
 7238TIP3    H243130   4.711   0.599  17.257  0.5700 -0.4490  0.5119
 7239TIP3   OH243131   0.791   4.903   0.803 -0.2102 -0.2252 -0.4673
 7239TIP3    H143132   0.780   4.853   0.884  0.6491  1.0246  0.4659
 7239TIP3    H243133   0.707   4.947   0.791  0.4306  1.6400  1.2454
 7240TIP3   OH243134   3.428   5.723  15.211 -0.3532 -0.4185  0.2085
 7240TIP3    H143135   3.400   5.723  15.303 -0.5281 -0.6876  0.1542
 7240TIP3    H243136   3.511   5.771  15.212  0.4711 -1.7907  0.7678
 7241TIP3   OH243137   4.788   0.478   4.941 -0.1899  0.3875 -0.0058
 7241TIP3    H143138   4.832   0.460   5.024  1.1101  0.9904 -0.5426
 7241TIP3    H243139   4.711   0.421   4.942  0.0959 -0.0102  1.3655
 7242TIP3   OH243140   2.559   2.144  14.378  0.0491  0.0976  0.2298
 7242TIP3    H143141   2.617   2.137  14.303 -0.2059 -1.2670  0.1361
 7242TIP3    H243142   2.599   2.212  14.433  0.9819  0.1343 -0.4766
 7243TIP3   OH243143   3.388   0.888   3.295  0.5802  0.1404  0.4001
 7243TIP3    H143144   3.362   0.962   3.240  2.9436  0.8395  0.0752
 7243TIP3    H243145   3.336   0.814   3.264 -1.4264  1.4979  0.3357
 7244TIP3   OH243146   2.256   1.314   5.309  0.2896 -0.2175 -0.7587
 7244TIP3    H143147   2.337   1.280   5.347  1.0555  1.4361 -0.8221
 7244TIP3    H243148   2.192   1.243   5.320  1.2972 -0.9395  0.8037
 7245TIP3   OH243149   6.700   2.016   2.527 -0.5019  0.1723  0.4126
 7245TIP3    H143150   6.654   1.939   2.559 -0.2913 -0.0010  0.3044
 7245TIP3    H243151   6.783   1.982   2.493  0.0837  0.5862  1.3977
 7246TIP3   OH243152   2.461   0.059   6.639  0.7831  1.0859 -0.4367
 7246TIP3    H143153   2.440   0.119   6.568 -1.1458  1.3860  0.3049
 7246TIP3    H243154   2.414  -0.022   6.616  0.0106  1.2391  0.5405
 7247TIP3   OH243155   5.358   2.229   4.086  0.1294  0.1168  0.3000
 7247TIP3    H143156   5.305   2.151   4.100 -1.0729  0.6060 -1.1317
 7247TIP3    H243157   5.447   2.197   4.073 -0.6387 -1.2540 -2.1730
 7248TIP3   OH243158   3.744   2.039  13.041  0.1510  0.3246  0.6206
 7248TIP3    H143159   3.663   1.991  13.056  0.8357 -0.2203  2.8404
 7248TIP3    H243160   3.813   1.973  13.045  0.7843  0.8523 -0.7758
 7249TIP3   OH243161   0.997   1.852  10.956  0.0695  0.7415  0.2783
 7249TIP3    H143162   0.903   1.871  10.958 -0.2444 -0.6491 -0.2471
 7249TIP3    H243163   1.003   1.759  10.977  1.3213  0.7461  0.0117
 7250TIP3   OH243164   1.478   4.609  12.476  0.1748 -0.1208 -0.0610
 7250TIP3    H143165   1.562   4.653  12.494  0.1360 -0.1088  0.0983
 7250TIP3    H243166   1.479   4.592  12.382 -0.5968  1.8529 -0.4870
 7251TIP3   OH243167   1.934   1.598  13.563 -0.2324  0.1617 -0.4755
 7251TIP3    H143168   1.869   1.541  13.605 -0.4422  1.6403  1.3172
 7251TIP3    H243169   1.993   1.624  13.633 -0.9655  3.2597 -0.8410
 7252TIP3   OH243170   6.370   2.386  15.397 -0.2243 -0.3742  0.3428
 7252TIP3    H143171   6.463   2.397  15.415 -0.1234  2.1981 -1.2207
 7252TIP3    H243172   6.327   2.414  15.478  0.3347 -0.4421  0.6687
 7253TIP3   OH243173   5.851   1.743   3.346  0.0203 -0.1443  0.5426
 7253TIP3    H143174   5.815   1.733   3.258 -3.2537 -0.8533  1.8072
 7253TIP3    H243175   5.895   1.828   3.345 -0.3055  0.0475 -1.6413
 7254TIP3   OH243176   4.187   2.305   5.686  0.4361 -0.1738  0.1046
 7254TIP3    H143177   4.112   2.341   5.639  1.1431  1.0588 -0.1285
 7254TIP3    H243178   4.178   2.339   5.775  1.1278  0.6375 -0.1253
 7255TIP3   OH243179   4.683   3.641  13.471 -0.1480 -0.3769  0.7110
 7255TIP3    H143180   4.625   3.700  13.519 -2.1729  0.1756 -2.1275
 7255TIP3    H243181   4.629   3.563  13.455 -0.5216  0.4089 -2.5623
 7256TIP3   OH243182   6.106   3.221  15.595 -0.7564  0.0831  0.1408
 7256TIP3    H143183   6.196   3.219  15.629  0.0508 -0.8994 -1.9027
 7256TIP3    H243184   6.079   3.129  15.593 -2.5028  0.4643  2.3048
 7257TIP3   OH243185   1.176   1.833  15.310  0.1673 -0.0493 -0.1648
 7257TIP3    H143186   1.243   1.812  15.245  0.3542 -0.3522  0.1205
 7257TIP3    H243187   1.142   1.918  15.284  0.1835 -0.2067 -0.7073
 7258TIP3   OH243188   5.295   1.243   3.839  0.0071 -0.1914 -0.0004
 7258TIP3    H143189   5.224   1.201   3.888 -0.1507 -0.0619 -0.1146
 7258TIP3    H243190   5.364   1.257   3.904 -0.4224  0.4998  0.3231
 7259TIP3   OH243191   0.608   2.212  10.725 -0.3957 -0.1758 -0.3814
 7259TIP3    H143192   0.531   2.168  10.690 -0.7617 -0.1200  0.3183
 7259TIP3    H243193   0.588   2.305  10.717  0.2805 -0.1236 -1.6493
 7260TIP3   OH243194   0.308   3.776   3.333 -0.5703  0.1806 -0.0483
 7260TIP3    H143195   0.370   3.823   3.276 -0.0025  1.3345  1.4492
 7260TIP3    H243196   0.360   3.707   3.372 -0.6231  0.1982  0.0523
 7261TIP3   OH243197   0.881   2.273  15.204  0.2605  0.2829  0.0656
 7261TIP3    H143198   0.922   2.263  15.290  0.6107  0.8416 -0.0324
 7261TIP3    H243199   0.930   2.343  15.162  1.0182 -0.9147 -1.1507
 7262TIP3   OH243200   3.253   4.560  13.435  0.0174 -0.2020  0.4294
 7262TIP3    H143201   3.230   4.468  13.423 -0.9784 -0.0953  1.3813
 7262TIP3    H243202   3.278   4.591  13.347  2.0152 -1.7908  0.3689
 7263TIP3   OH243203   5.739   3.966   3.816  0.3356  0.6436  0.8699
 7263TIP3    H143204   5.677   3.997   3.750  0.4973 -1.8438 -0.5482
 7263TIP3    H243205   5.795   4.042   3.834  1.4967  0.9673 -3.2568
 7264TIP3   OH243206   3.142   5.056   5.492  0.2614 -0.3586 -0.0299
 7264TIP3    H143207   3.140   4.965   5.520  0.1415 -0.6616 -0.9966
 7264TIP3    H243208   3.197   5.056   5.414  0.7902  0.5049  0.3342
 7265TIP3   OH243209   5.942   3.106  15.054 -0.2141 -0.6298  0.1207
 7265TIP3    H143210   5.874   3.169  15.080  0.5946  0.8591 -1.2090
 7265TIP3    H243211   5.930   3.095  14.960  0.7139 -1.1746  0.0536
 7266TIP3   OH243212   5.684   3.185  15.662 -0.4389 -0.1738 -0.3004
 7266TIP3    H143213   5.607   3.142  15.624 -1.5429  0.5801  1.0215
 7266TIP3    H243214   5.735   3.113  15.700 -0.4268 -0.6911 -1.2624
 7267TIP3   OH243215   5.378   2.265   2.164  0.0006 -0.4313  0.0827
 7267TIP3    H143216   5.344   2.348   2.198 -0.8771 -1.2072  1.1715
 7267TIP3    H243217   5.324   2.198   2.206 -1.0943 -1.4879 -2.7494
 7268TIP3   OH243218   1.640   1.154   2.273 -0.0191  0.7857 -0.2686
 7268TIP3    H143219   1.668   1.169   2.183  0.3067 -0.2151 -0.3385
 7268TIP3    H243220   1.590   1.073   2.270  1.3645 -0.1457  0.7230
 7269TIP3   OH243221   3.861   5.865  14.934 -0.3169 -0.3905  0.2399
 7269TIP3    H143222   3.950   5.898  14.942  0.0803 -1.3496 -0.1440
 7269TIP3    H243223   3.817   5.928  14.876  0.0538  0.1679  0.5547
 7270TIP3   OH243224   3.648   6.199   4.596  0.1510  0.0695 -0.1322
 7270TIP3    H143225   3.660   6.294   4.604 -0.6821  0.0784  1.3571
 7270TIP3    H243226   3.701   6.162   4.666  0.9180 -0.6265 -1.0510
 7271TIP3   OH243227   4.271   3.399   5.001  0.5402 -0.5802 -0.4855
 7271TIP3    H143228   4.204   3.389   5.068 -0.1162  0.9822 -0.8680
 7271TIP3    H243229   4.337   3.456   5.040  0.3821 -0.0385 -1.0030
 7272TIP3   OH243230   1.336   5.305  17.085  0.2496  0.5939  0.4675
 7272TIP3    H143231   1.285   5.339  17.158  1.5223 -0.4186  1.8941
 7272TIP3    H243232   1.415   5.360  17.083 -0.9602  2.4188 -1.9775
 7273TIP3   OH243233   2.110   0.068  10.327 -0.0970 -0.0444 -0.1394
 7273TIP3    H143234   2.161   0.023  10.393 -1.9250 -1.1869  0.5481
 7273TIP3    H243235   2.020   0.038  10.340 -0.9750  1.8374 -1.3348
 7274TIP3   OH243236   4.832   0.165   0.145 -1.1296 -0.1107 -0.3199
 7274TIP3    H143237   4.830   0.254   0.181  1.6031  0.2534 -0.8435
 7274TIP3    H243238   4.799   0.110   0.216  0.4462  0.9938  1.3599
 7275TIP3   OH243239   2.224   5.469   5.543  0.3470  0.0553 -0.4034
 7275TIP3    H143240   2.296   5.413   5.573  0.8032 -0.0562 -1.6799
 7275TIP3    H243241   2.211   5.531   5.616  1.6516  0.0054 -0.1033
 7276TIP3   OH243242   6.133   4.693   3.940 -0.3802  0.5156  0.1568
 7276TIP3    H143243   6.135   4.784   3.970  1.1342  0.1686  1.2459
 7276TIP3    H243244   6.102   4.644   4.015  2.0570 -0.2096  0.7737
 7277TIP3   OH243245   1.974   5.268  13.980  0.3392 -0.2237  0.4955
 7277TIP3    H143246   1.999   5.256  13.889  2.5013 -1.2634  1.1557
 7277TIP3    H243247   2.013   5.193  14.026 -0.6626  0.2800  2.2717
 7278TIP3   OH243248   4.088   4.437  16.095 -0.0147  0.0573 -0.0138
 7278TIP3    H143249   4.166   4.420  16.042  1.3382  1.3901  1.4111
 7278TIP3    H243250   4.106   4.522  16.136 -0.8469 -0.9772  2.7068
 7279TIP3   OH243251   0.276   5.694   5.296 -0.1931 -0.5047 -0.2669
 7279TIP3    H143252   0.259   5.772   5.348  0.9346  0.6434 -1.5564
 7279TIP3    H243253   0.195   5.681   5.246  0.0095  0.5614 -0.9135
 7280TIP3   OH243254   1.305   3.442   4.546  0.2476 -0.0101 -0.0746
 7280TIP3    H143255   1.346   3.359   4.567 -0.5376  0.0600  1.9347
 7280TIP3    H243256   1.219   3.418   4.511 -0.0475 -0.0601  0.6672
 7281TIP3   OH243257   4.781   3.591  15.784 -0.2712  0.0350  0.3104
 7281TIP3    H143258   4.722   3.517  15.768  1.2118 -1.9744  3.1494
 7281TIP3    H243259   4.796   3.589  15.879  1.9967  2.3156  0.1035
 7282TIP3   OH243260   6.407   5.719  15.996 -0.2267 -0.0754  0.5888
 7282TIP3    H143261   6.370   5.721  15.908  0.7909 -0.0359  0.1522
 7282TIP3    H243262   6.476   5.653  15.992 -0.3752 -0.2996  1.4448
 7283TIP3   OH243263   1.764   6.739   2.528  0.4364 -0.0838 -0.3627
 7283TIP3    H143264   1.820   6.763   2.602 -0.6134 -0.9863  0.7813
 7283TIP3    H243265   1.783   6.647   2.512 -0.0078 -0.1378 -0.6071
 7284TIP3   OH243266   5.475   0.806   2.660 -0.3419 -0.3805  0.5689
 7284TIP3    H143267   5.469   0.848   2.746  0.4954  1.8026 -0.3622
 7284TIP3    H243268   5.387   0.809   2.625 -0.4356 -0.0692  0.8280
 7285TIP3   OH243269   2.288   0.816  14.568 -0.0899 -0.5397  0.3777
 7285TIP3    H143270   2.242   0.762  14.631 -0.9621 -0.7283 -0.4050
 7285TIP3    H243271   2.258   0.905  14.586 -0.5599 -0.6295  0.0418
 7286TIP3   OH243272   2.481   4.158   4.836 -0.3857 -0.0429 -0.1199
 7286TIP3    H143273   2.523   4.229   4.883  0.0444  0.8263 -1.7448
 7286TIP3    H243274   2.521   4.078   4.871  0.2918  0.5936  0.5761
 7287TIP3   OH243275   5.028   0.885  12.800 -0.2193  0.6904 -0.1204
 7287TIP3    H143276   5.102   0.944  12.816 -0.1333  0.7090 -0.5718
 7287TIP3    H243277   4.950   0.940  12.815 -0.1469  0.6177  0.5496
 7288TIP3   OH243278   3.536   4.346   0.033  0.7288 -0.5880  0.1779
 7288TIP3    H143279   3.569   4.333  -0.055 -0.7390  0.1401 -0.5105
 7288TIP3    H243280   3.573   4.429   0.061 -0.7569  0.4292 -0.7456
 7289TIP3   OH243281   2.995   4.304   2.832  0.0966  0.2489 -0.0348
 7289TIP3    H143282   2.954   4.329   2.749  1.5788  2.0868 -0.2666
 7289TIP3    H243283   3.088   4.294   2.811  0.2457 -0.9846  1.0688
 7290TIP3   OH243284   5.941   3.563   0.639  0.7403  0.6178  0.1738
 7290TIP3    H143285   5.879   3.631   0.613  0.4686 -0.2241 -1.5847
 7290TIP3    H243286   5.887   3.486   0.655  1.1994  0.2858  0.1594
 7291TIP3   OH243287   1.765   1.954  17.091 -0.5106  0.3378  0.0586
 7291TIP3    H143288   1.837   1.956  17.028 -1.0366  0.1017 -0.5649
 7291TIP3    H243289   1.699   1.897  17.051  0.2655 -2.1966  2.0980
 7292TIP3   OH243290   6.104   3.242   2.359 -0.0403  0.1975  0.1874
 7292TIP3    H143291   6.185   3.281   2.389 -0.1032 -0.0649  0.7016
 7292TIP3    H243292   6.050   3.317   2.331  1.0402  0.2689 -1.8734
 7293TIP3   OH243293   2.619   3.217  14.371 -0.1736 -0.1513  0.7019
 7293TIP3    H143294   2.555   3.281  14.341  0.2915  0.3512  0.7673
 7293TIP3    H243295   2.701   3.265  14.376 -0.2515 -0.1597  2.9221
 7294TIP3   OH243296   6.261   1.464   1.461  0.3182  0.0237 -0.4044
 7294TIP3    H143297   6.186   1.523   1.467  0.7249  0.4127  1.5925
 7294TIP3    H243298   6.271   1.429   1.550  1.3743 -1.4499 -1.0592
 7295TIP3   OH243299   0.837   6.738   3.852  0.6059  0.3313 -0.0002
 7295TIP3    H143300   0.915   6.696   3.887  2.4835  3.2460 -0.2765
 7295TIP3    H243301   0.769   6.724   3.918  1.7771 -0.9798  0.9673
 7296TIP3   OH243302   1.888   4.408   0.200 -0.1995  0.3647 -0.0680
 7296TIP3    H143303   1.801   4.376   0.224  1.0711 -2.1076  1.6918
 7296TIP3    H243304   1.947   4.365   0.261  2.2685  2.2286 -0.9735
 7297TIP3   OH243305   4.387   3.374   4.770  0.1213  0.0691 -0.2367
 7297TIP3    H143306   4.311   3.357   4.715  1.5005 -1.7451 -1.7130
 7297TIP3    H243307   4.357   3.355   4.859 -1.7855  1.7637 -0.4397
 7298TIP3   OH243308   5.636   2.176  13.849 -0.7240  0.1525 -0.0036
 7298TIP3    H143309   5.654   2.134  13.764 -1.1157  0.1738 -0.0973
 7298TIP3    H243310   5.542   2.192  13.848 -1.1039 -1.6915  1.2632
 7299TIP3   OH243311   5.789   0.264  13.469  0.5650  0.0562 -0.5383
 7299TIP3    H143312   5.809   0.225  13.554 -2.9224 -0.4839  0.1931
 7299TIP3    H243313   5.825   0.352  13.474  0.5374 -0.0018  1.4710
 7300TIP3   OH243314   2.361   3.566   5.055 -0.4575  0.0192  0.5959
 7300TIP3    H143315   2.432   3.537   4.997 -0.7262  0.0819  0.2316
 7300TIP3    H243316   2.382   3.527   5.139  0.4914  0.7470  0.7239
 7301TIP3   OH243317   2.792   5.565   6.037  0.2075 -0.1633  0.3322
 7301TIP3    H143318   2.755   5.483   6.005 -1.2711  0.4017  0.4985
 7301TIP3    H243319   2.816   5.546   6.128 -0.1881 -0.4108  0.3902
 7302TIP3   OH243320   0.063   1.209  11.947 -0.1124  0.0403 -0.0954
 7302TIP3    H143321   0.069   1.207  12.043 -1.1966  0.1806 -0.0179
 7302TIP3    H243322   0.016   1.289  11.927 -0.2406 -0.1892 -0.7329
 7303TIP3   OH243323   3.386   1.015   1.188 -0.5174  0.2027  0.2042
 7303TIP3    H143324   3.414   0.933   1.230 -1.1351 -0.8110 -1.2787
 7303TIP3    H243325   3.320   0.988   1.124  0.5081  1.6397 -1.5486
 7304TIP3   OH243326   4.247   6.392   5.545 -0.4061 -0.9543  0.3424
 7304TIP3    H143327   4.166   6.437   5.521 -0.4596 -0.6179  1.1117
 7304TIP3    H243328   4.243   6.308   5.499 -1.2912 -1.0336  0.5445
 7305TIP3   OH243329   5.943   2.996  15.325 -0.5017  0.3730  0.5280
 7305TIP3    H143330   5.954   3.048  15.246 -1.4526 -0.5859 -0.2594
 7305TIP3    H243331   5.854   2.962  15.320 -0.3991 -0.1397  1.7451
 7306TIP3   OH243332   5.410   3.005   4.301 -1.1915 -0.1633 -0.4648
 7306TIP3    H143333   5.334   2.950   4.322 -0.3883 -0.7302  1.1830
 7306TIP3    H243334   5.431   3.048   4.384  0.7620 -0.6575 -0.6600
 7307TIP3   OH243335   0.308   3.315  13.193  0.4374  0.1082  0.2799
 7307TIP3    H143336   0.382   3.283  13.143  0.0425 -0.1342 -0.1521
 7307TIP3    H243337   0.248   3.351  13.128 -0.5236 -1.0930  0.4553
 7308TIP3   OH243338   0.702   5.241  16.924 -0.3348 -0.1212 -0.6958
 7308TIP3    H143339   0.689   5.243  17.019 -0.1612 -0.0466 -0.6745
 7308TIP3    H243340   0.629   5.293  16.890  0.0874  0.5877 -0.5536
 7309TIP3   OH243341   2.796   1.282  11.601 -0.0306 -0.2712  0.4566
 7309TIP3    H143342   2.843   1.205  11.569 -0.5027  0.2136 -1.5791
 7309TIP3    H243343   2.860   1.328  11.656  0.7248 -1.3645  0.5222
 7310TIP3   OH243344   1.926   4.634   3.095 -0.0994  0.3965  0.0479
 7310TIP3    H143345   1.896   4.687   3.170  1.4081  1.8977 -0.3434
 7310TIP3    H243346   2.003   4.588   3.128 -1.1521 -1.2865  0.2516
 7311TIP3   OH243347   0.609   3.217  17.056 -0.3709 -0.0760  0.2329
 7311TIP3    H143348   0.562   3.300  17.051  0.3944  0.3098 -0.9440
 7311TIP3    H243349   0.696   3.236  17.021  0.0077 -1.2419  0.4807
 7312TIP3   OH243350   1.625   5.307   5.048 -0.2515  0.3778  0.0282
 7312TIP3    H143351   1.639   5.393   5.007 -2.1696  0.3456 -0.7946
 7312TIP3    H243352   1.565   5.262   4.990 -0.3223 -1.0374  1.1436
 7313TIP3   OH243353   6.327   5.667   1.204  0.3448  0.2684  0.2538
 7313TIP3    H143354   6.322   5.759   1.228  0.9099  0.1294  0.9492
 7313TIP3    H243355   6.420   5.645   1.211  0.3635 -0.0929 -0.9386
 7314TIP3   OH243356   4.782   0.181  16.404  0.0977  0.5760 -0.6028
 7314TIP3    H143357   4.697   0.148  16.431  1.9959 -1.7394  3.4114
 7314TIP3    H243358   4.787   0.269  16.442  0.0559  0.1032  0.5206
 7315TIP3   OH243359   4.189   5.133  11.253 -0.0607  0.4213  0.0280
 7315TIP3    H143360   4.119   5.068  11.255  1.0838 -0.8494  0.9169
 7315TIP3    H243361   4.254   5.097  11.192  0.3430  0.9812  0.1165
 7316TIP3   OH243362   5.346   2.757   1.846  0.1925 -0.0926 -0.5158
 7316TIP3    H143363   5.441   2.754   1.856  0.4543  2.2443 -1.6526
 7316TIP3    H243364   5.321   2.668   1.822  1.8813 -1.0900  1.1810
 7317TIP3   OH243365   4.991   1.928   2.184  0.3933  0.1841 -0.1750
 7317TIP3    H143366   4.941   2.004   2.154  0.5812  0.0879 -0.7423
 7317TIP3    H243367   5.029   1.956   2.268  0.3885  0.6835 -0.3355
 7318TIP3   OH243368   2.512   3.493  16.149  0.6298 -0.0023 -0.6499
 7318TIP3    H143369   2.474   3.562  16.202  1.1700  1.4288 -2.0614
 7318TIP3    H243370   2.440   3.433  16.132  0.8006 -1.5522  3.1320
 7319TIP3   OH243371   3.771   0.768  12.974 -0.0796  0.2298 -0.0541
 7319TIP3    H143372   3.713   0.748  12.900 -3.2603 -1.1055  2.5567
 7319TIP3    H243373   3.733   0.846  13.014 -0.0212 -0.5534  1.6194
 7320TIP3   OH243374   1.673   2.189   6.939 -0.0036  0.3730  0.2561
 7320TIP3    H143375   1.743   2.230   6.990  0.4609 -1.2211  0.9402
 7320TIP3    H243376   1.672   2.238   6.857  1.1835  1.1177  0.6595
 7321TIP3   OH243377   4.457   0.720  15.445 -0.0140  0.1119  0.2237
 7321TIP3    H143378   4.535   0.686  15.402 -0.2457  0.4250 -0.4638
 7321TIP3    H243379   4.414   0.642  15.482 -0.1492 -0.2703 -0.6859
 7322TIP3   OH243380   1.988   3.872   5.893 -0.3080 -0.1774  0.1004
 7322TIP3    H143381   2.031   3.893   5.975 -2.5231  0.3117  1.2155
 7322TIP3    H243382   1.897   3.855   5.917 -1.2501  0.8627 -2.3345
 7323TIP3   OH243383   5.233   4.611  15.883 -0.3829 -0.4017  0.5715
 7323TIP3    H143384   5.263   4.598  15.793  0.2989 -2.6773  1.0364
 7323TIP3    H243385   5.306   4.579  15.937 -1.1357  0.0368  1.9084
 7324TIP3   OH243386   0.170   3.299  15.036  0.0509 -0.3596 -0.2863
 7324TIP3    H143387   0.250   3.284  15.087 -0.0848  1.6139  0.5975
 7324TIP3    H243388   0.176   3.391  15.010 -1.2463 -0.5854 -1.4560
 7325TIP3   OH243389   4.111   5.855   0.361  0.0745  0.2429 -0.3898
 7325TIP3    H143390   4.099   5.916   0.289 -1.5873 -0.1177 -0.4512
 7325TIP3    H243391   4.090   5.769   0.324  1.0603 -0.2033  0.0443
 7326TIP3   OH243392   0.387   4.500   6.059  0.2552 -0.5650  0.2784
 7326TIP3    H143393   0.482   4.489   6.053  0.6789  2.1142  0.7520
 7326TIP3    H243394   0.362   4.454   6.140  0.9321 -2.1493 -0.3655
 7327TIP3   OH243395   0.638   3.435   3.605  0.7501  0.3909  0.0017
 7327TIP3    H143396   0.720   3.476   3.635  1.3448 -0.6655 -0.0927
 7327TIP3    H243397   0.667   3.365   3.547  0.0933 -2.5980  2.9426
 7328TIP3   OH243398   3.772   3.183  13.598  0.0004 -0.0629 -0.1291
 7328TIP3    H143399   3.832   3.194  13.672  2.1587  2.2755 -2.0683
 7328TIP3    H243400   3.690   3.224  13.628 -0.0562 -1.4180  1.8010
 7329TIP3   OH243401   3.712   2.119  16.429  0.1612 -0.6983  0.1004
 7329TIP3    H143402   3.778   2.050  16.439 -0.7678 -1.7152 -0.4650
 7329TIP3    H243403   3.632   2.072  16.405 -0.3112  0.6429 -1.1376
 7330TIP3   OH243404   4.071   5.122  14.625  0.0524  0.5428 -0.1577
 7330TIP3    H143405   3.994   5.147  14.677  0.9242  3.0352  0.0640
 7330TIP3    H243406   4.146   5.144  14.681  0.9662  0.1833 -1.1981
 7331TIP3   OH243407   2.802   0.794  12.574  0.2917  0.0734 -0.1579
 7331TIP3    H143408   2.715   0.785  12.614 -0.5391 -0.2279 -1.9412
 7331TIP3    H243409   2.788   0.772  12.482  2.5449 -1.3305 -0.2268
 7332TIP3   OH243410   1.917   5.186   5.287 -0.2433  0.0074  0.2262
 7332TIP3    H143411   2.006   5.203   5.257 -0.2359  1.1796  0.8394
 7332TIP3    H243412   1.900   5.095   5.263  0.8609 -0.0180 -0.5257
 7333TIP3   OH243413   5.858   0.544  13.810 -0.2947 -0.5561 -0.5902
 7333TIP3    H143414   5.899   0.470  13.766 -0.2802 -0.3156 -0.9896
 7333TIP3    H243415   5.766   0.541  13.783 -0.3957 -0.6880 -0.2473
 7334TIP3   OH243416   3.931   4.144  13.472  0.1655 -1.0651 -0.2062
 7334TIP3    H143417   3.903   4.234  13.488  0.7130 -1.1807  1.6567
 7334TIP3    H243418   4.017   4.152  13.431  0.6589 -0.7108  0.8571
 7335TIP3   OH243419   2.142   3.488  14.760  0.4647  0.2434  0.3922
 7335TIP3    H143420   2.198   3.507  14.836  0.8282  0.4952  0.0624
 7335TIP3    H243421   2.168   3.400  14.733  1.1411  0.5935 -0.1339
 7336TIP3   OH243422   2.406   4.088   1.892 -0.0027  0.1627 -0.3008
 7336TIP3    H143423   2.426   4.021   1.957  0.3357  0.8859  0.3540
 7336TIP3    H243424   2.335   4.139   1.932 -1.1683 -0.5852 -1.3454
 7337TIP3   OH243425   5.042   4.678   6.394  0.0294 -0.1215 -0.0106
 7337TIP3    H143426   5.042   4.618   6.468 -0.0010  0.5013  0.5003
 7337TIP3    H243427   5.103   4.747   6.419 -0.8681  0.7064 -0.0631
 7338TIP3   OH243428   0.428   1.160  12.856 -0.0463 -0.1230 -0.7411
 7338TIP3    H143429   0.399   1.070  12.871  0.3741 -0.4809 -1.9479
 7338TIP3    H243430   0.480   1.181  12.933  3.1497 -2.3429 -2.0544
 7339TIP3   OH243431   3.667   3.213   0.352  0.0661 -0.4262  0.0528
 7339TIP3    H143432   3.581   3.189   0.386 -1.2028  2.8426 -0.4631
 7339TIP3    H243433   3.725   3.142   0.380 -2.5841 -2.3089  1.1907
 7340TIP3   OH243434   5.149   3.058  11.600  0.0154  0.4055 -0.7047
 7340TIP3    H143435   5.142   2.978  11.548 -2.1262 -0.4384  0.7416
 7340TIP3    H243436   5.060   3.073  11.632  1.0451  1.3240  2.0002
 7341TIP3   OH243437   4.404   2.021  13.289 -0.1161 -0.0995  0.3985
 7341TIP3    H143438   4.384   2.003  13.381 -0.6085 -0.7259  0.1758
 7341TIP3    H243439   4.320   2.044  13.250 -0.5849 -3.1265 -0.6353
 7342TIP3   OH243440   0.993   6.593  11.520 -0.2886 -0.0119 -0.7431
 7342TIP3    H143441   0.917   6.647  11.541 -0.2440 -0.3437  0.3537
 7342TIP3    H243442   1.042   6.643  11.455 -0.0233  1.4717  0.5497
 7343TIP3   OH243443   1.285   1.896  15.786  0.1225  0.7345 -0.7874
 7343TIP3    H143444   1.243   1.813  15.809 -0.5276  1.7106  1.8746
 7343TIP3    H243445   1.292   1.893  15.691 -1.6265 -1.5353 -0.9433
 7344TIP3   OH243446   4.167   5.885   2.561 -0.4227  0.4895  0.0771
 7344TIP3    H143447   4.235   5.892   2.627  1.2864 -1.8590 -1.2731
 7344TIP3    H243448   4.197   5.942   2.490  1.2120 -1.8601 -1.2528
 7345TIP3   OH243449   4.314   6.004  12.977  0.4169 -0.2408 -0.2398
 7345TIP3    H143450   4.231   6.027  13.020  0.1964  0.9594 -1.2201
 7345TIP3    H243451   4.378   5.999  13.048 -0.4731 -1.1219  0.5260
 7346TIP3   OH243452   5.042   0.237   1.440 -0.3528 -0.8406 -0.3614
 7346TIP3    H143453   5.131   0.269   1.421 -0.9280  1.3245  0.2657
 7346TIP3    H243454   5.055   0.176   1.513  0.5368  0.2693  0.4492
 7347TIP3   OH243455   4.655   4.262   2.087  0.5188 -0.6617 -0.4729
 7347TIP3    H143456   4.639   4.306   2.170 -0.0035 -0.2448 -0.7851
 7347TIP3    H243457   4.727   4.201   2.105  1.3873  0.4546 -0.0807
 7348TIP3   OH243458   0.428   4.382  13.888 -1.0367 -0.1617 -0.3453
 7348TIP3    H143459   0.403   4.290  13.882  0.0903 -0.5609  0.6962
 7348TIP3    H243460   0.423   4.402  13.982  1.3894  0.0342 -0.1962
 7349TIP3   OH243461   5.299   4.557   4.558 -0.0967 -0.2760 -0.2787
 7349TIP3    H143462   5.324   4.464   4.563  0.1056 -0.3428 -1.9392
 7349TIP3    H243463   5.352   4.592   4.487  0.4371  1.3498  0.8669
 7350TIP3   OH243464   1.108   1.328  14.513  0.7749  0.3803  0.1139
 7350TIP3    H143465   1.092   1.416  14.479 -0.0239  0.0811 -0.3110
 7350TIP3    H243466   1.137   1.342  14.603 -0.9698  1.0356  0.6298
 7351TIP3   OH243467   0.865   3.500   2.439 -0.3683 -0.0531  0.4710
 7351TIP3    H143468   0.812   3.516   2.517 -0.0300  0.8002  0.5446
 7351TIP3    H243469   0.893   3.588   2.411  0.0735 -0.4014 -0.2153
 7352TIP3   OH243470   4.073   4.106   1.877 -0.0092  0.1395  0.5833
 7352TIP3    H143471   4.130   4.050   1.824 -0.0050 -0.6651  1.3939
 7352TIP3    H243472   3.989   4.105   1.832 -0.5346 -1.9964  1.4601
 7353TIP3   OH243473   2.678   1.741  15.094 -0.2754 -0.3936 -0.0644
 7353TIP3    H143474   2.688   1.664  15.038  0.7469 -0.0083 -0.4368
 7353TIP3    H243475   2.711   1.813  15.041 -1.6683  0.4045  0.0918
 7354TIP3   OH243476   6.123   0.617  12.337  0.0400  0.3053 -0.4334
 7354TIP3    H143477   6.085   0.539  12.296  1.1154 -1.0232  0.9745
 7354TIP3    H243478   6.060   0.686  12.319 -0.3733 -0.5678 -2.7879
 7355TIP3   OH243479   1.825   6.219   2.024  0.1814 -0.1347 -0.2858
 7355TIP3    H143480   1.892   6.157   2.050 -0.6749 -1.2349 -0.6156
 7355TIP3    H243481   1.857   6.304   2.054  2.0077 -0.5280 -1.0103
 7356TIP3   OH243482   5.391   5.263  13.834 -0.3923 -0.3005  0.1363
 7356TIP3    H143483   5.386   5.206  13.911  2.7994  0.1374  0.8072
 7356TIP3    H243484   5.479   5.247  13.798  0.2342  3.2662 -0.3126
 7357TIP3   OH243485   0.531   1.717  16.287 -0.0581  0.6499  0.0915
 7357TIP3    H143486   0.569   1.805  16.291 -0.1287  0.7054 -0.4110
 7357TIP3    H243487   0.437   1.731  16.291 -0.1459  0.7150 -1.4702
 7358TIP3   OH243488   0.968   3.829  11.017  0.1140 -0.1517  0.6309
 7358TIP3    H143489   0.938   3.862  10.932 -1.8502  1.2288  1.7797
 7358TIP3    H243490   0.899   3.770  11.045  0.5304 -0.2404  1.4803
 7359TIP3   OH243491   2.309   5.601   3.098  0.3880 -0.1422  0.2124
 7359TIP3    H143492   2.318   5.654   3.019  0.1618 -0.2402  0.1197
 7359TIP3    H243493   2.226   5.630   3.137  0.0398 -0.7330 -0.0745
 7360TIP3   OH243494   3.331   6.651  16.809 -0.5782 -0.1736 -0.2237
 7360TIP3    H143495   3.252   6.640  16.757 -1.2340 -0.9445  0.8947
 7360TIP3    H243496   3.301   6.649  16.900  0.5836  0.6981  0.2142
 7361TIP3   OH243497   5.096   0.768   2.154  0.1796 -0.1618  0.0208
 7361TIP3    H143498   5.038   0.799   2.223 -0.4342 -0.3891 -0.3825
 7361TIP3    H243499   5.158   0.840   2.140  0.4043 -0.1814  0.9061
 7362TIP3   OH243500   2.498   1.839  11.875 -0.3062 -0.2369  0.1719
 7362TIP3    H143501   2.488   1.929  11.906  2.3399 -0.0032  0.6308
 7362TIP3    H243502   2.593   1.827  11.867 -0.5966 -2.8460 -0.3202
 7363TIP3   OH243503   1.052   2.709  10.876  0.1842 -0.3732 -0.4221
 7363TIP3    H143504   1.024   2.743  10.961  0.2847  1.1704 -0.9780
 7363TIP3    H243505   0.999   2.631  10.863 -1.5936  0.7060 -0.0105
 7364TIP3   OH243506   5.524   3.195  12.684  0.5771  0.0880 -0.0276
 7364TIP3    H143507   5.606   3.241  12.669  0.8809 -0.6589 -0.7905
 7364TIP3    H243508   5.462   3.262  12.712  0.6838  1.2057 -2.2274
 7365TIP3   OH243509   5.211   5.016   2.204  0.5241 -0.3674 -0.0700
 7365TIP3    H143510   5.257   5.048   2.281 -0.7838  0.7565  0.3010
 7365TIP3    H243511   5.261   4.940   2.175  3.6386  1.7397 -0.7716
 7366TIP3   OH243512   2.298   3.483  11.453  0.0283 -0.5083  0.0457
 7366TIP3    H143513   2.240   3.532  11.512  0.1241 -1.1069  0.6526
 7366TIP3    H243514   2.327   3.409  11.505  2.2535  0.3577  0.1516
 7367TIP3   OH243515   4.506   0.649   5.503  0.1780  0.3148 -0.1777
 7367TIP3    H143516   4.504   0.732   5.456 -1.9272 -0.2002 -1.1092
 7367TIP3    H243517   4.518   0.583   5.435  0.7500 -0.2352  0.4385
 7368TIP3   OH243518   6.460   2.062   2.067 -0.0192  0.1747  0.0620
 7368TIP3    H143519   6.503   2.010   2.000 -1.3375  0.8899 -1.4002
 7368TIP3    H243520   6.521   2.062   2.141  0.9921 -1.5162 -0.7322
 7369TIP3   OH243521   0.155   1.564  13.197 -0.1391  0.4768 -0.3836
 7369TIP3    H143522   0.142   1.521  13.281 -1.0225  0.3930 -0.5490
 7369TIP3    H243523   0.247   1.590  13.197 -0.3743  1.4568  1.0763
 7370TIP3   OH243524   0.259   0.085   2.207 -0.1619  0.3258 -0.1866
 7370TIP3    H143525   0.322   0.012   2.207  0.2554  0.6658 -0.8277
 7370TIP3    H243526   0.190   0.058   2.267 -0.2077 -0.7727 -0.7123
 7371TIP3   OH243527   1.254   1.742   0.957  0.2052 -0.0174  0.0159
 7371TIP3    H143528   1.340   1.740   0.915  0.4488 -1.0445  0.5262
 7371TIP3    H243529   1.272   1.736   1.050 -0.4213 -0.9051  0.1014
 7372TIP3   OH243530   1.299   3.908  12.227  0.3722  0.1323 -0.6083
 7372TIP3    H143531   1.355   3.831  12.236 -4.0137 -3.3787 -0.1074
 7372TIP3    H243532   1.313   3.957  12.309  2.5423 -0.5825 -0.4828
 7373TIP3   OH243533   1.449   6.591  13.115 -0.0712  0.0170  0.4411
 7373TIP3    H143534   1.534   6.634  13.115 -0.6713  1.2352  0.8091
 7373TIP3    H243535   1.394   6.646  13.171 -0.8451 -1.2737  0.9949
 7374TIP3   OH243536   2.100   2.975  11.137  0.6669 -0.0292  0.3461
 7374TIP3    H143537   2.069   2.977  11.046 -1.0240 -3.9961  0.6312
 7374TIP3    H243538   2.032   3.020  11.187  1.0464  1.1488 -0.1423
 7375TIP3   OH243539   1.597   0.349   0.026 -0.4783  0.4386 -0.4485
 7375TIP3    H143540   1.551   0.270   0.055 -0.5877  0.7017  0.0991
 7375TIP3    H243541   1.576   0.355  -0.068 -0.1813 -0.3725 -0.5740
 7376TIP3   OH243542   0.154   3.229  12.187  0.0361  0.1605 -0.0753
 7376TIP3    H143543   0.122   3.290  12.254  0.9532  0.5398  0.0343
 7376TIP3    H243544   0.204   3.284  12.126  2.4515 -0.6522  1.0096
 7377TIP3   OH243545   1.771   3.041  16.713 -0.3577  0.2828  0.5667
 7377TIP3    H143546   1.797   3.127  16.747 -0.0296  0.7147 -0.7056
 7377TIP3    H243547   1.770   3.053  16.618  1.4340 -1.5946  0.2498
 7378TIP3   OH243548   6.279   0.149  14.127  0.2711  0.3706 -0.5161
 7378TIP3    H143549   6.343   0.220  14.130  1.0302 -0.3100 -0.0693
 7378TIP3    H243550   6.195   0.193  14.131  0.7343  1.2406  0.1991
 7379TIP3   OH243551   1.649   5.968  17.227  0.0950 -0.1349 -0.1895
 7379TIP3    H143552   1.638   6.007  17.313  1.5272  0.1999 -0.1476
 7379TIP3    H243553   1.737   5.992  17.200 -0.3573 -0.1497 -1.7927
 7380TIP3   OH243554   2.446   4.375   4.612 -0.1147 -0.5482  0.5210
 7380TIP3    H143555   2.444   4.442   4.544 -1.6403 -0.9318  0.1449
 7380TIP3    H243556   2.539   4.367   4.636  0.4655 -0.3852 -1.4883
 7381TIP3   OH243557   3.325   6.136   0.464  0.3284  0.5616 -0.1993
 7381TIP3    H143558   3.373   6.159   0.544  2.3369 -0.5079 -1.0228
 7381TIP3    H243559   3.373   6.061   0.428  0.5034  1.9698 -3.2576
 7382TIP3   OH243560   1.210   2.528  16.358  0.2870 -0.4021 -0.1604
 7382TIP3    H143561   1.268   2.561  16.289 -0.9450  0.7949 -0.6764
 7382TIP3    H243562   1.267   2.522  16.435  0.7935  2.4164 -0.1906
 7383TIP3   OH243563   2.209   0.785  13.257  0.2297 -0.0327  0.4535
 7383TIP3    H143564   2.223   0.729  13.334 -1.8133 -0.4268  0.6005
 7383TIP3    H243565   2.143   0.739  13.206  1.6061  0.1687 -1.6506
 7384TIP3   OH243566   4.188   3.213  14.835 -0.3223 -0.7076 -0.5187
 7384TIP3    H143567   4.224   3.174  14.756 -1.6600 -1.0953 -0.9603
 7384TIP3    H243568   4.265   3.244  14.884  0.4983  0.2404 -2.3027
 7385TIP3   OH243569   5.467   1.718  11.535  0.1472 -0.2001  0.0616
 7385TIP3    H143570   5.413   1.765  11.472 -0.4152  0.0340  0.7074
 7385TIP3    H243571   5.483   1.633  11.495 -0.7824 -0.3061 -0.0888
 7386TIP3   OH243572   5.223   4.960  12.685 -0.1709 -0.4019  0.4110
 7386TIP3    H143573   5.183   5.041  12.652 -1.3738  0.0114  2.6396
 7386TIP3    H243574   5.275   4.988  12.761 -0.8338 -1.7023  1.3907
 7387TIP3   OH243575   3.132   3.671   2.195 -0.4468  0.1082 -0.2504
 7387TIP3    H143576   3.091   3.753   2.222  3.2601  1.4854  2.0233
 7387TIP3    H243577   3.189   3.696   2.122  0.6165 -0.4093  0.3746
 7388TIP3   OH243578   5.605   1.388  17.025  0.0925  0.2414 -0.4221
 7388TIP3    H143579   5.554   1.400  16.944  1.5823  0.6157 -1.3519
 7388TIP3    H243580   5.540   1.374  17.093 -1.2012 -0.6623 -1.7882
 7389TIP3   OH243581   4.580   1.466   2.225  0.4829  0.0710 -0.6408
 7389TIP3    H143582   4.580   1.561   2.236 -1.4713  0.3753 -2.4744
 7389TIP3    H243583   4.595   1.453   2.131 -2.3926 -1.1784 -1.0462
 7390TIP3   OH243584   3.635   2.029   3.133  0.0673  0.3929  0.1493
 7390TIP3    H143585   3.550   2.032   3.090 -0.2258  2.1740  0.7661
 7390TIP3    H243586   3.696   2.001   3.064 -1.3168 -4.0025  0.4205
 7391TIP3   OH243587   2.913   4.943   5.931  0.1706  0.0780 -0.3955
 7391TIP3    H143588   2.890   5.008   5.997 -0.2835 -0.8013  0.3313
 7391TIP3    H243589   2.968   4.880   5.977 -1.8143 -1.6683 -0.2730
 7392TIP3   OH243590   0.260   1.934  10.555  0.1360  0.3517  0.3457
 7392TIP3    H143591   0.182   1.972  10.515  0.9347  1.5286 -0.1734
 7392TIP3    H243592   0.283   1.995  10.626 -0.5528 -1.0566  1.8381
 7393TIP3   OH243593   4.240   0.707   4.369  0.2312  0.1031  0.0747
 7393TIP3    H143594   4.316   0.755   4.338  0.4684 -1.1936 -1.4709
 7393TIP3    H243595   4.274   0.623   4.399 -0.4007  0.1384  0.9555
 7394TIP3   OH243596   1.695   4.297   2.834  0.3555 -0.6428 -0.3364
 7394TIP3    H143597   1.745   4.218   2.814  1.6096 -0.5933  2.1362
 7394TIP3    H243598   1.669   4.286   2.926  1.6557  2.3092  0.5032
 7395TIP3   OH243599   6.508   0.185   1.000 -0.0501 -0.5024  0.1200
 7395TIP3    H143600   6.451   0.138   0.939  0.5631 -1.4246  0.2424
 7395TIP3    H243601   6.452   0.204   1.075 -0.2532 -1.2364  0.1620
 7396TIP3   OH243602   2.430   3.392   3.252  1.1663  0.2110 -0.1894
 7396TIP3    H143603   2.336   3.408   3.251  0.8542 -1.3879 -1.7871
 7396TIP3    H243604   2.439   3.299   3.230  3.0916  0.1088  0.8201
 7397TIP3   OH243605   3.004   3.895   2.287 -0.3126  0.1156 -0.3689
 7397TIP3    H143606   2.996   3.987   2.263  2.5848  0.8835  1.1444
 7397TIP3    H243607   2.930   3.879   2.345 -1.6434  1.0468 -1.7364
 7398TIP3   OH243608   5.443   5.659   2.607  0.0164  0.3552  0.0778
 7398TIP3    H143609   5.495   5.737   2.624 -0.9767  0.8815  0.7513
 7398TIP3    H243610   5.456   5.604   2.684  1.1926 -0.4536 -0.6481
 7399TIP3   OH243611   1.492   3.640   4.484 -0.3171  0.4419 -0.0377
 7399TIP3    H143612   1.442   3.559   4.483  0.0560  0.1421 -2.7404
 7399TIP3    H243613   1.425   3.709   4.485 -0.6455  0.2707  3.7070
 7400TIP3   OH243614   5.055   6.211   4.093 -0.4515  0.0500 -0.5064
 7400TIP3    H143615   5.008   6.127   4.089  0.6269 -0.5374 -3.8045
 7400TIP3    H243616   5.143   6.188   4.122  0.1810 -0.2592 -2.4698
 7401TIP3   OH243617   4.982   0.444   3.344  0.9551 -0.3176  1.1670
 7401TIP3    H143618   5.019   0.365   3.385  1.9889 -0.9717 -0.8366
 7401TIP3    H243619   5.059   0.490   3.309  0.1344 -0.1657 -0.5351
 7402TIP3   OH243620   3.825   1.070  17.031 -0.6391 -0.3752  0.4838
 7402TIP3    H143621   3.883   1.042  16.960 -0.3815  1.6509 -0.1442
 7402TIP3    H243622   3.789   1.153  17.001  0.2526  1.0774  3.1630
 7403TIP3   OH243623   3.161   4.982  11.693 -0.3453 -0.3110  0.5007
 7403TIP3    H143624   3.194   4.912  11.750 -0.6473 -1.1342 -0.3025
 7403TIP3    H243625   3.237   5.011  11.643 -0.1193  0.2790  1.1804
 7404TIP3   OH243626   5.929   6.125  11.705 -0.5042 -0.1317 -0.5276
 7404TIP3    H143627   5.988   6.183  11.753  0.3120 -1.8220  0.6030
 7404TIP3    H243628   5.857   6.182  11.678  0.6114  1.5516 -0.1377
 7405TIP3   OH243629   5.888   1.416   4.602 -0.2740  0.2950 -0.0978
 7405TIP3    H143630   5.904   1.476   4.529 -0.5373  1.3742  0.7074
 7405TIP3    H243631   5.940   1.339   4.581  1.0867  1.2989 -0.5685
 7406TIP3   OH243632   4.566   2.477  12.173  0.3242  0.3607  0.1685
 7406TIP3    H143633   4.493   2.423  12.202 -0.0758  0.2239 -1.0303
 7406TIP3    H243634   4.640   2.417  12.165  0.0668  0.1234 -0.4619
 7407TIP3   OH243635   1.824   5.421  15.376  0.1470  0.5516 -0.2538
 7407TIP3    H143636   1.819   5.325  15.381  0.9292  0.5460  0.7799
 7407TIP3    H243637   1.762   5.451  15.443  0.2447  0.7660 -0.2602
 7408TIP3   OH243638   1.813   5.218   0.169 -0.6585  0.0115  0.0815
 7408TIP3    H143639   1.888   5.176   0.126  0.1674  1.2442  0.2643
 7408TIP3    H243640   1.737   5.170   0.137  0.2386 -1.7456  0.4320
 7409TIP3   OH243641   1.565   6.741   5.811 -0.0265 -0.1866  0.2716
 7409TIP3    H143642   1.626   6.750   5.884  0.2443  0.7551 -0.0637
 7409TIP3    H243643   1.556   6.646   5.799  1.6370 -0.3534  0.0969
 7410TIP3   OH243644   0.041   1.031  17.213  0.2945 -0.1018  0.1006
 7410TIP3    H143645  -0.052   1.012  17.204  0.0385  1.0252  0.2122
 7410TIP3    H243646   0.075   0.959  17.267 -0.6734 -0.0728  0.7817
 7411TIP3   OH243647   6.520   5.706   4.904 -0.7318  0.1974  0.0943
 7411TIP3    H143648   6.568   5.640   4.854  0.7121  0.3865  1.1735
 7411TIP3    H243649   6.449   5.732   4.846  0.7290  0.2394 -1.7784
 7412TIP3   OH243650   0.627   4.539   4.935 -0.3312  0.3066  0.5326
 7412TIP3    H143651   0.533   4.524   4.922 -0.0159 -1.5060  0.1655
 7412TIP3    H243652   0.653   4.594   4.861 -0.8472 -0.2670 -0.0794
 7413TIP3   OH243653   6.217   5.252  11.505  0.3940  0.0619 -0.0240
 7413TIP3    H143654   6.229   5.347  11.495  1.0984  0.3341  2.7401
 7413TIP3    H243655   6.129   5.236  11.472  0.6889  1.4354 -1.6600
 7414TIP3   OH243656   4.180   0.123  16.669  0.0520  0.4430  0.0726
 7414TIP3    H143657   4.098   0.076  16.683  0.3971  0.3056  1.9127
 7414TIP3    H243658   4.238   0.058  16.631 -0.6013  0.4673 -0.9926
 7415TIP3   OH243659   5.677   5.030   1.520  0.1839  0.4170  0.1728
 7415TIP3    H143660   5.698   4.939   1.541  0.5992  0.2988 -0.6897
 7415TIP3    H243661   5.710   5.081   1.593  0.9624 -0.0315  0.1423
 7416TIP3   OH243662   5.537   4.277  13.475  0.1748 -0.2593 -0.3846
 7416TIP3    H143663   5.613   4.326  13.506 -0.2636  0.8275 -0.9672
 7416TIP3    H243664   5.565   4.240  13.391 -0.6659  2.1708 -1.8152
 7417TIP3   OH243665   4.625   4.766   0.113 -0.2490 -0.0545  0.4708
 7417TIP3    H143666   4.557   4.828   0.141 -0.2530 -0.4030  1.2630
 7417TIP3    H243667   4.582   4.681   0.116  0.1904 -0.2654  0.8651
 7418TIP3   OH243668   3.476   2.676   3.125  0.1345 -0.0084 -0.1128
 7418TIP3    H143669   3.443   2.674   3.215  1.6397 -1.6595  0.4820
 7418TIP3    H243670   3.571   2.669   3.134  0.3153 -0.3343 -1.8391
 7419TIP3   OH243671   4.477   2.060  12.505 -0.5280 -0.1785  0.2380
 7419TIP3    H143672   4.537   2.002  12.551 -1.3751  0.2511  1.9804
 7419TIP3    H243673   4.523   2.143  12.500 -1.0562  0.2504  1.8881
 7420TIP3   OH243674   1.864   1.080  16.508  0.1009  0.3420 -0.3207
 7420TIP3    H143675   1.921   1.065  16.433 -0.6015 -3.7469 -0.2486
 7420TIP3    H243676   1.781   1.109  16.470  0.5215  0.8562 -0.8679
 7421TIP3   OH243677   1.187   0.697   5.293 -0.2468  0.2061 -0.2376
 7421TIP3    H143678   1.251   0.730   5.356 -0.4482  1.0750 -0.4707
 7421TIP3    H243679   1.111   0.672   5.347 -0.4457  1.0108 -0.1318
 7422TIP3   OH243680   1.314   1.159   0.222  0.4941 -0.3497 -0.0230
 7422TIP3    H143681   1.349   1.243   0.191  0.6863 -0.5539 -0.3614
 7422TIP3    H243682   1.311   1.104   0.145 -0.7633 -0.2857 -0.0354
 7423TIP3   OH243683   6.700   1.897   6.022  0.3030 -0.0338  0.0499
 7423TIP3    H143684   6.766   1.926   5.959  1.4639  0.1903  1.3194
 7423TIP3    H243685   6.635   1.967   6.023  0.7466  0.3921 -0.2188
 7424TIP3   OH243686   1.562   4.053  13.938 -0.1938  0.2065  0.1535
 7424TIP3    H143687   1.634   4.079  13.882 -0.6220 -2.6483 -1.9821
 7424TIP3    H243688   1.487   4.047  13.879 -1.2630 -0.5752  1.5321
 7425TIP3   OH243689   6.612   1.929  12.227 -0.6104 -0.3260  0.2250
 7425TIP3    H143690   6.526   1.893  12.249 -0.0444 -1.8504  0.0437
 7425TIP3    H243691   6.598   1.978  12.147 -1.5604  0.5233  0.8947
 7426TIP3   OH243692   6.393   4.941  15.978  0.1000  0.2576  0.3502
 7426TIP3    H143693   6.449   4.884  15.924 -0.7838 -2.0866  1.7683
 7426TIP3    H243694   6.361   4.884  16.048 -2.9292  1.8598  0.4260
 7427TIP3   OH243695   1.627   1.428   4.832  0.4505  0.3808  0.0636
 7427TIP3    H143696   1.575   1.453   4.756 -1.8474  0.8477  1.7033
 7427TIP3    H243697   1.715   1.462   4.813 -0.3840  1.6589 -1.7684
 7428TIP3   OH243698   4.071   6.430  11.372  0.2392  0.6246  0.1158
 7428TIP3    H143699   4.080   6.362  11.438  0.7994 -2.5053 -2.8917
 7428TIP3    H243700   4.159   6.439  11.334 -0.2112  1.6997 -0.7316
 7429TIP3   OH243701   3.170   0.469  16.385 -0.4132  0.3292  0.0846
 7429TIP3    H143702   3.113   0.443  16.457 -0.2580 -0.9037 -0.2232
 7429TIP3    H243703   3.127   0.545  16.346 -1.6395 -0.3406  0.1063
 7430TIP3   OH243704   1.047   6.647   2.109  0.1886 -0.3636 -0.1231
 7430TIP3    H143705   1.054   6.740   2.090  1.2233 -0.6689 -1.3672
 7430TIP3    H243706   1.030   6.643   2.203  1.0983  1.0589  0.1313
 7431TIP3   OH243707   4.408   1.721   5.162 -0.0066  0.5806  0.6883
 7431TIP3    H143708   4.313   1.736   5.163  0.3047  3.6842  3.7469
 7431TIP3    H243709   4.421   1.642   5.214 -0.8948  0.2349  0.4016
 7432TIP3   OH243710   5.907   0.765  13.406  0.1001  0.2552  0.4429
 7432TIP3    H143711   5.843   0.769  13.334 -1.0293  0.7525  1.4434
 7432TIP3    H243712   5.876   0.830  13.469  0.5995 -0.7563  1.7662
 7433TIP3   OH243713   3.969   6.640  13.528 -0.4631  0.0863 -0.4533
 7433TIP3    H143714   3.903   6.680  13.584 -2.6104  0.5118 -3.0378
 7433TIP3    H243715   3.998   6.562  13.575  0.5769  2.1877  2.7429
 7434TIP3   OH243716   5.758   6.613  11.285  0.8755 -0.3045 -0.2570
 7434TIP3    H143717   5.830   6.552  11.274  1.1776  0.0845 -0.4802
 7434TIP3    H243718   5.751   6.657  11.200  0.6510 -0.0486 -0.1083
 7435TIP3   OH243719   2.036   2.735  12.881  0.1628  0.6678  0.0366
 7435TIP3    H143720   2.062   2.643  12.874 -1.4618  0.2058 -0.4367
 7435TIP3    H243721   2.007   2.745  12.972 -0.5366  0.4340 -0.1489
 7436TIP3   OH243722   6.091   2.375   4.707 -0.0475  0.1359  0.1323
 7436TIP3    H143723   6.147   2.333   4.771  0.5967  0.8339  0.0415
 7436TIP3    H243724   6.145   2.381   4.628 -1.0077 -1.2104 -0.6661
 7437TIP3   OH243725   4.230   4.751   5.850 -0.1683 -0.0554  0.6848
 7437TIP3    H143726   4.168   4.815   5.814  1.7476  1.5261 -0.0400
 7437TIP3    H243727   4.182   4.669   5.852 -2.4984  1.2315  0.8874
 7438TIP3   OH243728   4.123   5.449   3.469  0.0434  0.2911  0.0813
 7438TIP3    H143729   4.111   5.354   3.469  1.5273  0.0662 -1.0192
 7438TIP3    H243730   4.217   5.461   3.462 -0.1597  1.8491 -0.3351
 7439TIP3   OH243731   0.271   0.444  14.270  0.3251  0.6062 -0.3762
 7439TIP3    H143732   0.182   0.474  14.286  1.4110  3.0288  2.0221
 7439TIP3    H243733   0.316   0.520  14.234  2.0894  0.4538  1.3190
 7440TIP3   OH243734   4.740   4.846  13.553  0.1881 -0.5913 -0.1411
 7440TIP3    H143735   4.689   4.774  13.589  1.1191 -0.7801  0.8696
 7440TIP3    H243736   4.711   4.854  13.463 -0.7065 -1.5154  0.0539
 7441TIP3   OH243737   5.930   1.833   0.898 -0.5510  0.4086  0.4046
 7441TIP3    H143738   6.007   1.784   0.871 -0.8283  0.6271 -0.8884
 7441TIP3    H243739   5.960   1.924   0.903 -0.6253  0.4416  0.2711
 7442TIP3   OH243740   4.112   2.829  17.063 -0.1730  0.2549  0.2532
 7442TIP3    H143741   4.192   2.776  17.062 -0.2901  0.0392  1.3994
 7442TIP3    H243742   4.057   2.790  16.995  0.8471  0.6785 -0.8688
 7443TIP3   OH243743   0.785   3.692  11.200  0.0114  0.1484 -0.1410
 7443TIP3    H143744   0.834   3.636  11.260 -0.7657 -0.3608  0.0254
 7443TIP3    H243745   0.721   3.634  11.160 -0.9344  0.9413  0.1780
 7444TIP3   OH243746   4.096   5.608  16.227 -0.0224 -0.2712  0.1797
 7444TIP3    H143747   4.032   5.600  16.157  0.3319 -0.6759 -0.1031
 7444TIP3    H243748   4.046   5.597  16.308 -1.1051  3.5784  0.2397
 7445TIP3   OH243749   2.484   0.434   2.356  0.0431  0.4471 -0.1623
 7445TIP3    H143750   2.565   0.406   2.399 -0.4761 -0.2894  0.3449
 7445TIP3    H243751   2.513   0.498   2.291  0.8721  1.3826  1.0810
 7446TIP3   OH243752   0.703   0.323  11.785  0.1670 -0.3988  0.3527
 7446TIP3    H143753   0.761   0.389  11.823  1.2410 -1.3107  0.3328
 7446TIP3    H243754   0.677   0.360  11.701 -1.4567  1.2076  1.4781
 7447TIP3   OH243755   0.406   6.553  13.302 -0.0836  0.4306 -0.1245
 7447TIP3    H143756   0.477   6.500  13.268  1.1593  2.2437 -0.5220
 7447TIP3    H243757   0.354   6.493  13.355  0.7826 -1.3226 -1.1693
 7448TIP3   OH243758   2.694   3.995  16.814 -0.7312 -0.3605 -0.4177
 7448TIP3    H143759   2.649   4.062  16.762  0.5409  1.1037  0.2975
 7448TIP3    H243760   2.778   3.982  16.770 -0.0391  0.1948  0.6966
 7449TIP3   OH243761   3.430   0.125  11.866  0.1160 -0.0356  0.4018
 7449TIP3    H143762   3.416   0.119  11.771  0.9049 -1.8579  0.3631
 7449TIP3    H243763   3.438   0.034  11.895  1.0428  0.5352  2.0519
 7450TIP3   OH243764   2.258   1.881  16.116  0.1303 -0.2845 -0.6440
 7450TIP3    H143765   2.197   1.919  16.052  0.3784  0.1968 -0.5984
 7450TIP3    H243766   2.255   1.787  16.099  0.1624 -0.1651 -1.3380
 7451TIP3   OH243767   3.984   1.222  14.967  0.4302  0.5215 -0.0608
 7451TIP3    H143768   3.956   1.267  14.887 -1.2259 -0.7972 -0.2987
 7451TIP3    H243769   3.907   1.226  15.024  1.2815  0.6294  1.0945
 7452TIP3   OH243770   1.003   2.963  16.754  0.0753 -0.3532 -0.2577
 7452TIP3    H143771   0.974   2.996  16.840 -0.3609 -0.3262 -0.4145
 7452TIP3    H243772   1.086   3.008  16.739  0.0646 -0.2173  0.0681
 7453TIP3   OH243773   1.144   2.626   3.495 -0.2197 -0.1253  0.4476
 7453TIP3    H143774   1.167   2.624   3.402  0.4040 -2.5172  0.5836
 7453TIP3    H243775   1.051   2.648   3.497 -0.5417 -1.3015 -0.8340
 7454TIP3   OH243776   0.682   4.319   5.540  0.1394  0.5201 -0.4952
 7454TIP3    H143777   0.671   4.235   5.585 -2.1567  1.6742  1.3122
 7454TIP3    H243778   0.648   4.303   5.452 -1.5566 -0.1437  0.2314
 7455TIP3   OH243779   2.131   5.917  15.578  0.0186  0.1519 -0.0788
 7455TIP3    H143780   2.055   5.935  15.523  1.0803  2.0391 -0.9699
 7455TIP3    H243781   2.102   5.941  15.666 -0.0555  2.0176 -0.5890
 7456TIP3   OH243782   5.318   2.231   3.756  0.1981  0.0771  0.5750
 7456TIP3    H143783   5.270   2.280   3.823  0.3720 -1.0496  1.5534
 7456TIP3    H243784   5.257   2.165   3.725  0.6592 -0.4781  0.8331
 7457TIP3   OH243785   3.940   2.142  15.654  0.2428  0.1241  0.2770
 7457TIP3    H143786   3.889   2.216  15.687 -0.1807  0.6963 -1.5498
 7457TIP3    H243787   4.030   2.175  15.650 -0.0742  0.9154 -1.3854
 7458TIP3   OH243788   0.725   3.709  15.011  0.0787  0.1897  0.0944
 7458TIP3    H143789   0.712   3.720  14.917  0.4610  1.3514  0.1690
 7458TIP3    H243790   0.655   3.761  15.051 -0.0764 -0.2902  0.4673
 7459TIP3   OH243791   2.934   6.224  14.871 -0.0785 -0.1241 -0.1230
 7459TIP3    H143792   3.019   6.182  14.880  0.7598  1.7224  0.8950
 7459TIP3    H243793   2.912   6.214  14.778  2.7993  2.1654 -1.1987
 7460TIP3   OH243794   5.130   5.217  12.570  0.2100 -0.3751  0.6452
 7460TIP3    H143795   5.039   5.234  12.544  0.5550  0.6621  0.0707
 7460TIP3    H243796   5.149   5.286  12.635 -0.1617 -2.0296  2.6250
 7461TIP3   OH243797   0.635   3.834  13.175  0.3127 -0.3153  0.0359
 7461TIP3    H143798   0.703   3.846  13.108  1.9625  1.4734  1.8854
 7461TIP3    H243799   0.640   3.742  13.199  2.2233 -0.1961  0.2186
 7462TIP3   OH243800   5.211   2.641  15.103 -0.0622  0.2016 -0.6110
 7462TIP3    H143801   5.290   2.655  15.156 -0.1929  0.3520 -0.4571
 7462TIP3    H243802   5.190   2.727  15.068 -1.1509  0.5182  0.7302
 7463TIP3   OH243803   2.247   0.023   3.266 -0.2183  0.7628  0.4037
 7463TIP3    H143804   2.343   0.016   3.261 -0.2454 -1.5716  1.9680
 7463TIP3    H243805   2.228   0.030   3.359 -1.5868  2.1838  0.0664
 7464TIP3   OH243806   5.015   2.956   5.924 -0.6237 -0.5711  0.3345
 7464TIP3    H143807   5.008   2.865   5.896 -2.9407 -0.4118  0.2217
 7464TIP3    H243808   4.933   2.974   5.969 -0.9655  1.9188 -1.0941
 7465TIP3   OH243809   2.444   5.382   3.783 -0.4935 -0.5418 -0.1446
 7465TIP3    H143810   2.498   5.308   3.813 -0.4042 -1.0451 -1.5048
 7465TIP3    H243811   2.460   5.386   3.689  0.5517  2.0759  0.0734
 7466TIP3   OH243812   5.481   4.128  16.484 -0.1369  0.3716  0.0910
 7466TIP3    H143813   5.506   4.220  16.475  0.5081  0.2099  0.1159
 7466TIP3    H243814   5.486   4.111  16.578  0.3653  0.1524  0.0288
 7467TIP3   OH243815   3.037   2.023   6.279 -0.0985  0.0121  0.2523
 7467TIP3    H143816   2.958   1.988   6.318 -0.1644 -0.9750 -0.7153
 7467TIP3    H243817   3.065   2.093   6.339  0.6323 -2.3342  2.8953
 7468TIP3   OH243818   0.629   6.057   2.565  0.6752  0.8350  1.0573
 7468TIP3    H143819   0.557   6.094   2.513  1.4253 -1.1598 -1.6334
 7468TIP3    H243820   0.684   6.132   2.587 -0.2678  1.9155 -0.1358
 7469TIP3   OH243821   3.084   2.211  16.789  0.3313  0.6678 -0.1487
 7469TIP3    H143822   3.108   2.128  16.831 -1.2257 -0.1669 -0.8471
 7469TIP3    H243823   3.070   2.271  16.862  0.1334 -0.0630  0.4247
 7470TIP3   OH243824   1.963   5.664  14.832 -0.4180  0.3754 -0.1050
 7470TIP3    H143825   2.054   5.637  14.843 -0.1183  1.0430 -0.8774
 7470TIP3    H243826   1.968   5.747  14.784 -1.4417  0.2312 -0.4837
 7471TIP3   OH243827   0.450   3.802   5.733  0.1761 -0.0404 -0.2123
 7471TIP3    H143828   0.429   3.860   5.661 -1.9874 -1.9561 -1.2596
 7471TIP3    H243829   0.535   3.833   5.765  0.1241  2.2856 -2.0529
 7472TIP3   OH243830   5.768   3.633   4.241 -0.0910 -0.6489  0.1398
 7472TIP3    H143831   5.825   3.681   4.300 -0.3557  0.2085 -0.2854
 7472TIP3    H243832   5.722   3.571   4.297  1.1246 -1.2551  0.5171
 7473TIP3   OH243833   4.290   0.880   5.502  0.3622  0.2905 -0.2153
 7473TIP3    H143834   4.269   0.839   5.586 -2.6352  2.6297  0.3612
 7473TIP3    H243835   4.348   0.953   5.525  0.4601  0.2446 -0.3191
 7474TIP3   OH243836   4.553   5.985   2.362  0.0028  0.3225 -0.6407
 7474TIP3    H143837   4.551   5.982   2.266 -2.7516  0.3480 -0.6704
 7474TIP3    H243838   4.503   5.908   2.389 -0.1791  0.9039  0.7511
 7475TIP3   OH243839   0.517   4.664  11.764 -0.4995 -0.4212 -0.0675
 7475TIP3    H143840   0.518   4.681  11.858 -2.1216 -1.7140  0.2161
 7475TIP3    H243841   0.575   4.589  11.752  1.0964  0.8068 -0.3783
 7476TIP3   OH243842   6.517   0.942   5.598  0.0478 -0.3671  0.0738
 7476TIP3    H143843   6.461   0.882   5.647 -0.2475 -0.6045 -0.5339
 7476TIP3    H243844   6.575   0.885   5.547 -2.3170 -0.3363 -2.9878
 7477TIP3   OH243845   6.192   0.453  13.745  0.7611 -0.7045  0.1246
 7477TIP3    H143846   6.180   0.489  13.657 -3.4523  0.0804  0.8256
 7477TIP3    H243847   6.232   0.525  13.794  0.2435 -0.0078 -0.4489
 7478TIP3   OH243848   2.569   6.085   4.897  0.4504  0.2213 -0.3379
 7478TIP3    H143849   2.536   6.007   4.853  0.5121 -0.0128  0.0238
 7478TIP3    H243850   2.538   6.077   4.987  1.2287  0.1507 -0.0670
 7479TIP3   OH243851   0.255   0.898  16.967  0.1931 -0.8293 -0.1575
 7479TIP3    H143852   0.172   0.860  16.996  0.2609  0.1173  1.3718
 7479TIP3    H243853   0.268   0.863  16.879 -2.0291 -0.6721 -0.6028
 7480TIP3   OH243854   0.102   6.017   0.312  0.3625  0.2053  0.1431
 7480TIP3    H143855   0.080   6.082   0.379 -0.5531 -0.7861  0.8457
 7480TIP3    H243856   0.193   5.995   0.328  0.5499  0.9798  0.1792
 7481TIP3   OH243857   4.282   6.632  14.514  0.2621 -0.4080 -0.2623
 7481TIP3    H143858   4.282   6.626  14.419  0.0007 -0.4749 -0.2596
 7481TIP3    H243859   4.321   6.718  14.533  3.4641 -1.7140 -0.3130
 7482TIP3   OH243860   0.678   6.065  11.803 -0.3921  0.2663  0.1670
 7482TIP3    H143861   0.765   6.074  11.842 -0.0459  0.5786 -0.6660
 7482TIP3    H243862   0.655   6.153  11.775  0.0827 -0.2078 -1.8396
 7483TIP3   OH243863   0.932   4.018   5.853  0.3092 -0.0061 -0.3674
 7483TIP3    H143864   0.941   4.111   5.836 -1.8038  0.5052  0.9766
 7483TIP3    H243865   0.988   4.002   5.929  1.3034 -0.0342 -1.0891
 7484TIP3   OH243866   3.184   3.367  13.210 -0.3619  0.4194  0.2123
 7484TIP3    H143867   3.143   3.349  13.125 -1.0389  1.1279  0.3675
 7484TIP3    H243868   3.235   3.289  13.230 -0.7981 -0.0577 -0.4984
 7485TIP3   OH243869   4.785   5.356   1.144  0.6817 -0.0391 -0.2987
 7485TIP3    H143870   4.869   5.400   1.154  0.2838  0.4908  0.9826
 7485TIP3    H243871   4.724   5.425   1.119  0.0248  0.2305  1.8637
 7486TIP3   OH243872   0.884   4.720  11.929 -0.0300  0.4000 -0.6757
 7486TIP3    H143873   0.894   4.693  11.838 -1.4122 -2.2449 -0.1177
 7486TIP3    H243874   0.802   4.770  11.931 -1.1489 -1.3633 -0.5815
 7487TIP3   OH243875   3.281   4.242  16.527  0.8228 -0.0743 -0.8721
 7487TIP3    H143876   3.326   4.316  16.568 -0.0668  0.4091 -0.7386
 7487TIP3    H243877   3.343   4.210  16.461  0.8482  1.3792 -1.5800
 7488TIP3   OH243878   6.106   0.011   4.584  0.0837 -0.0076 -0.5026
 7488TIP3    H143879   6.173  -0.030   4.639  0.4154 -2.9029 -2.8568
 7488TIP3    H243880   6.045  -0.060   4.563 -1.6411  1.6841 -1.5303
 7489TIP3   OH243881   1.584   3.492   3.404 -0.4742  0.6051  0.1041
 7489TIP3    H143882   1.492   3.472   3.386 -0.2506  1.3345 -2.1236
 7489TIP3    H243883   1.630   3.410   3.385 -0.6391  0.2212  1.2803
 7490TIP3   OH243884   2.745   3.795  10.281  0.3575 -0.0622  0.0705
 7490TIP3    H143885   2.791   3.813  10.363  1.5865 -0.2149 -0.5595
 7490TIP3    H243886   2.736   3.881  10.239  1.2404 -0.1802 -0.3876
 7491TIP3   OH243887   2.709   1.082  15.399  0.0344 -0.1365  0.2024
 7491TIP3    H143888   2.675   0.997  15.372 -1.2734  0.8795 -1.5517
 7491TIP3    H243889   2.754   1.116  15.321 -1.6557  1.8119 -0.0082
 7492TIP3   OH243890   2.501   3.892  14.778  0.5793  0.2989 -0.0234
 7492TIP3    H143891   2.492   3.979  14.739  1.9089  0.7605  0.6567
 7492TIP3    H243892   2.530   3.908  14.868 -0.3900 -0.8192  0.5209
 7493TIP3   OH243893   6.186   1.863  14.839  0.4933  1.1314  0.0788
 7493TIP3    H143894   6.191   1.844  14.745  4.0168  1.5393  0.0223
 7493TIP3    H243895   6.170   1.957  14.843 -2.1173  0.7563  0.0303
 7494TIP3   OH243896   6.686   1.798  10.682 -0.0018 -0.2926 -0.0614
 7494TIP3    H143897   6.681   1.843  10.766 -1.6140 -0.6523  0.0574
 7494TIP3    H243898   6.634   1.853  10.622  0.0231 -0.7354 -0.4992
 7495TIP3   OH243899   0.442   1.920  15.751  0.0016 -0.4338 -0.0383
 7495TIP3    H143900   0.532   1.889  15.738 -0.5380 -2.3762  0.5797
 7495TIP3    H243901   0.449   1.990  15.816  0.9839 -1.0424  0.5229
 7496TIP3   OH243902   3.646   2.544   6.227 -0.1669  0.2905  0.9221
 7496TIP3    H143903   3.623   2.493   6.305  2.1772  1.7443  2.6986
 7496TIP3    H243904   3.653   2.480   6.157  0.6039 -1.5384  2.5944
 7497TIP3   OH243905   6.554   1.629  12.297 -0.0187 -0.0600 -0.5440
 7497TIP3    H143906   6.487   1.696  12.282 -0.2443  0.0382  0.7995
 7497TIP3    H243907   6.536   1.596  12.385  1.1787 -0.6378 -0.4966
 7498TIP3   OH243908   6.002   1.188  13.441  0.5401  0.2593 -0.3392
 7498TIP3    H143909   5.967   1.154  13.524  0.1150  2.1638  0.3281
 7498TIP3    H243910   6.002   1.113  13.383 -0.1508 -0.9100  1.0859
 7499TIP3   OH243911   1.719   3.109   6.559  0.3458 -0.3967 -0.0241
 7499TIP3    H143912   1.765   3.128   6.641  0.0928  0.5474 -0.0939
 7499TIP3    H243913   1.646   3.053   6.586 -0.2759  0.6556  0.5546
 7500TIP3   OH243914   2.001   0.040  12.749  0.4353 -0.1685 -0.4902
 7500TIP3    H143915   2.063  -0.017  12.794  0.4389  0.4217  0.2683
 7500TIP3    H243916   1.920  -0.010  12.746  0.1501  0.1638  1.0802
 7501TIP3   OH243917   3.437   0.825   3.556 -0.5462  0.5556 -0.3564
 7501TIP3    H143918   3.400   0.833   3.467 -2.4812  1.9372  0.5014
 7501TIP3    H243919   3.407   0.740   3.587 -1.8700  1.0559 -0.2075
 7502TIP3   OH243920   6.365   0.884   1.298 -0.1223  0.5516  0.1351
 7502TIP3    H143921   6.281   0.887   1.254 -0.7390  1.6085  1.3046
 7502TIP3    H243922   6.368   0.966   1.348  1.4674  0.3920  0.3528
 7503TIP3   OH243923   4.719   3.987   3.271 -0.2730 -0.1946  0.0755
 7503TIP3    H143924   4.792   3.994   3.332  1.0654 -0.9321 -1.3481
 7503TIP3    H243925   4.753   4.022   3.189 -2.9090  3.4753  0.3209
 7504TIP3   OH243926   1.574   0.570   3.408 -0.2237 -0.1927 -0.1485
 7504TIP3    H143927   1.586   0.664   3.391  0.8649  0.1072  1.9919
 7504TIP3    H243928   1.479   0.557   3.403 -0.4535  1.1814  0.1922
 7505TIP3   OH243929   5.865   1.979  11.102 -0.0121 -0.4158 -0.1508
 7505TIP3    H143930   5.835   1.907  11.048  0.9678 -1.2840  0.4225
 7505TIP3    H243931   5.893   2.046  11.039 -1.0216 -0.4829 -0.6840
 7506TIP3   OH243932   0.553   2.966   3.316  1.0244 -0.0601  0.3950
 7506TIP3    H143933   0.530   2.894   3.257 -1.1717  0.6879  0.2354
 7506TIP3    H243934   0.599   3.029   3.261 -0.8419  0.5455 -0.5711
 7507TIP3   OH243935   0.393   6.142   2.057  0.0057 -0.2707  0.3116
 7507TIP3    H143936   0.485   6.165   2.065 -0.4730  1.2359  2.6315
 7507TIP3    H243937   0.383   6.062   2.108  0.0946 -0.7230 -0.3661
 7508TIP3   OH243938   2.793   5.905   3.057 -0.5321  0.1949  0.1569
 7508TIP3    H143939   2.832   5.990   3.037  0.8508 -0.7985 -1.6194
 7508TIP3    H243940   2.707   5.926   3.094 -0.0733  2.3470  0.1157
 7509TIP3   OH243941   3.937   0.830  12.486 -0.1389 -0.2497 -0.0594
 7509TIP3    H143942   4.021   0.821  12.441  1.0559 -0.5477  2.0820
 7509TIP3    H243943   3.957   0.811  12.578 -2.8196 -1.7539  0.3373
 7510TIP3   OH243944   4.474   0.558   3.162  0.4511  0.9546 -0.4474
 7510TIP3    H143945   4.543   0.625   3.165  1.2500  0.1373  0.0140
 7510TIP3    H243946   4.496   0.505   3.085 -0.4481  1.4834 -1.0865
 7511TIP3   OH243947   0.708   4.560   6.706 -0.2634  0.3118  0.4087
 7511TIP3    H143948   0.624   4.597   6.679 -0.2748  0.3175  0.4516
 7511TIP3    H243949   0.737   4.616   6.778 -1.2765 -0.9753  1.8877
 7512TIP3   OH243950   1.675   5.911   6.185 -0.4835 -0.1673  0.9180
 7512TIP3    H143951   1.600   5.861   6.217 -0.6012 -1.4014 -1.0551
 7512TIP3    H243952   1.636   5.980   6.130 -0.2193 -0.3860  0.4459
 7513TIP3   OH243953   4.224   5.791   4.761 -0.6010  0.0642 -0.5209
 7513TIP3    H143954   4.279   5.802   4.683  0.3612 -0.5886  0.0403
 7513TIP3    H243955   4.185   5.877   4.775  1.4219  1.0015 -0.1223
 7514TIP3   OH243956   0.629   5.646   2.330 -0.0222 -0.1686  0.0620
 7514TIP3    H143957   0.541   5.637   2.294  0.0476 -0.0915 -0.1298
 7514TIP3    H243958   0.616   5.682   2.417 -0.0473  2.5570 -0.9855
 7515TIP3   OH243959   0.823   6.183  12.779  0.0742  0.0808  0.0429
 7515TIP3    H143960   0.788   6.259  12.825 -1.5780 -0.4604 -0.2416
 7515TIP3    H243961   0.862   6.219  12.699 -1.1736  0.6263 -0.3581
 7516TIP3   OH243962   3.439   2.716  15.110 -0.1590 -0.0533 -0.1584
 7516TIP3    H143963   3.368   2.745  15.053 -0.4841 -0.9306 -0.2245
 7516TIP3    H243964   3.482   2.647  15.059  0.1429 -0.1811  0.2715
 7517TIP3   OH243965   6.555   3.887   4.942 -0.2893  0.5109 -0.3450
 7517TIP3    H143966   6.599   3.803   4.954  0.2913  1.0356  1.4499
 7517TIP3    H243967   6.470   3.864   4.903  0.6127 -0.7071 -1.7338
 7518TIP3   OH243968   1.309   1.038  11.148  0.4473 -0.4248  0.2693
 7518TIP3    H143969   1.352   1.123  11.160 -1.1093  0.2530  1.3456
 7518TIP3    H243970   1.261   1.047  11.065  0.9897 -0.5856 -0.0683
 7519TIP3   OH243971   1.434   0.669   0.665  0.4254  1.1287  0.7012
 7519TIP3    H143972   1.475   0.597   0.618  2.0019  0.6577  2.6871
 7519TIP3    H243973   1.357   0.630   0.707  1.1878  0.6153  1.6423
 7520TIP3   OH243974   5.059   2.032  15.126  0.5316  0.3271 -0.0795
 7520TIP3    H143975   5.083   1.942  15.104  0.1131  0.6153 -1.8657
 7520TIP3    H243976   4.964   2.033  15.124  0.5401  0.8768 -0.3891
 7521TIP3   OH243977   0.507   5.612   4.066 -0.5159  0.2406 -0.2683
 7521TIP3    H143978   0.537   5.696   4.031  0.6359  0.0177  0.1340
 7521TIP3    H243979   0.588   5.564   4.086 -1.1107  0.0494  1.9369
 7522TIP3   OH243980   3.690   4.186   0.403 -0.1094  0.6184 -0.5736
 7522TIP3    H143981   3.782   4.213   0.404  0.3294 -0.7584  1.0745
 7522TIP3    H243982   3.657   4.211   0.489 -0.6602 -0.8147 -0.3489
 7523TIP3   OH243983   4.873   5.498  12.344  0.4049  0.3737 -0.5031
 7523TIP3    H143984   4.810   5.567  12.325  1.6738  1.1484 -2.0964
 7523TIP3    H243985   4.951   5.544  12.375 -0.2488 -0.6499  3.1324
 7524TIP3   OH243986   1.530   3.188  14.461 -0.2578 -0.2865 -0.0977
 7524TIP3    H143987   1.621   3.182  14.489 -0.0906  0.6398 -0.4205
 7524TIP3    H243988   1.534   3.217  14.370 -0.8349 -2.1500 -0.7664
 7525TIP3   OH243989   5.281   3.225   4.909 -0.0739  0.3094  0.1168
 7525TIP3    H143990   5.282   3.284   4.985  0.9858  1.0540 -0.4455
 7525TIP3    H243991   5.293   3.138   4.946  1.7141  0.7798  0.7421
 7526TIP3   OH243992   2.539   0.564   3.224  0.2061  0.1475  0.7218
 7526TIP3    H143993   2.461   0.512   3.244  1.7080 -1.9636  1.3891
 7526TIP3    H243994   2.536   0.636   3.287 -1.7708  0.7901 -0.0305
 7527TIP3   OH243995   3.547   5.467  14.772 -0.1274  0.1734  0.3794
 7527TIP3    H143996   3.478   5.533  14.765 -0.8654 -0.6800 -0.6206
 7527TIP3    H243997   3.589   5.467  14.686 -1.0316 -1.5794 -0.1255
 7528TIP3   OH243998   0.408   5.919  15.082  0.2046  0.5048 -0.4631
 7528TIP3    H143999   0.495   5.900  15.048 -0.0416 -0.4965 -0.5701
 7528TIP3    H244000   0.394   5.853  15.150 -0.3429  0.8502 -0.2370
 7529TIP3   OH244001   3.726   3.601  14.578 -0.1801  0.1549 -0.2300
 7529TIP3    H144002   3.658   3.636  14.520  0.7975  4.1593  0.7456
 7529TIP3    H244003   3.770   3.535  14.526 -1.3829  1.3121 -2.9047
 7530TIP3   OH244004   4.508   6.083  12.188 -0.3095  0.0450  0.2015
 7530TIP3    H144005   4.594   6.053  12.217 -0.5330 -0.2943  0.5219
 7530TIP3    H244006   4.511   6.178  12.198  0.3257  0.1281 -0.6044
 7531TIP3   OH244007   3.357   5.456   2.974 -0.2481  0.4506 -0.2430
 7531TIP3    H144008   3.363   5.399   2.898 -2.2587  0.7769 -0.7054
 7531TIP3    H244009   3.335   5.542   2.939  1.6174  1.2821  0.5314
 7532TIP3   OH244010   5.051   1.604  14.944  0.4430  0.0024 -0.1041
 7532TIP3    H144011   4.984   1.584  15.009  0.6138  0.2051  0.1330
 7532TIP3    H244012   5.091   1.518  14.924 -1.9093 -0.6723 -2.5212
 7533TIP3   OH244013   1.425   6.278  13.283 -0.7900 -0.5573 -0.1884
 7533TIP3    H144014   1.380   6.196  13.302 -2.7019  0.7283  1.3733
 7533TIP3    H244015   1.361   6.328  13.231 -0.4469  0.6402  0.5088
 7534TIP3   OH244016   0.456   3.767  16.662  0.2706 -0.0122  0.4376
 7534TIP3    H144017   0.391   3.711  16.619 -0.1027  0.1561  0.7764
 7534TIP3    H244018   0.505   3.708  16.719  1.7500 -0.5297 -1.2801
 7535TIP3   OH244019   6.137   0.291   2.691  0.3808  0.5813 -0.3933
 7535TIP3    H144020   6.192   0.369   2.687 -1.0123  1.5598 -1.8051
 7535TIP3    H244021   6.093   0.289   2.606 -2.8599  0.7268  1.1284
 7536TIP3   OH244022   0.925   5.478  16.899  0.1740  0.0815 -0.1005
 7536TIP3    H144023   0.972   5.502  16.820  3.1864 -0.7482  1.3140
 7536TIP3    H244024   0.838   5.516  16.887 -0.0006 -1.1769 -4.3463
 7537TIP3   OH244025   1.074   2.286   6.271  0.0564 -0.0418 -0.2930
 7537TIP3    H144026   1.088   2.237   6.352  1.5295 -0.0767 -0.5427
 7537TIP3    H244027   1.031   2.224   6.212  0.1517 -0.4179  0.0309
 7538TIP3   OH244028   2.682   1.291  12.973  0.2248 -0.0605 -0.4430
 7538TIP3    H144029   2.611   1.299  13.036  0.7149  2.3083 -0.0933
 7538TIP3    H244030   2.659   1.352  12.903  2.0049  0.9646 -0.1936
 7539TIP3   OH244031   2.475   3.781  12.156 -0.6074 -0.3951  0.7719
 7539TIP3    H144032   2.540   3.827  12.208 -0.6784 -0.5149  0.9649
 7539TIP3    H244033   2.445   3.710  12.211  0.0519 -1.1364  0.1975
 7540TIP3   OH244034   2.402   0.309   5.206 -0.2027  0.5618  0.3532
 7540TIP3    H144035   2.407   0.243   5.275  0.0188  1.1726  0.9281
 7540TIP3    H244036   2.475   0.368   5.223 -0.8345  1.3836  0.2979
 7541TIP3   OH244037   1.699   2.683  14.187  0.2127 -0.2551  0.0641
 7541TIP3    H144038   1.698   2.755  14.250  2.7111  0.4144 -0.5576
 7541TIP3    H244039   1.642   2.712  14.116  0.9228  1.0122 -0.0168
 7542TIP3   OH244040   4.006   2.267   3.483  0.1828 -0.6186 -0.2195
 7542TIP3    H144041   3.927   2.232   3.442 -1.3820 -0.1417  2.1711
 7542TIP3    H244042   4.004   2.361   3.463 -2.5688  0.3674  3.5507
 7543TIP3   OH244043   2.483   6.393   2.487  0.0170 -0.2889 -0.4536
 7543TIP3    H144044   2.528   6.474   2.512 -1.4149  0.6106 -0.6494
 7543TIP3    H244045   2.532   6.323   2.530  0.3153  0.8264  1.0904
 7544TIP3   OH244046   1.398   5.422  15.094 -0.0593  0.3375  0.1881
 7544TIP3    H144047   1.483   5.448  15.060 -0.0103  0.0078  0.0608
 7544TIP3    H244048   1.401   5.446  15.187  0.1382  0.4042  0.1637
 7545TIP3   OH244049   6.336   2.162   1.046 -0.0181 -0.3212  0.1473
 7545TIP3    H144050   6.373   2.228   0.987  2.4552 -0.0698  1.8127
 7545TIP3    H244051   6.324   2.208   1.129 -2.6006 -0.8845  0.1624
 7546TIP3   OH244052   1.590   0.772  14.364 -0.2719  0.2425  0.8830
 7546TIP3    H144053   1.556   0.736  14.282  0.8673  2.0292 -0.4457
 7546TIP3    H244054   1.514   0.815  14.404 -0.5186  0.6421  0.0027
 7547TIP3   OH244055   6.597   6.114  16.818  0.1692  0.3807  0.7825
 7547TIP3    H144056   6.645   6.135  16.898  1.2235 -0.2436  0.3286
 7547TIP3    H244057   6.652   6.147  16.747 -0.4634  0.3872  0.2807
 7548TIP3   OH244058   2.252   6.364   4.407  0.8305 -0.2350 -0.7293
 7548TIP3    H144059   2.171   6.320   4.435  0.5223 -0.1761 -1.5233
 7548TIP3    H244060   2.251   6.447   4.455 -0.4551  0.5260 -2.0086
 7549TIP3   OH244061   5.596   4.792  17.274 -0.3107  0.0927 -0.2562
 7549TIP3    H144062   5.525   4.833  17.225 -0.0152  0.2576 -0.5522
 7549TIP3    H244063   5.574   4.808  17.366 -0.6550  0.1439 -0.3461
 7550TIP3   OH244064   5.487   6.398  12.146 -0.4793 -0.0234  0.1078
 7550TIP3    H144065   5.464   6.306  12.138 -0.1427  0.0534 -2.4777
 7550TIP3    H244066   5.583   6.399  12.147 -0.3536  0.3741 -2.9560
 7551TIP3   OH244067   3.496   6.745  16.111 -0.4425 -0.2401 -0.2298
 7551TIP3    H144068   3.521   6.660  16.149  0.4206 -0.0396 -0.3454
 7551TIP3    H244069   3.575   6.798  16.116 -1.3192  1.0348  1.1064
 7552TIP3   OH244070   1.269   3.296   3.919  0.1416 -0.1864 -0.5801
 7552TIP3    H144071   1.264   3.337   4.006 -1.0107 -1.7101  0.1379
 7552TIP3    H244072   1.188   3.321   3.876 -0.2840 -1.1390 -0.3695
 7553TIP3   OH244073   0.900   4.285   1.518 -0.0937  0.1482  0.0964
 7553TIP3    H144074   0.983   4.320   1.552 -0.0539  1.8943 -1.5800
 7553TIP3    H244075   0.922   4.255   1.429 -0.7483 -1.7462  0.5379
 7554TIP3   OH244076   5.144   1.504  17.112  0.2493 -0.5256 -0.0292
 7554TIP3    H144077   5.221   1.482  17.165  0.4783  1.4938  0.5436
 7554TIP3    H244078   5.167   1.473  17.025  2.6753  1.8231 -0.3712
 7555TIP3   OH244079   0.314   2.584   3.800  0.2018  0.3268 -0.0404
 7555TIP3    H144080   0.266   2.632   3.733  0.0958 -1.4909 -1.3674
 7555TIP3    H244081   0.315   2.642   3.876 -2.1283  1.3448 -0.6934
 7556TIP3   OH244082   6.482   6.172  13.297  0.0459 -0.1074  0.5259
 7556TIP3    H144083   6.535   6.158  13.376  1.1207 -0.5143 -0.2495
 7556TIP3    H244084   6.436   6.089  13.285 -1.8092  0.6488  1.9105
 7557TIP3   OH244085   3.300   5.586  16.032  0.7317  0.4554 -0.3334
 7557TIP3    H144086   3.208   5.603  16.053  0.9973  2.1726 -0.4689
 7557TIP3    H244087   3.298   5.502  15.986 -0.7373  0.3280 -0.0977
 7558TIP3   OH244088   6.245   4.655  15.214  0.0711  0.2234  0.1977
 7558TIP3    H144089   6.231   4.749  15.201 -0.8483  0.0704  0.0364
 7558TIP3    H244090   6.297   4.628  15.138  1.6868  0.8753  1.0149
 7559TIP3   OH244091   0.802   4.094   0.728  0.0289 -0.1065 -0.3240
 7559TIP3    H144092   0.853   4.145   0.666 -0.6841 -0.7813 -1.5228
 7559TIP3    H244093   0.846   4.106   0.812 -0.5033  3.0125 -0.3742
 7560TIP3   OH244094   4.291   3.942  12.646 -0.0798  0.4209 -0.1328
 7560TIP3    H144095   4.326   3.858  12.676 -0.3456 -0.4465 -2.0934
 7560TIP3    H244096   4.330   4.007  12.705  1.1927 -0.9477  0.5933
 7561TIP3   OH244097   4.537   2.044  13.906 -0.6476 -0.2021 -0.0264
 7561TIP3    H144098   4.562   1.990  13.981  1.7075  0.2241 -0.4197
 7561TIP3    H244099   4.470   1.994  13.861  1.1092 -2.6034 -0.1263
 7562TIP3   OH244100   0.108   2.669  16.129  0.5457  0.1627 -0.4996
 7562TIP3    H144101   0.161   2.690  16.206  0.9669  1.1405 -1.0283
 7562TIP3    H244102   0.172   2.657  16.059  0.1668 -0.7091 -0.7165
 7563TIP3   OH244103   5.720   1.356   5.280  0.7361  0.2162 -0.1925
 7563TIP3    H144104   5.724   1.285   5.216  0.3340 -1.1933  1.2712
 7563TIP3    H244105   5.803   1.403   5.269  0.6296  0.0743 -1.7823
 7564TIP3   OH244106   1.998   6.363  11.982  0.3320  0.1594  0.8112
 7564TIP3    H144107   2.083   6.321  11.974 -0.5004 -1.5195  0.2850
 7564TIP3    H244108   1.969   6.378  11.892 -1.0965 -1.8892  0.8491
 7565TIP3   OH244109   5.344   0.604  12.842 -0.0604 -0.8140 -0.3768
 7565TIP3    H144110   5.355   0.651  12.759 -0.6775 -1.6813 -0.9813
 7565TIP3    H244111   5.267   0.645  12.883  1.2001  0.7022  0.5816
 7566TIP3   OH244112   6.766   4.072   5.090  0.3836 -0.1179  0.3988
 7566TIP3    H144113   6.686   4.023   5.071  0.1654 -0.1278  1.3097
 7566TIP3    H244114   6.786   4.052   5.181 -0.6424  2.7204  1.3517
 7567TIP3   OH244115   3.967   1.924   3.845  0.2718 -0.0687  0.2035
 7567TIP3    H144116   4.058   1.899   3.829  0.2176  0.4419 -1.0027
 7567TIP3    H244117   3.920   1.841   3.852  0.7613 -0.3322  0.3700
 7568TIP3   OH244118   0.285   3.858  12.592 -0.4708  0.0872  0.3593
 7568TIP3    H144119   0.326   3.886  12.674 -0.6572  1.4199  0.0173
 7568TIP3    H244120   0.351   3.878  12.525 -1.3335  1.5422 -0.1055
 7569TIP3   OH244121   4.413   0.420  13.239  0.0049  0.0570 -0.4161
 7569TIP3    H144122   4.398   0.496  13.297  0.0714 -0.7832  0.7358
 7569TIP3    H244123   4.390   0.452  13.152  0.4946  1.5470 -0.0268
 7570TIP3   OH244124   2.255   4.421   0.332 -0.4021  0.2229  0.2091
 7570TIP3    H144125   2.290   4.348   0.281  1.1657  0.2094  1.2605
 7570TIP3    H244126   2.266   4.497   0.275 -1.7448 -0.2656 -0.7604
 7571TIP3   OH244127   4.634   4.187   4.449 -0.3866  0.3572 -0.5216
 7571TIP3    H144128   4.581   4.251   4.402 -0.3993  0.2681 -0.6283
 7571TIP3    H244129   4.665   4.127   4.382 -1.9682 -0.8931 -0.2052
 7572TIP3   OH244130   3.496   0.799  16.657  0.2422  0.9958 -0.4457
 7572TIP3    H144131   3.549   0.723  16.679 -2.7087 -0.8516  0.9683
 7572TIP3    H244132   3.448   0.773  16.578 -1.2689  1.0460  0.4113
 7573TIP3   OH244133   3.784   2.685  15.789 -0.0741 -0.7010 -0.1992
 7573TIP3    H144134   3.696   2.724  15.791 -0.1058 -0.7386 -0.7289
 7573TIP3    H244135   3.787   2.630  15.868 -0.2304 -0.0731  0.2508
 7574TIP3   OH244136   1.708   5.282   5.432 -0.1083  0.8231 -0.2389
 7574TIP3    H144137   1.783   5.248   5.382 -0.2710 -0.4731  0.3523
 7574TIP3    H244138   1.652   5.322   5.365  0.0613 -0.1669 -1.0082
 7575TIP3   OH244139   2.096   0.891   5.481 -0.2198  0.2114  0.5100
 7575TIP3    H144140   2.150   0.852   5.550  1.6021  1.4042 -0.1698
 7575TIP3    H244141   2.078   0.818   5.422  2.5401  0.1019 -0.3655
 7576TIP3   OH244142   0.557   5.418  11.081 -0.2968 -0.1484 -0.3029
 7576TIP3    H144143   0.621   5.390  11.146  0.1626 -0.1519 -0.7510
 7576TIP3    H244144   0.596   5.496  11.041 -0.6598 -0.0414 -0.4498
 7577TIP3   OH244145   6.067   6.198   1.701 -0.1644  0.4726 -0.1568
 7577TIP3    H144146   6.131   6.129   1.686 -0.9093 -0.2768  0.0408
 7577TIP3    H244147   6.119   6.275   1.725  0.6062 -0.7690  2.6034
 7578TIP3   OH244148   3.648   3.138  13.922  0.2254 -0.2358  0.9699
 7578TIP3    H144149   3.707   3.144  13.998  0.2573  1.7605  0.8448
 7578TIP3    H244150   3.665   3.051  13.886  0.5489 -1.0664  2.9542
 7579TIP3   OH244151   4.244   2.576   5.612 -0.5284  0.5961  0.0545
 7579TIP3    H144152   4.238   2.481   5.601  0.0008  0.6717 -1.0514
 7579TIP3    H244153   4.177   2.611   5.553  1.6123  0.9854 -2.3548
 7580TIP3   OH244154   2.402   0.986   3.296 -0.2242  0.0304  0.4724
 7580TIP3    H144155   2.403   0.891   3.302 -2.9740 -0.2496 -1.7143
 7580TIP3    H244156   2.363   1.005   3.211  0.2204  3.1379  0.8289
 7581TIP3   OH244157   1.889   4.824  11.949 -0.3200  0.1481  0.5068
 7581TIP3    H144158   1.953   4.754  11.938 -1.3387 -0.6260 -0.6857
 7581TIP3    H244159   1.881   4.865  11.863  0.4810  1.9823  1.2376
 7582TIP3   OH244160   0.683   3.558  14.437 -0.1079  0.5510  0.2969
 7582TIP3    H144161   0.596   3.596  14.450 -0.0155  0.5458  0.9668
 7582TIP3    H244162   0.743   3.624  14.471  0.1065  0.2058  0.5933
 7583TIP3   OH244163   2.015   4.204  15.481 -0.1518  0.1017 -0.0409
 7583TIP3    H144164   2.078   4.134  15.500 -0.6422  0.0816  1.6599
 7583TIP3    H244165   1.998   4.196  15.387  1.3219 -0.7682 -0.2706
 7584TIP3   OH244166   2.306   5.197  15.143  0.2116 -0.2602  0.2243
 7584TIP3    H144167   2.391   5.237  15.161 -0.6052  0.9067  1.7023
 7584TIP3    H244168   2.255   5.211  15.223 -1.7501  0.1161 -1.0163
 7585TIP3   OH244169   3.191   4.107  14.868  0.2793  0.1553  0.1118
 7585TIP3    H144170   3.268   4.095  14.813  0.0034 -0.2236 -0.1962
 7585TIP3    H244171   3.158   4.194  14.843 -0.2268 -0.2928 -0.8105
 7586TIP3   OH244172   1.127   3.627   3.583  0.2037  0.2870  0.2570
 7586TIP3    H144173   1.102   3.578   3.505 -1.2971 -0.1072  0.9514
 7586TIP3    H244174   1.217   3.600   3.601  0.8568  0.9516 -1.7386
 7587TIP3   OH244175   6.309   4.106   2.808 -0.2185 -0.1587 -0.0032
 7587TIP3    H144176   6.256   4.174   2.849 -0.3227  1.0990 -2.1352
 7587TIP3    H244177   6.396   4.144   2.802  0.4490 -1.3609  1.4074
 7588TIP3   OH244178   3.536   2.919   4.777  0.4064 -0.2384  0.3550
 7588TIP3    H144179   3.564   2.997   4.825 -1.7668  1.0207 -0.2850
 7588TIP3    H244180   3.470   2.878   4.833  0.5884 -0.8922  0.1013
 7589TIP3   OH244181   5.981   0.964  13.948 -0.7703  0.1376 -0.0729
 7589TIP3    H144182   6.014   0.988  14.034  2.8170 -0.5537 -1.1182
 7589TIP3    H244183   6.013   1.032  13.890 -0.9138 -0.7587 -1.2430
 7590TIP3   OH244184   2.996   1.839  14.851  0.4539 -0.0150  0.0001
 7590TIP3    H144185   3.054   1.903  14.891  2.1254  0.3522 -2.7281
 7590TIP3    H244186   3.043   1.756  14.860  0.4795 -0.0550 -0.4714
 7591TIP3   OH244187   1.574   3.324   6.387  0.0182 -0.1503  0.6023
 7591TIP3    H144188   1.636   3.287   6.450  1.8196 -1.2628 -1.6434
 7591TIP3    H244189   1.523   3.249   6.357 -3.0255  0.8327  2.8436
 7592TIP3   OH244190   0.295   0.012  13.823 -0.0071 -0.1583 -0.2608
 7592TIP3    H144191   0.302   0.093  13.773 -0.6968 -0.9303 -1.6615
 7592TIP3    H244192   0.226   0.029  13.887  0.6231  0.7132  0.2028
 7593TIP3   OH244193   0.429   3.202   3.621  0.3847  0.9176  0.4890
 7593TIP3    H144194   0.338   3.175   3.631  0.5932  0.6740  2.0639
 7593TIP3    H244195   0.429   3.260   3.546 -0.6391 -0.9263 -1.0158
 7594TIP3   OH244196   5.868   2.147   5.096 -0.6455  0.4816 -0.3739
 7594TIP3    H144197   5.961   2.152   5.119 -0.0408 -1.9841 -1.8125
 7594TIP3    H244198   5.823   2.141   5.180  0.7220 -0.3995  0.3443
 7595TIP3   OH244199   5.426   3.202   2.694 -0.0722 -0.7604 -1.1039
 7595TIP3    H144200   5.400   3.294   2.703 -1.8199 -1.2691 -0.7288
 7595TIP3    H244201   5.493   3.190   2.761 -0.3199  0.0593 -0.6928
 7596TIP3   OH244202   6.303   3.155   5.922 -0.0320  0.1981  0.1252
 7596TIP3    H144203   6.226   3.100   5.906 -0.9675  0.9867  1.7422
 7596TIP3    H244204   6.271   3.245   5.913  0.6836  0.5346  0.8325
 7597TIP3   OH244205   1.628   6.070   0.240  0.0455  0.8405  0.1484
 7597TIP3    H144206   1.718   6.070   0.271 -0.0449  0.8414  0.4061
 7597TIP3    H244207   1.618   6.154   0.194 -0.1268  1.2807  0.9840
 7598TIP3   OH244208   6.232   5.209  12.895  0.2226 -0.9476  0.8095
 7598TIP3    H144209   6.279   5.164  12.824  0.0452  2.1107 -1.4554
 7598TIP3    H244210   6.143   5.217  12.862 -0.0014  0.0703  1.6320
 7599TIP3   OH244211   5.367   0.072  13.195  0.1088 -1.0626  0.8595
 7599TIP3    H144212   5.301   0.130  13.232 -0.6478  0.5826 -2.6920
 7599TIP3    H244213   5.450   0.103  13.232 -0.5032  1.0655  0.5834
 7600TIP3   OH244214   4.215   2.594  12.059  0.5967 -0.3495 -0.4575
 7600TIP3    H144215   4.207   2.590  12.155 -1.1810  1.1167 -0.4893
 7600TIP3    H244216   4.306   2.619  12.043  1.2853 -1.8779  0.7615
 7601TIP3   OH244217   5.544   0.896  16.740  0.1268 -0.1137 -0.6327
 7601TIP3    H144218   5.476   0.918  16.803  0.8651  1.7519 -0.4168
 7601TIP3    H244219   5.616   0.863  16.794  0.9344  1.9248 -0.3870
 7602TIP3   OH244220   2.257   4.558  14.460 -0.2104  0.1674  0.3347
 7602TIP3    H144221   2.178   4.549  14.514  0.0494  0.8349  0.8359
 7602TIP3    H244222   2.297   4.640  14.489  0.1647  0.3161 -0.5821
 7603TIP3   OH244223   3.345   0.215  12.155 -0.1745  0.0733  0.0052
 7603TIP3    H144224   3.367   0.142  12.213  0.4214  0.9945  0.9899
 7603TIP3    H244225   3.367   0.185  12.068 -1.2891 -1.4346  0.2040
 7604TIP3   OH244226   6.394   3.134  15.248 -0.3028  0.1863 -0.8411
 7604TIP3    H144227   6.480   3.172  15.265 -1.3606  1.9928  0.8795
 7604TIP3    H244228   6.393   3.052  15.297  1.1298 -0.9311 -2.5737
 7605TIP3   OH244229   2.934   0.671  14.415  0.0023 -0.6521 -0.2747
 7605TIP3    H144230   3.025   0.699  14.417  0.2183 -1.2029 -1.4809
 7605TIP3    H244231   2.894   0.713  14.491  1.0290  0.3627 -0.2757
 7606TIP3   OH244232   4.522   0.966   0.570  1.0111  0.2050 -0.4574
 7606TIP3    H144233   4.609   0.926   0.575  1.1751  0.3852 -1.6495
 7606TIP3    H244234   4.472   0.922   0.640  1.8494 -0.4006 -0.2166
 7607TIP3   OH244235   2.296   6.476   3.363 -0.1923 -0.1380  0.1590
 7607TIP3    H144236   2.321   6.502   3.451  1.3090  0.5303 -0.4319
 7607TIP3    H244237   2.377   6.444   3.323 -0.9410 -0.8761 -0.8299
 7608TIP3   OH244238   1.315   1.853   2.841  0.2763  0.2737  0.1336
 7608TIP3    H144239   1.246   1.814   2.895 -0.4959  0.4657 -0.6856
 7608TIP3    H244240   1.298   1.820   2.753  1.2301  0.3404 -0.0830
 7609TIP3   OH244241   2.561   6.664   3.235 -0.8092 -1.0508  0.1819
 7609TIP3    H144242   2.531   6.649   3.145  2.8469 -0.4455 -1.2854
 7609TIP3    H244243   2.639   6.718   3.227  0.5765 -2.2061  3.6161
 7610TIP3   OH244244   4.429   2.566   5.308  0.2343  0.4648 -0.4689
 7610TIP3    H144245   4.337   2.548   5.326  0.7334 -1.0590  0.7476
 7610TIP3    H244246   4.448   2.515   5.229 -0.0974  1.3137 -1.1211
 7611TIP3   OH244247   4.994   5.895  11.402 -0.1779 -0.9005 -0.0146
 7611TIP3    H144248   4.964   5.897  11.493 -2.1568  1.3984 -0.6339
 7611TIP3    H244249   4.956   5.814  11.366 -0.1556 -1.3445  0.9301
 7612TIP3   OH244250   0.087   4.473  14.022  0.4170 -0.1936 -0.2502
 7612TIP3    H144251   0.004   4.427  14.029  0.7934 -0.7747  0.6476
 7612TIP3    H244252   0.065   4.564  14.044  0.1469 -0.5013  0.8398
 7613TIP3   OH244253   4.235   5.954   0.579  0.0980  0.3384 -0.4958
 7613TIP3    H144254   4.173   5.916   0.516 -0.0861  1.4869 -1.0171
 7613TIP3    H244255   4.199   5.930   0.664 -0.1662 -0.4095 -0.8032
 7614TIP3   OH244256   0.810   5.470  15.860  0.4751 -0.3364 -0.4342
 7614TIP3    H144257   0.729   5.419  15.869  2.0590 -2.9970  0.0314
 7614TIP3    H244258   0.782   5.554  15.826 -2.6651 -0.4887  1.3946
 7615TIP3   OH244259   1.071   2.002  15.545  0.3960 -0.2548 -1.1748
 7615TIP3    H144260   1.069   1.948  15.466 -2.3738  0.3806 -1.6426
 7615TIP3    H244261   1.019   1.954  15.609 -2.0322  1.6405 -1.5602
 7616TIP3   OH244262   4.878   3.791  14.580  0.2075  0.2058  0.0936
 7616TIP3    H144263   4.845   3.703  14.561  3.6220 -0.9414 -1.4955
 7616TIP3    H244264   4.802   3.848  14.570 -1.6211 -2.2657 -1.5038
 7617TIP3   OH244265   5.898   0.778  15.728 -0.0193 -0.5548 -0.4020
 7617TIP3    H144266   5.971   0.827  15.765  1.5418 -2.0882 -1.3191
 7617TIP3    H244267   5.848   0.748  15.803  0.8894 -0.3642  0.2910
 7618TIP3   OH244268   2.284   4.641  11.709  0.2777 -0.4945  0.2060
 7618TIP3    H144269   2.222   4.623  11.639 -2.0219 -1.4568  2.3317
 7618TIP3    H244270   2.367   4.659  11.664 -2.1728  4.8821 -3.0994
 7619TIP3   OH244271   1.415   2.207  14.796 -0.0409  0.8131  0.2526
 7619TIP3    H144272   1.469   2.148  14.849 -0.1100  1.2116  0.7683
 7619TIP3    H244273   1.330   2.164  14.792  0.4077 -0.0332 -0.9229
 7620TIP3   OH244274   4.402   5.314   4.743 -0.3505  0.2588 -0.0344
 7620TIP3    H144275   4.495   5.330   4.731 -0.3410  0.7353  0.6190
 7620TIP3    H244276   4.377   5.371   4.816 -0.1263 -3.2887  3.1006
 7621TIP3   OH244277   4.671   6.215   4.139 -0.0608 -0.3063  0.7905
 7621TIP3    H144278   4.707   6.153   4.076 -4.1743  0.7596 -3.1587
 7621TIP3    H244279   4.705   6.300   4.111 -1.0689  0.0665  0.6499
 7622TIP3   OH244280   1.154   4.331   1.577 -0.5209 -0.2627  0.1757
 7622TIP3    H144281   1.214   4.354   1.506  0.7451 -0.3011  1.1877
 7622TIP3    H244282   1.212   4.307   1.650 -1.7825 -2.8456  0.4110
 7623TIP3   OH244283   3.827   6.598  10.961 -1.0057  0.3215 -0.0513
 7623TIP3    H144284   3.754   6.634  10.910 -0.4725  0.2844 -0.8635
 7623TIP3    H244285   3.857   6.522  10.910 -1.2634 -0.4982  0.9654
 7624TIP3   OH244286   0.041   5.056  11.698  0.1027  0.6494  0.0473
 7624TIP3    H144287   0.027   5.010  11.615  1.2279 -0.0587  0.2384
 7624TIP3    H244288   0.035   4.989  11.765  1.7144  0.7567  0.3332
 7625TIP3   OH244289   0.454   0.224   0.597 -0.4114 -0.0784 -0.0351
 7625TIP3    H144290   0.546   0.247   0.580 -0.6096  0.4612 -0.4070
 7625TIP3    H244291   0.416   0.303   0.635 -0.4956 -0.6052  1.0038
 7626TIP3   OH244292   1.314   2.025   2.302 -0.5551 -0.2304  0.1737
 7626TIP3    H144293   1.242   2.027   2.365 -0.8690 -0.8221 -0.1518
 7626TIP3    H244294   1.348   1.935   2.309  0.4823  0.1830  0.6855
 7627TIP3   OH244295   1.386   5.844  16.063 -0.1819  0.3737 -0.4231
 7627TIP3    H144296   1.415   5.863  15.974 -2.2862  0.7596 -1.1006
 7627TIP3    H244297   1.296   5.877  16.066 -0.4980 -0.5019  1.5541
 7628TIP3   OH244298   5.107   5.807   0.105  0.2254  0.1149 -0.0266
 7628TIP3    H144299   5.110   5.787   0.011 -1.5860 -0.0571 -0.0729
 7628TIP3    H244300   5.073   5.896   0.110  0.1461  0.0599  0.4725
 7629TIP3   OH244301   4.468   0.997   6.901  0.4228  0.0972 -0.0553
 7629TIP3    H144302   4.484   0.903   6.907  2.1008  0.3790  0.5139
 7629TIP3    H244303   4.555   1.035   6.891 -0.0426  1.7023  1.5011
 7630TIP3   OH244304   5.355   5.961   1.752  0.2572 -0.4932  0.4508
 7630TIP3    H144305   5.397   5.979   1.836 -0.8304 -1.3100  1.1978
 7630TIP3    H244306   5.264   5.989   1.764  0.8102  2.6484 -1.6132
 7631TIP3   OH244307   2.780   1.164  16.318 -0.1056  0.4815  0.0159
 7631TIP3    H144308   2.837   1.227  16.273  1.9794 -2.0322 -1.1931
 7631TIP3    H244309   2.706   1.151  16.258 -0.4439  1.5815  0.1824
 7632TIP3   OH244310   6.162   5.464   1.777 -0.4630  0.3339 -0.0543
 7632TIP3    H144311   6.092   5.489   1.716 -0.7161 -0.1365  0.0374
 7632TIP3    H244312   6.121   5.401   1.836  0.2121 -0.4769 -0.4232
 7633TIP3   OH244313   5.601   4.442   0.736 -0.4243  0.4221 -0.5415
 7633TIP3    H144314   5.673   4.493   0.697  2.8144 -1.9778  1.7518
 7633TIP3    H244315   5.594   4.364   0.681  0.5990 -0.5456  0.6401
 7634TIP3   OH244316   6.443   3.509   6.377 -0.2358  0.3485 -0.7646
 7634TIP3    H144317   6.535   3.533   6.365 -0.4850  1.3489 -0.7926
 7634TIP3    H244318   6.446   3.427   6.427  0.6609  1.0220  0.3432
 7635TIP3   OH244319   6.334   3.425   1.383 -0.3452  0.4965 -0.0012
 7635TIP3    H144320   6.374   3.339   1.395  0.9093  1.1562  0.6108
 7635TIP3    H244321   6.321   3.458   1.472 -1.4840  0.6582 -0.2127
 7636TIP3   OH244322   3.887   3.338   4.068 -0.1613  0.1136 -0.0596
 7636TIP3    H144323   3.811   3.320   4.012 -1.7437  0.7191  1.8132
 7636TIP3    H244324   3.929   3.253   4.078 -1.9954 -0.7349  0.8228
 7637TIP3   OH244325   1.510   1.629  11.936 -0.0795 -0.0352  0.6410
 7637TIP3    H144326   1.564   1.609  11.860 -0.4225 -1.4671  0.7544
 7637TIP3    H244327   1.420   1.614  11.906 -0.2812  0.3442  1.0493
 7638TIP3   OH244328   3.209   3.328   0.994  0.2448  0.4759 -0.0098
 7638TIP3    H144329   3.160   3.272   1.054  1.2707  0.6332  1.0034
 7638TIP3    H244330   3.291   3.282   0.979  1.1268  1.6836  0.8730
 7639TIP3   OH244331   1.474   3.842   4.184 -0.6687 -0.2336  0.4715
 7639TIP3    H144332   1.400   3.846   4.244 -0.0601  0.1336  1.2185
 7639TIP3    H244333   1.471   3.754   4.148 -0.1079 -1.0343  2.2800
 7640TIP3   OH244334   2.929   3.612  15.908 -0.3434  0.0348  0.3783
 7640TIP3    H144335   2.839   3.585  15.925 -0.4783  0.4666  0.3491
 7640TIP3    H244336   2.975   3.531  15.887 -0.6426 -0.2348  0.7565
 7641TIP3   OH244337   4.102   2.803   6.535 -0.3357  0.4321  0.2527
 7641TIP3    H144338   4.037   2.780   6.601  0.2227  0.0253  0.6658
 7641TIP3    H244339   4.146   2.721   6.515 -0.7557  0.4695 -0.9218
 7642TIP3   OH244340   6.330   6.350  12.898  0.0882  0.3942  0.4237
 7642TIP3    H144341   6.247   6.305  12.879 -0.2895  0.2606  2.1886
 7642TIP3    H244342   6.371   6.362  12.812 -2.0937  1.1542 -0.5921
 7643TIP3   OH244343   0.771   0.767  12.803 -0.0996 -0.8186 -0.2987
 7643TIP3    H144344   0.750   0.859  12.786  0.3476 -0.4850  0.8262
 7643TIP3    H244345   0.691   0.720  12.783 -0.0316 -0.3123 -1.8625
 7644TIP3   OH244346   3.569   6.338   5.829 -0.1705 -0.4564  0.2843
 7644TIP3    H144347   3.543   6.249   5.808  0.1014 -0.7542  1.2016
 7644TIP3    H244348   3.647   6.353   5.775 -0.2106 -0.7659  0.1372
 7645TIP3   OH244349   4.568   6.575   4.897 -0.4108  0.3031  0.3398
 7645TIP3    H144350   4.540   6.595   4.986 -3.9825 -1.1662 -0.3003
 7645TIP3    H244351   4.601   6.658   4.863  0.3935  1.0520  2.7253
 7646TIP3   OH244352   6.319   2.279   1.985 -0.4205  0.2835 -0.8229
 7646TIP3    H144353   6.277   2.264   1.900  1.0969 -0.2582 -1.5106
 7646TIP3    H244354   6.358   2.195   2.008 -1.9723  0.0284  1.1263
 7647TIP3   OH244355   5.565   2.951  14.126 -0.0449  0.5457  0.2368
 7647TIP3    H144356   5.620   2.958  14.204  0.1239 -3.5896  0.7017
 7647TIP3    H244357   5.627   2.956  14.053  0.6415 -1.1813  0.6537
 7648TIP3   OH244358   4.091   3.845   2.885  0.3739 -0.3492  0.2283
 7648TIP3    H144359   4.119   3.854   2.794  0.9865 -0.8006  0.3644
 7648TIP3    H244360   4.171   3.822   2.933  0.4538  1.6482  1.1797
 7649TIP3   OH244361   6.397   3.098   3.193  0.0928  0.1864  0.7636
 7649TIP3    H144362   6.428   3.018   3.236 -1.2039 -0.5318  0.4316
 7649TIP3    H244363   6.476   3.146   3.171  0.9370 -1.3174  0.3883
 7650TIP3   OH244364   0.998   4.522   5.274 -0.4742 -0.3524  0.4964
 7650TIP3    H144365   1.000   4.501   5.181  0.8957 -0.5146  0.5412
 7650TIP3    H244366   0.908   4.502   5.301 -1.1386  0.4740 -0.9528
 7651TIP3   OH244367   6.308   0.610  12.860 -0.1965 -0.0475  0.5707
 7651TIP3    H144368   6.352   0.657  12.789 -0.2779 -0.6171  0.1338
 7651TIP3    H244369   6.217   0.603  12.832  0.3866 -3.3885 -1.0379
 7652TIP3   OH244370   6.359   3.037  12.382  0.1767  0.1548 -0.3664
 7652TIP3    H144371   6.376   3.024  12.475 -2.1132  1.2823  0.2724
 7652TIP3    H244372   6.415   3.111  12.357  1.4031 -0.6684 -0.1199
 7653TIP3   OH244373   5.173   5.098   4.845 -0.1934  0.1787  0.1410
 7653TIP3    H144374   5.245   5.077   4.785  0.6987  1.3386  0.7660
 7653TIP3    H244375   5.145   5.186   4.818  0.0395  0.5977  1.2324
 7654TIP3   OH244376   4.097   2.637  16.581  0.5419 -0.1109  0.3217
 7654TIP3    H144377   4.179   2.681  16.559  1.1781 -0.4785  1.7877
 7654TIP3    H244378   4.030   2.684  16.532  1.4985  0.9132 -0.0446
 7655TIP3   OH244379   4.475   6.447  15.627 -0.9193  0.0416 -0.2699
 7655TIP3    H144380   4.429   6.450  15.711  0.2452 -0.4867  0.4147
 7655TIP3    H244381   4.479   6.538  15.598 -1.5163  0.2054  0.1396
 7656TIP3   OH244382   1.690   4.094  16.028  0.0071 -0.5578  0.1975
 7656TIP3    H144383   1.626   4.131  16.089  0.1735  0.8940 -0.4864
 7656TIP3    H244384   1.774   4.104  16.073 -0.1053 -1.6124  0.6903
 7657TIP3   OH244385   3.895   0.085  11.000  0.2627 -0.3814  0.6425
 7657TIP3    H144386   3.830   0.021  11.029 -1.0594  1.3658  1.7306
 7657TIP3    H244387   3.874   0.164  11.049  1.6929  0.9629 -0.8076
 7658TIP3   OH244388   1.822   0.506  13.428 -0.0458 -0.1583  0.1654
 7658TIP3    H144389   1.789   0.458  13.352 -0.7462  1.0184 -0.2919
 7658TIP3    H244390   1.775   0.589  13.426  1.3831  0.6949  0.7557
 7659TIP3   OH244391   2.004   2.892  16.953  0.3286  0.2136  0.1448
 7659TIP3    H144392   2.015   2.908  17.047  1.0138  0.1360  0.0811
 7659TIP3    H244393   2.055   2.962  16.911 -0.7300  0.8146 -0.1877
 7660TIP3   OH244394   0.974   5.251   5.814  0.1991  0.3699  0.5878
 7660TIP3    H144395   0.961   5.229   5.721 -0.7814 -1.3281  1.0765
 7660TIP3    H244396   0.934   5.337   5.824  0.3447  0.5906 -0.5599
 7661TIP3   OH244397   1.920   5.280  13.087 -0.0727 -0.5403 -0.7345
 7661TIP3    H144398   1.965   5.322  13.160 -0.6439 -0.6304 -0.3277
 7661TIP3    H244399   1.991   5.247  13.031  0.3816  0.4953 -0.7988
 7662TIP3   OH244400   2.210   1.417   4.545  0.1780 -0.0538  0.1934
 7662TIP3    H144401   2.157   1.388   4.619 -0.0153  0.2864  0.1926
 7662TIP3    H244402   2.208   1.344   4.483 -1.2105  0.3576 -0.2956
 7663TIP3   OH244403   2.192   4.922   3.128 -0.2660 -0.4478 -0.3361
 7663TIP3    H144404   2.222   4.833   3.108 -2.7434 -1.6260  0.8308
 7663TIP3    H244405   2.121   4.910   3.190 -0.7346  2.3843 -0.2105
 7664TIP3   OH244406   3.241   0.906  15.914 -0.2190 -0.2761 -0.2302
 7664TIP3    H144407   3.238   0.853  15.834  1.1680  1.4313 -1.4973
 7664TIP3    H244408   3.228   0.995  15.884 -0.4428  0.3347  1.5751
 7665TIP3   OH244409   5.871   3.431  14.737  0.3017 -0.2385  0.3742
 7665TIP3    H144410   5.872   3.338  14.757  1.1983 -0.1605  0.7727
 7665TIP3    H244411   5.840   3.436  14.647 -0.2561 -0.8770  0.5227
 7666TIP3   OH244412   6.397   0.517  14.793  0.3527  0.5956  0.4951
 7666TIP3    H144413   6.303   0.531  14.805  0.1470 -0.0612 -0.2089
 7666TIP3    H244414   6.432   0.507  14.881 -0.6176 -1.3506  0.7165
 7667TIP3   OH244415   0.902   3.290  14.292  0.2189 -0.3256  0.1936
 7667TIP3    H144416   0.941   3.323  14.374 -0.4247  0.4450  0.2073
 7667TIP3    H244417   0.926   3.355  14.227  0.7924 -0.9795 -0.2597
 7668TIP3   OH244418   5.319   1.279   0.700  0.8960 -0.1641 -0.0807
 7668TIP3    H144419   5.292   1.191   0.728  1.1839  0.6387  3.0550
 7668TIP3    H244420   5.414   1.272   0.688  1.1679  0.0096  1.6886
 7669TIP3   OH244421   4.634   1.867   6.493  0.1889  0.1024  0.1633
 7669TIP3    H144422   4.612   1.821   6.573 -1.4209 -0.4542 -0.5589
 7669TIP3    H244423   4.562   1.930   6.481  1.2616  1.3523  0.0150
 7670TIP3   OH244424   1.372   2.413  14.626 -0.0178 -0.7100 -0.0072
 7670TIP3    H144425   1.383   2.344  14.692  0.7798 -1.0731 -0.5072
 7670TIP3    H244426   1.309   2.474  14.665 -2.3848 -2.7630 -0.3600
 7671TIP3   OH244427   4.701   1.058  17.098  0.1498 -0.6340  0.4912
 7671TIP3    H144428   4.652   1.129  17.056  1.6844  0.2079  0.0640
 7671TIP3    H244429   4.634   0.994  17.121 -0.9904 -0.1513 -1.3049
 7672TIP3   OH244430   1.471   5.757  13.261  0.0629 -0.1037 -0.2902
 7672TIP3    H144431   1.554   5.722  13.228 -0.0644 -1.5334  0.8264
 7672TIP3    H244432   1.428   5.682  13.301 -0.8220  1.0841  1.0484
 7673TIP3   OH244433   6.232   1.292  11.537  0.2635  0.3226 -1.3049
 7673TIP3    H144434   6.182   1.265  11.614  0.1672  1.1994 -1.0531
 7673TIP3    H244435   6.238   1.213  11.483 -0.6315 -0.0182 -0.9193
 7674TIP3   OH244436   1.317   4.105   2.934 -0.5004 -0.4618 -0.0674
 7674TIP3    H144437   1.270   4.178   2.894  1.6946  1.3087  0.3773
 7674TIP3    H244438   1.334   4.045   2.861 -0.1211  0.7329 -0.9899
 7675TIP3   OH244439   1.775   5.963  12.298 -0.0186 -0.2562 -0.3821
 7675TIP3    H144440   1.732   6.046  12.320 -0.4307 -0.4232 -0.5425
 7675TIP3    H244441   1.794   5.971  12.204  2.8788  0.9783  0.1927
 7676TIP3   OH244442   1.505   3.457  12.409 -0.3412  0.0270 -0.7261
 7676TIP3    H144443   1.593   3.448  12.444 -0.6852 -1.7558 -0.2198
 7676TIP3    H244444   1.510   3.422  12.320 -0.3328  0.8268 -1.0441
 7677TIP3   OH244445   0.746   5.503  14.663  0.0487 -0.1043  0.1536
 7677TIP3    H144446   0.707   5.586  14.634 -0.5608 -0.2176  0.6141
 7677TIP3    H244447   0.815   5.530  14.724  1.8929  0.1703 -1.9200
 7678TIP3   OH244448   6.189   5.417   3.376 -0.6849 -0.1210  0.3538
 7678TIP3    H144449   6.169   5.397   3.285  1.0497 -0.2190 -0.0405
 7678TIP3    H244450   6.282   5.441   3.376 -0.9836  1.2372  1.8855
 7679TIP3   OH244451   6.166   1.071  11.396 -0.0288  0.2458 -0.2573
 7679TIP3    H144452   6.089   1.087  11.342 -0.4919  1.7717  0.7888
 7679TIP3    H244453   6.173   0.976  11.401 -0.0515  0.0288 -2.8285
 7680TIP3   OH244454   2.457   4.282   2.859  0.1107  0.5140  0.1256
 7680TIP3    H144455   2.393   4.349   2.837 -0.3489 -0.0663 -0.3506
 7680TIP3    H244456   2.444   4.267   2.953  1.1147  1.9966  0.5351
 7681TIP3   OH244457   6.439   4.084  14.163  0.2011 -0.4060 -0.3125
 7681TIP3    H144458   6.434   4.001  14.212  0.0007  0.2296  0.7728
 7681TIP3    H244459   6.349   4.103  14.139  0.3314 -0.8518 -1.1758
 7682TIP3   OH244460   4.502   2.327  15.978  0.2117  0.5422  0.1105
 7682TIP3    H144461   4.488   2.334  15.884  0.5042  0.3954  0.0525
 7682TIP3    H244462   4.544   2.410  16.002  1.2189  0.1124 -0.1014
 7683TIP3   OH244463   1.902   3.819   0.062 -0.2080  0.3650 -0.7877
 7683TIP3    H144464   1.946   3.786   0.141 -0.0507  3.3014  0.4651
 7683TIP3    H244465   1.857   3.742   0.027  0.4218 -1.2565  1.6602
 7684TIP3   OH244466   4.193   0.296  14.801  0.8489  0.5869 -0.2409
 7684TIP3    H144467   4.227   0.333  14.883  0.4285  1.9133 -0.6369
 7684TIP3    H244468   4.267   0.250  14.763  1.0920  0.0671  0.8131
 7685TIP3   OH244469   6.504   4.853  13.382 -0.3057 -0.7951  0.4312
 7685TIP3    H144470   6.559   4.902  13.320 -0.8611 -0.6696  0.0340
 7685TIP3    H244471   6.418   4.893  13.374 -0.6393 -1.4856  0.5022
 7686TIP3   OH244472   2.132   6.083   2.310  0.2418  0.1820  0.0506
 7686TIP3    H144473   2.223   6.087   2.342 -0.1701  0.3643  1.2450
 7686TIP3    H244474   2.092   6.163   2.343 -0.8685 -0.8107  1.2162
 7687TIP3   OH244475   2.616   3.948  15.018 -0.1413  0.4019 -0.3804
 7687TIP3    H144476   2.630   3.947  15.113 -0.3530 -0.3508 -0.3568
 7687TIP3    H244477   2.703   3.938  14.980 -0.2401 -1.0234 -0.2519
 7688TIP3   OH244478   6.664   5.905  14.977 -0.1419  0.8724  0.0256
 7688TIP3    H144479   6.593   5.961  14.946 -0.7952 -0.3524 -0.7453
 7688TIP3    H244480   6.707   5.875  14.897 -0.6688 -0.8350  0.3568
 7689TIP3   OH244481   5.524   6.288  12.583  0.1113  0.2683  0.3156
 7689TIP3    H144482   5.472   6.302  12.662 -0.0586  0.8826  0.0942
 7689TIP3    H244483   5.573   6.369  12.572  1.0283 -0.2576  0.4515
 7690TIP3   OH244484   0.135   0.882   3.814 -0.2722  0.2591 -0.2850
 7690TIP3    H144485   0.146   0.880   3.719 -0.0487 -1.3461 -0.2536
 7690TIP3    H244486   0.151   0.974   3.838  1.5577  0.3419 -1.5709
 7691TIP3   OH244487   1.744   5.117  14.124  0.3762 -0.2839  0.1853
 7691TIP3    H144488   1.790   5.085  14.046  0.3833  0.5274 -0.1515
 7691TIP3    H244489   1.813   5.131  14.189  0.5562  0.4425 -0.1521
 7692TIP3   OH244490   0.855   3.000   1.070  0.1630 -0.0092  0.7285
 7692TIP3    H144491   0.800   3.009   0.992  0.1707 -1.0382  0.5929
 7692TIP3    H244492   0.917   2.930   1.048  0.1004 -0.3756  1.6845
 7693TIP3   OH244493   5.046   4.614  14.760  0.1583  0.3150  0.5129
 7693TIP3    H144494   4.966   4.668  14.760  0.3252  0.5763 -0.0704
 7693TIP3    H244495   5.050   4.577  14.848 -0.4186  0.5812  0.6594
 7694TIP3   OH244496   5.786   4.618   1.804  0.0130 -0.1116 -0.0332
 7694TIP3    H144497   5.758   4.528   1.789 -0.1482  0.0500 -0.7783
 7694TIP3    H244498   5.784   4.629   1.899  1.4599 -1.3403  0.1894
 7695TIP3   OH244499   3.872   3.855   4.633  0.7196 -0.1000  0.4506
 7695TIP3    H144500   3.864   3.864   4.728  1.2709  0.4409  0.4560
 7695TIP3    H244501   3.937   3.921   4.609  1.4776 -1.0461 -0.1475
 7696TIP3   OH244502   5.064   3.763  17.095 -0.6925  0.3833 -0.8353
 7696TIP3    H144503   5.149   3.725  17.115 -0.5697  0.9702 -0.1932
 7696TIP3    H244504   5.033   3.714  17.019 -0.4221 -0.7935 -0.2032
 7697TIP3   OH244505   4.287   2.033  11.748  0.1729 -0.0817  0.5841
 7697TIP3    H144506   4.267   2.047  11.656 -0.1069  0.4086  0.7147
 7697TIP3    H244507   4.382   2.023  11.751  0.2587  0.6176  0.3311
 7698TIP3   OH244508   4.532   0.284   2.153  0.2465  0.4929 -0.2461
 7698TIP3    H144509   4.600   0.347   2.175 -0.6861  1.7164 -0.7804
 7698TIP3    H244510   4.506   0.247   2.238 -0.4006  2.1117  0.3039
 7699TIP3   OH244511   5.267   0.849   5.976  0.3648  0.3626 -0.1746
 7699TIP3    H144512   5.244   0.782   6.041  1.0423  1.1304  0.8907
 7699TIP3    H244513   5.292   0.925   6.028 -1.7597  1.9765 -1.3348
 7700TIP3   OH244514   1.200   1.701  14.847 -0.8482  0.9938 -0.5737
 7700TIP3    H144515   1.117   1.734  14.881  0.1239  0.9503  2.0258
 7700TIP3    H244516   1.183   1.608  14.830 -1.4437  1.0863 -0.5064
 7701TIP3   OH244517   0.691   3.975   2.006  0.0623  0.0284  0.4618
 7701TIP3    H144518   0.721   4.012   2.089 -1.5919  0.2530  1.0028
 7701TIP3    H244519   0.670   4.052   1.952  0.7899 -0.1185 -0.0344
 7702TIP3   OH244520   1.846   3.496   6.726 -0.1537  0.0990 -0.0747
 7702TIP3    H144521   1.814   3.406   6.717  0.7313 -0.2855  0.4855
 7702TIP3    H244522   1.884   3.517   6.641 -0.2985 -0.0738 -0.1831
 7703TIP3   OH244523   6.767   1.786  14.348 -0.5853  0.0158 -0.0668
 7703TIP3    H144524   6.768   1.841  14.269  1.0045 -0.3302 -0.3257
 7703TIP3    H244525   6.807   1.841  14.415  0.1712 -0.4912 -0.0961
 7704TIP3   OH244526   5.569   1.326  16.435 -0.1568 -0.1514  0.1675
 7704TIP3    H144527   5.480   1.305  16.409 -0.2672 -0.1614  0.5555
 7704TIP3    H244528   5.605   1.244  16.468  0.4124 -0.4588 -1.1548
 7705TIP3   OH244529   2.229   5.936   0.616 -0.2342 -0.0458  0.3619
 7705TIP3    H144530   2.259   5.892   0.536 -1.3668  0.5474 -0.4153
 7705TIP3    H244531   2.275   6.021   0.614 -1.5892  0.7004 -0.6216
 7706TIP3   OH244532   1.742   2.972   2.597 -0.2796  0.2444  0.6915
 7706TIP3    H144533   1.713   2.969   2.688  3.1750  0.0257  1.9013
 7706TIP3    H244534   1.697   3.048   2.560 -2.8913 -0.4911  2.0513
 7707TIP3   OH244535   0.726   0.469   5.445  0.2782 -0.1280  0.0076
 7707TIP3    H144536   0.745   0.439   5.356  4.7491  0.9763  0.3712
 7707TIP3    H244537   0.720   0.389   5.497  1.1768 -0.7157 -0.7610
 7708TIP3   OH244538   2.633   3.456   4.920  0.1250 -0.2066 -0.0120
 7708TIP3    H144539   2.715   3.417   4.892  2.1613  1.6184  2.9089
 7708TIP3    H244540   2.620   3.530   4.862 -0.7421 -1.7454 -1.8966
 7709TIP3   OH244541   3.759   3.863   5.591  0.2014 -0.1266 -0.0645
 7709TIP3    H144542   3.715   3.804   5.653 -0.4751  0.7600  0.3249
 7709TIP3    H244543   3.852   3.843   5.602  0.1904  0.6666  1.9742
 7710TIP3   OH244544   2.427   5.466  15.996 -0.2099 -0.3918  0.7631
 7710TIP3    H144545   2.334   5.466  15.973 -0.3228  1.5129  1.1134
 7710TIP3    H244546   2.472   5.446  15.914 -0.8964 -0.6214  0.4348
 7711TIP3   OH244547   5.704   4.932   2.803 -0.2915  0.1707  0.0107
 7711TIP3    H144548   5.609   4.939   2.789 -0.2750 -0.5998 -0.5655
 7711TIP3    H244549   5.742   4.957   2.719 -0.0769 -1.4838 -0.4340
 7712TIP3   OH244550   0.741   4.437   0.795 -0.1670 -0.0697  0.2698
 7712TIP3    H144551   0.830   4.411   0.818 -0.6493 -2.2220 -0.0610
 7712TIP3    H244552   0.750   4.483   0.712  0.6004 -0.7804 -0.0590
 7713TIP3   OH244553   2.734   6.397  11.899 -0.0438 -0.4089  0.7508
 7713TIP3    H144554   2.700   6.322  11.852  0.8031 -1.2559  1.4445
 7713TIP3    H244555   2.791   6.442  11.836 -1.6131  0.4598 -0.0962
 7714TIP3   OH244556   1.463   2.289   3.947 -0.4494 -0.8195 -0.1491
 7714TIP3    H144557   1.468   2.383   3.930  0.8940 -1.0182 -1.0234
 7714TIP3    H244558   1.554   2.261   3.950 -0.7894 -1.8452  1.6764
 7715TIP3   OH244559   6.324   6.686   5.523 -0.3640 -0.4189 -0.6867
 7715TIP3    H144560   6.273   6.633   5.584 -0.1259 -0.3826 -0.4525
 7715TIP3    H244561   6.299   6.776   5.543  2.0177 -0.1303  1.5810
 7716TIP3   OH244562   5.050   0.424   1.132 -0.0888 -0.2313  0.0353
 7716TIP3    H144563   4.985   0.405   1.064 -0.8128  0.0418  0.6499
 7716TIP3    H244564   5.053   0.519   1.138 -0.2455 -0.2573  0.5909
 7717TIP3   OH244565   3.423   6.238  13.079 -0.7745 -0.3460 -0.9030
 7717TIP3    H144566   3.436   6.149  13.111 -1.1267  0.2920  1.1501
 7717TIP3    H244567   3.478   6.292  13.136 -1.6132  0.8806 -1.2202
 7718TIP3   OH244568   4.502   1.914  15.315  0.2457 -0.4010 -0.3053
 7718TIP3    H144569   4.495   1.819  15.314 -0.9235 -0.3261 -1.4604
 7718TIP3    H244570   4.423   1.945  15.271 -0.7366  1.1966  2.3661
 7719TIP3   OH244571   3.680   6.349  12.766  0.7038  0.5003 -0.0614
 7719TIP3    H144572   3.591   6.367  12.795  0.6166 -0.4422  0.2853
 7719TIP3    H244573   3.674   6.340  12.671  0.5607  1.1518 -0.1170
 7720TIP3   OH244574   2.424   1.096   5.512 -0.0900 -0.0120  0.3492
 7720TIP3    H144575   2.341   1.080   5.557  0.9329 -0.0352  2.3435
 7720TIP3    H244576   2.448   1.011   5.473 -1.0979  0.0635 -0.4723
 7721TIP3   OH244577   1.455   4.047  16.277 -0.3883  0.5730  0.1810
 7721TIP3    H144578   1.418   4.035  16.364 -1.2109  0.7187 -0.1355
 7721TIP3    H244579   1.547   4.024  16.286 -0.9172 -1.6575  0.6082
 7722TIP3   OH244580   1.297   5.649  17.137  0.3759 -1.0027 -0.3811
 7722TIP3    H144581   1.250   5.576  17.178  0.8038 -1.6614 -1.0440
 7722TIP3    H244582   1.284   5.636  17.043 -0.7818  0.6142 -0.4875
 7723TIP3   OH244583   5.236   2.701  12.683  0.6053 -0.0841  0.6537
 7723TIP3    H144584   5.260   2.773  12.741  3.2852 -0.3655  0.0286
 7723TIP3    H244585   5.226   2.742  12.597 -1.6214  0.0559  0.9178
 7724TIP3   OH244586   5.620   0.045   3.033 -0.0255 -0.1065 -0.2281
 7724TIP3    H144587   5.657   0.091   3.107  1.4875 -1.4550 -0.0834
 7724TIP3    H244588   5.564   0.109   2.989 -1.6129  0.4922  2.4895
 7725TIP3   OH244589   6.678   4.465   0.612 -0.1772 -0.3082 -0.0155
 7725TIP3    H144590   6.616   4.530   0.643  0.0481  0.7428 -1.6842
 7725TIP3    H244591   6.626   4.386   0.598 -0.8242  0.0959  0.0948
 7726TIP3   OH244592   5.744   1.443  11.765 -0.7996  0.4065 -0.1303
 7726TIP3    H144593   5.690   1.374  11.804  0.8697 -0.3205  1.0017
 7726TIP3    H244594   5.792   1.480  11.839  1.4817 -0.1173 -1.2531
 7727TIP3   OH244595   0.541   6.089  17.094  0.8121 -0.6651  0.3238
 7727TIP3    H144596   0.494   6.035  17.157 -0.7518  0.5699  0.2725
 7727TIP3    H244597   0.579   6.026  17.033 -0.2792 -1.7590  0.7250
 7728TIP3   OH244598   0.840   3.081  15.579 -0.0296  0.1581 -0.0771
 7728TIP3    H144599   0.909   3.134  15.618 -0.1695  2.3743 -2.5600
 7728TIP3    H244600   0.872   3.061  15.491 -0.7186 -2.5728  0.2063
 7729TIP3   OH244601   5.487   5.798   3.583  0.0164 -0.2827 -0.3971
 7729TIP3    H144602   5.457   5.740   3.513  0.2358 -2.4270  1.1871
 7729TIP3    H244603   5.566   5.756   3.617  0.3771  1.1440  0.6108
 7730TIP3   OH244604   0.825   6.361   0.679 -0.0083  0.0922  0.3814
 7730TIP3    H144605   0.766   6.431   0.708  2.1333  2.0283  0.3970
 7730TIP3    H244606   0.824   6.369   0.584  1.4139  1.2737  0.4269
 7731TIP3   OH244607   2.457   2.952   6.434  0.2394 -0.4483 -0.3636
 7731TIP3    H144608   2.379   2.914   6.473  0.6252  0.4166  1.3421
 7731TIP3    H244609   2.463   3.040   6.472 -0.0408  0.9941 -3.3632
 7732TIP3   OH244610   0.830   3.272   4.379  0.5563  0.1393  0.0847
 7732TIP3    H144611   0.799   3.296   4.466  0.9170  1.3642 -0.1078
 7732TIP3    H244612   0.797   3.183   4.366 -1.9909  0.9623  0.3222
 7733TIP3   OH244613   0.826   5.800   0.100 -0.1308 -0.2232 -0.8215
 7733TIP3    H144614   0.775   5.765   0.027  0.0017 -2.2505 -0.0151
 7733TIP3    H244615   0.816   5.735   0.170  3.1975 -0.5501 -0.4818
 7734TIP3   OH244616   1.753   1.398  13.639  0.1931 -0.3741 -0.2863
 7734TIP3    H144617   1.661   1.423  13.637  0.1219 -0.5611  0.4149
 7734TIP3    H244618   1.760   1.327  13.575 -0.3080 -0.8765  0.2042
 7735TIP3   OH244619   2.561   0.202  12.661 -0.3018  0.1363  0.2423
 7735TIP3    H144620   2.538   0.288  12.626  2.4059  0.2893 -1.4519
 7735TIP3    H244621   2.649   0.185  12.628 -0.3212 -2.8698  1.3860
 7736TIP3   OH244622   1.023   5.517  11.410  0.6707  0.0581  0.0814
 7736TIP3    H144623   0.977   5.601  11.405 -0.5405 -0.5593  0.6363
 7736TIP3    H244624   1.112   5.541  11.438  0.0120  1.0608  1.4372
 7737TIP3   OH244625   5.090   2.949   3.712 -0.4153 -0.1623  0.1509
 7737TIP3    H144626   5.159   3.015   3.714 -1.9224  1.5311 -0.6542
 7737TIP3    H244627   5.093   2.914   3.622 -1.7300  1.2361 -0.4725
 7738TIP3   OH244628   5.598   6.727   0.511 -0.5282 -0.5007 -0.0090
 7738TIP3    H144629   5.622   6.670   0.584  0.9805  0.8732  0.6437
 7738TIP3    H244630   5.565   6.806   0.552  3.1919  1.5741 -0.5368
 7739TIP3   OH244631   3.229   5.986   5.199 -0.2470  0.6880 -0.1809
 7739TIP3    H144632   3.235   6.017   5.109  0.8970  0.7521 -0.0904
 7739TIP3    H244633   3.319   5.983   5.230 -0.6521  1.1266  1.1254
 7740TIP3   OH244634   2.441   6.133  16.731 -0.8725  0.4770 -0.3557
 7740TIP3    H144635   2.440   6.226  16.707  0.2147  0.5315 -0.2155
 7740TIP3    H244636   2.529   6.118  16.765 -0.6973 -0.8537 -1.3404
 7741TIP3   OH244637   4.468   2.962   4.319 -0.2031 -0.2433 -0.0571
 7741TIP3    H144638   4.406   2.890   4.315 -2.4000  1.6004 -1.3939
 7741TIP3    H244639   4.425   3.034   4.273  2.7248  1.3254 -0.6106
 7742TIP3   OH244640   6.349   3.431  11.876 -0.1027 -0.0856  0.5369
 7742TIP3    H144641   6.378   3.522  11.879 -2.6368  0.7959  2.8230
 7742TIP3    H244642   6.263   3.435  11.834 -0.0261 -1.5023  0.2069
 7743TIP3   OH244643   1.369   5.470   4.917  0.1458  0.0340  0.2363
 7743TIP3    H144644   1.431   5.517   4.973 -1.3015  1.3668  0.7836
 7743TIP3    H244645   1.283   5.502   4.944 -0.7775 -1.4818 -0.7653
 7744TIP3   OH244646   2.693   5.864   0.767  0.0772  0.1122 -0.1184
 7744TIP3    H144647   2.646   5.782   0.750 -0.7482  0.6141 -0.3075
 7744TIP3    H244648   2.784   5.844   0.744 -0.1787 -0.6394 -0.5344
 7745TIP3   OH244649   0.111   2.103  17.232 -0.0395  0.4593  0.4439
 7745TIP3    H144650   0.198   2.140  17.212  0.3221 -1.3161 -1.7044
 7745TIP3    H244651   0.130   2.017  17.268 -0.8771  0.0002 -0.1831
 7746TIP3   OH244652   2.685   3.359  15.776  0.3097 -0.3764 -0.0112
 7746TIP3    H144653   2.677   3.341  15.870 -0.6293 -0.3300 -0.0683
 7746TIP3    H244654   2.774   3.390  15.765  1.0115 -2.0378  0.5934
 7747TIP3   OH244655   4.860   1.358   5.949 -0.1430 -0.6428 -0.0236
 7747TIP3    H144656   4.845   1.279   5.897 -2.1049  0.1963 -0.8130
 7747TIP3    H244657   4.819   1.339   6.034 -0.5426 -0.5184 -0.1857
 7748TIP3   OH244658   5.684   2.159  16.648  0.2452 -0.4300  0.0388
 7748TIP3    H144659   5.649   2.246  16.627 -0.3122 -0.7454 -0.3363
 7748TIP3    H244660   5.620   2.098  16.613  0.4170 -0.9943  0.6899
 7749TIP3   OH244661   4.667   4.287   1.355  0.0525 -0.0933 -0.5555
 7749TIP3    H144662   4.624   4.260   1.274  0.2559  2.3029 -1.5426
 7749TIP3    H244663   4.740   4.225   1.365 -1.8162 -2.4428 -0.3819
 7750TIP3   OH244664   1.789   6.740   5.993  0.2851 -0.1268 -0.3460
 7750TIP3    H144665   1.796   6.819   6.046 -0.8728  1.0690 -1.9146
 7750TIP3    H244666   1.797   6.668   6.057 -1.6177  1.2376  1.5442
 7751TIP3   OH244667   3.635   2.189   0.011  0.0409 -0.1494  0.3628
 7751TIP3    H144668   3.660   2.097   0.020  2.2850  0.1232 -1.9200
 7751TIP3    H244669   3.712   2.238   0.039 -0.5652  0.9762  0.1161
 7752TIP3   OH244670   3.750   5.889  14.180  0.3837 -0.7812  0.2698
 7752TIP3    H144671   3.842   5.907  14.159 -0.1376  0.1442 -1.3481
 7752TIP3    H244672   3.738   5.923  14.269  1.9473 -2.2481  1.1127
 7753TIP3   OH244673   3.030   2.215   6.070  0.6921 -0.4540 -0.2480
 7753TIP3    H144674   3.057   2.153   6.137 -0.7576 -1.7357 -0.7705
 7753TIP3    H244675   2.934   2.215   6.075  0.4926 -1.0419 -2.6473
 7754TIP3   OH244676   1.370   4.237  13.356 -0.2748 -0.6347  0.3757
 7754TIP3    H144677   1.351   4.296  13.429  0.5299 -0.3229  0.3522
 7754TIP3    H244678   1.316   4.269  13.284 -0.1096 -0.1387  0.4694
 7755TIP3   OH244679   1.825   4.255  15.655  0.3398 -0.2359 -0.0448
 7755TIP3    H144680   1.901   4.235  15.600  0.1424 -0.5108 -0.2163
 7755TIP3    H244681   1.813   4.350  15.645  1.7034  0.1163  1.3297
 7756TIP3   OH244682   2.301   0.840   1.218  0.2644  0.4736  0.7882
 7756TIP3    H144683   2.392   0.860   1.240  1.1377 -1.3460 -0.8409
 7756TIP3    H244684   2.300   0.745   1.204 -1.7546  0.5433  0.1430
 7757TIP3   OH244685   2.960   3.861   0.238 -0.1722  0.1737 -0.1455
 7757TIP3    H144686   3.028   3.794   0.235  0.9810  1.2695  0.2915
 7757TIP3    H244687   2.880   3.814   0.263  1.0329 -0.7233  2.2880
 7758TIP3   OH244688   3.004   3.282  15.334 -0.2136  0.0804  0.3272
 7758TIP3    H144689   3.038   3.252  15.419 -0.3374 -0.2326  0.2641
 7758TIP3    H244690   3.030   3.214  15.272  0.3007  0.5397  0.0225
 7759TIP3   OH244691   0.014   5.095  15.203  0.6220 -0.0896 -0.3481
 7759TIP3    H144692   0.106   5.073  15.213  0.1760 -1.6410  0.7081
 7759TIP3    H244693   0.008   5.187  15.225  1.8892 -0.0108 -0.2903
 7760TIP3   OH244694   5.662   5.225  12.458  0.4417  0.4560  0.6372
 7760TIP3    H144695   5.569   5.234  12.478  0.8850  1.4173  2.5184
 7760TIP3    H244696   5.670   5.255  12.368 -1.1313 -0.1229  0.2746
 7761TIP3   OH244697   3.461   0.205   1.330  0.4382 -0.1431  0.1414
 7761TIP3    H144698   3.518   0.148   1.279 -0.2450 -0.6177 -0.1046
 7761TIP3    H244699   3.418   0.146   1.392  0.6905  0.3098  0.7672
 7762TIP3   OH244700   5.058   3.354  13.454 -0.2527  0.1057  0.4566
 7762TIP3    H144701   5.014   3.346  13.539 -0.5256 -1.1042  0.2268
 7762TIP3    H244702   5.070   3.448  13.442 -0.0417  0.2921  1.9152
 7763TIP3   OH244703   5.512   2.455   1.983 -0.3144  0.0797 -0.1739
 7763TIP3    H144704   5.462   2.385   2.024 -0.8957 -0.4027 -1.6369
 7763TIP3    H244705   5.463   2.477   1.904  0.1689  1.7484 -0.0550
 7764TIP3   OH244706   0.311   6.542  14.234  0.5590 -0.2724  0.1248
 7764TIP3    H144707   0.227   6.578  14.262 -0.3855 -1.8880 -0.5388
 7764TIP3    H244708   0.364   6.539  14.313 -0.2918  0.0013  0.7140
 7765TIP3   OH244709   1.492   0.476  12.006  0.0531  0.1416  0.3140
 7765TIP3    H144710   1.418   0.535  11.998  0.6343  0.9028  0.4360
 7765TIP3    H244711   1.455   0.389  11.991 -0.9304  0.4648  0.7493
 7766TIP3   OH244712   2.544   3.498  12.023 -0.6392  0.0314  0.1890
 7766TIP3    H144713   2.570   3.538  11.940  0.3375  1.1485  0.9971
 7766TIP3    H244714   2.449   3.512  12.028 -0.6610  0.1966 -0.6148
 7767TIP3   OH244715   4.303   3.615  14.056  0.4321  0.0900  0.1936
 7767TIP3    H144716   4.348   3.546  14.009 -0.8104 -0.5883 -0.0548
 7767TIP3    H244717   4.250   3.659  13.989 -0.5040 -0.1757  0.7407
 7768TIP3   OH244718   3.953   6.331   5.796  0.8139 -0.0170  0.3165
 7768TIP3    H144719   4.047   6.350   5.798  1.0451 -1.0267 -0.4562
 7768TIP3    H244720   3.941   6.264   5.864  0.9955 -1.2761 -0.8560
 7769TIP3   OH244721   5.851   0.798   3.533  0.0008 -0.0429  0.1055
 7769TIP3    H144722   5.894   0.715   3.553 -1.1511 -0.6495  0.1412
 7769TIP3    H244723   5.914   0.846   3.481  1.3989 -0.2009  1.5688
 7770TIP3   OH244724   0.217   1.598  16.108 -0.0851  0.6046  0.0648
 7770TIP3    H144725   0.149   1.663  16.087  0.5669  1.3670  0.2439
 7770TIP3    H244726   0.275   1.599  16.032  0.3843  0.8433  0.4227
 7771TIP3   OH244727   4.950   0.262  15.334 -0.0075 -0.2348 -0.0953
 7771TIP3    H144728   4.857   0.265  15.357 -0.4390  0.9100 -1.7635
 7771TIP3    H244729   4.954   0.301  15.247  1.9871 -0.7585 -0.2898
 7772TIP3   OH244730   6.512   0.166   1.884  0.0090  0.7188  0.0703
 7772TIP3    H144731   6.603   0.151   1.858  0.1194  1.9719 -0.3413
 7772TIP3    H244732   6.496   0.102   1.953  0.5742 -0.8354 -1.1654
 7773TIP3   OH244733   5.559   5.587   6.305 -0.3011  0.4818 -0.2415
 7773TIP3    H144734   5.477   5.631   6.326 -0.6805  0.0224 -0.7428
 7773TIP3    H244735   5.538   5.493   6.308  0.4845  0.3180  0.7851
 7774TIP3   OH244736   2.153   5.587   5.797 -0.8659  0.1085  0.0084
 7774TIP3    H144737   2.186   5.668   5.836 -0.3782 -0.4669  0.8499
 7774TIP3    H244738   2.213   5.520   5.830 -2.1844 -0.8190  0.6301
 7775TIP3   OH244739   4.670   5.295  15.246  0.2252  0.1048  0.1395
 7775TIP3    H144740   4.735   5.337  15.191 -1.9187  2.5172 -0.7892
 7775TIP3    H244741   4.645   5.215  15.199 -0.1699  1.1304 -1.4685
 7776TIP3   OH244742   1.473   1.874   0.836  0.3974  0.6436 -0.1150
 7776TIP3    H144743   1.402   1.937   0.849 -1.8338 -1.8339  0.5777
 7776TIP3    H244744   1.467   1.848   0.744  1.2391  1.2942 -0.3706
 7777TIP3   OH244745   1.167   6.144  12.234 -0.4449 -0.4842 -0.0712
 7777TIP3    H144746   1.081   6.185  12.244 -1.1594 -1.9121 -0.1087
 7777TIP3    H244747   1.181   6.139  12.140  0.6569  1.6293 -0.0779
 7778TIP3   OH244748   4.346   1.896  14.145  0.0536 -0.1040  0.0364
 7778TIP3    H144749   4.431   1.888  14.188 -0.7988  0.7151  1.9808
 7778TIP3    H244750   4.307   1.975  14.183 -1.5848 -0.4503 -0.8183
 7779TIP3   OH244751   1.475   0.135  16.391  0.1396  0.0369 -0.1376
 7779TIP3    H144752   1.417   0.059  16.388  0.1205  0.0131  0.6211
 7779TIP3    H244753   1.463   0.178  16.306 -0.9749  0.0218 -0.0056
 7780TIP3   OH244754   5.937   3.412   4.918 -0.4215 -0.0963  0.4189
 7780TIP3    H144755   5.970   3.366   4.842 -1.5702  0.0990 -0.2224
 7780TIP3    H244756   6.011   3.414   4.979  0.3548 -0.7024 -0.4740
 7781TIP3   OH244757   3.279   4.952  13.403 -0.2077 -0.0404 -0.3625
 7781TIP3    H144758   3.351   5.016  13.408 -1.0429  0.8862  0.1580
 7781TIP3    H244759   3.316   4.871  13.438 -0.0652  1.0337  2.1604
 7782TIP3   OH244760   6.280   1.242  13.394 -0.4247 -0.6377 -0.1952
 7782TIP3    H144761   6.253   1.299  13.322  0.0995 -1.4914 -1.1055
 7782TIP3    H244762   6.199   1.225  13.443 -0.2204  2.8223  1.6278
 7783TIP3   OH244763   0.079   1.925  11.380  0.2318 -0.7471  0.5998
 7783TIP3    H144764   0.090   2.020  11.375  0.1053 -0.7885 -1.0585
 7783TIP3    H244765   0.145   1.896  11.444  1.1401  0.3311  0.1859
 7784TIP3   OH244766   2.491   1.344  12.165  0.6782  0.8542  0.9033
 7784TIP3    H144767   2.507   1.429  12.123  1.5401  0.3071  0.0909
 7784TIP3    H244768   2.397   1.345  12.186  0.3429  1.3846 -0.5092
 7785TIP3   OH244769   0.801   2.507  14.118  0.5255 -0.2746 -0.0465
 7785TIP3    H144770   0.748   2.502  14.197  1.0374 -3.2382  0.2195
 7785TIP3    H244771   0.868   2.573  14.138  0.6239 -0.9270  2.0144
 7786TIP3   OH244772   2.567   2.360   3.182 -0.0078  0.3783  0.1062
 7786TIP3    H144773   2.619   2.412   3.120  0.6992  0.6231  0.8797
 7786TIP3    H244774   2.605   2.272   3.176 -1.7032 -0.3014 -1.7703
 7787TIP3   OH244775   1.662   4.110  12.246  0.6518 -0.3045 -0.1047
 7787TIP3    H144776   1.636   4.191  12.201 -0.8978 -0.5842  0.2217
 7787TIP3    H244777   1.688   4.052  12.175 -0.5191 -0.2975 -0.5718
 7788TIP3   OH244778   0.124   2.021  15.092 -0.7935  0.5169  0.1975
 7788TIP3    H144779   0.124   1.961  15.017  2.2490  0.2900  0.2663
 7788TIP3    H244780   0.068   1.978  15.156  0.3470 -1.7468 -0.2110
 7789TIP3   OH244781   4.275   2.811  11.753  0.1639  0.0021 -0.9387
 7789TIP3    H144782   4.196   2.779  11.796  0.4507  1.0695  0.4484
 7789TIP3    H244783   4.256   2.904  11.735  1.3358  0.4555  0.0502
 7790TIP3   OH244784   4.600   6.324   4.890 -0.8628  0.4482  0.1736
 7790TIP3    H144785   4.581   6.418   4.892 -2.0153  0.2330 -0.0084
 7790TIP3    H244786   4.526   6.286   4.844 -1.6393 -0.8264  2.3225
 7791TIP3   OH244787   1.313   4.039   0.877  0.5377 -0.2754 -0.1909
 7791TIP3    H144788   1.293   4.107   0.813 -0.1218 -0.1117  0.1778
 7791TIP3    H244789   1.400   4.060   0.908  0.3793  0.3468 -0.1559
 7792TIP3   OH244790   6.614   3.304  13.117 -0.1825  0.0346  0.6102
 7792TIP3    H144791   6.673   3.322  13.191 -0.6970 -2.0227  1.5917
 7792TIP3    H244792   6.530   3.285  13.158 -0.7813  0.0347 -0.5972
 7793TIP3   OH244793   5.466   5.775  13.932 -0.1543  0.5170 -0.2250
 7793TIP3    H144794   5.466   5.701  13.872 -0.9379  0.2991  0.0339
 7793TIP3    H244795   5.416   5.843  13.887  0.6098  0.9186 -0.4856
 7794TIP3   OH244796   5.774   0.831   0.343 -0.1714 -0.1258  0.0165
 7794TIP3    H144797   5.684   0.856   0.322 -0.6049 -1.5467  0.1197
 7794TIP3    H244798   5.772   0.736   0.347  1.1681 -0.1351  0.8123
 7795TIP3   OH244799   2.934   3.523  14.202 -0.1900  0.4921 -0.0560
 7795TIP3    H144800   2.984   3.604  14.199  0.0778  0.3524  0.6529
 7795TIP3    H244801   2.843   3.552  14.211 -0.3325  0.7599 -1.8420
 7796TIP3   OH244802   3.946   3.340  13.460 -0.5332  0.0989  0.3696
 7796TIP3    H144803   3.888   3.409  13.428 -0.6945 -0.2221 -0.0388
 7796TIP3    H244804   3.887   3.270  13.489 -0.3650 -0.0338  0.3949
 7797TIP3   OH244805   4.434   0.808   1.244 -0.4352 -0.1666 -0.5684
 7797TIP3    H144806   4.511   0.764   1.209  1.0075 -1.1009  3.2663
 7797TIP3    H244807   4.457   0.901   1.244  1.2772 -0.5305  1.5796
 7798TIP3   OH244808   0.673   0.134   3.452  0.3686 -0.5992 -0.0063
 7798TIP3    H144809   0.610   0.170   3.513  0.2617 -0.5995 -0.1160
 7798TIP3    H244810   0.637   0.155   3.365  0.8489 -0.0116 -0.0695
 7799TIP3   OH244811   2.724   0.506  13.770 -0.0280  0.1421 -0.2310
 7799TIP3    H144812   2.783   0.431  13.766  0.1958  0.1393  1.8686
 7799TIP3    H244813   2.773   0.578  13.731  1.9795  0.4432  2.5532
 7800TIP3   OH244814   3.501   0.457   4.584 -0.4572 -0.1369  0.4645
 7800TIP3    H144815   3.416   0.470   4.624 -0.0613 -0.2823  1.3772
 7800TIP3    H244816   3.556   0.424   4.655  0.5825  0.7700  0.1012
 7801TIP3   OH244817   1.793   5.987  14.833  0.1296 -0.0947 -0.1039
 7801TIP3    H144818   1.865   5.955  14.779  0.0478 -1.3383  0.4973
 7801TIP3    H244819   1.716   5.944  14.798  0.1496 -1.3808  1.3259
 7802TIP3   OH244820   0.951   1.416  17.252 -0.1948  0.3252  0.2044
 7802TIP3    H144821   0.990   1.496  17.285  1.1850 -0.0047 -0.5490
 7802TIP3    H244822   0.948   1.357  17.327  0.4408  0.4799  0.3504
 7803TIP3   OH244823   0.274   4.819  14.946 -0.0636 -0.5818 -0.1647
 7803TIP3    H144824   0.186   4.840  14.914  0.1263  0.8379  0.2142
 7803TIP3    H244825   0.267   4.728  14.974 -1.4285 -0.4790 -0.0938
 7804TIP3   OH244826   0.181   0.403  16.279  0.1128  0.7911  0.7978
 7804TIP3    H144827   0.230   0.387  16.198 -1.4366  2.1498 -0.4718
 7804TIP3    H244828   0.162   0.496  16.278 -1.2089  0.5774  1.9973
 7805TIP3   OH244829   4.613   2.574  13.705 -0.5746  0.2825  0.4409
 7805TIP3    H144830   4.682   2.508  13.697  1.7613  2.6299 -0.1913
 7805TIP3    H244831   4.547   2.548  13.642  0.0039 -1.7042  0.5940
 7806TIP3   OH244832   3.659   2.510  12.729 -0.1416 -0.1291  0.9230
 7806TIP3    H144833   3.720   2.453  12.776  1.0507 -1.3755 -1.8711
 7806TIP3    H244834   3.703   2.595  12.727 -0.3701  0.0359  2.2779
 7807TIP3   OH244835   1.493   0.662  14.139 -0.0796 -0.0210 -0.0736
 7807TIP3    H144836   1.427   0.630  14.200 -0.9448 -1.5834 -1.7364
 7807TIP3    H244837   1.472   0.619  14.056  1.3147  1.6719 -1.3802
 7808TIP3   OH244838   3.971   1.407   5.522  0.2534 -0.3261 -0.1247
 7808TIP3    H144839   3.969   1.312   5.534 -1.5480 -0.1653  1.3332
 7808TIP3    H244840   4.048   1.436   5.569 -1.0728 -0.7843  2.4946
 7809TIP3   OH244841   4.858   2.513   4.790 -0.6212 -0.2574  0.8284
 7809TIP3    H144842   4.943   2.531   4.830  0.4863 -1.4101 -0.8708
 7809TIP3    H244843   4.858   2.563   4.709 -1.0614 -1.1465  0.2541
 7810TIP3   OH244844   4.682   0.950  10.595 -0.0013 -0.1827  0.3690
 7810TIP3    H144845   4.633   0.869  10.588  0.2243 -0.3751  0.9561
 7810TIP3    H244846   4.617   1.016  10.619 -0.0352 -0.3701  0.8049
 7811TIP3   OH244847   2.069   1.706  14.493 -0.4788 -0.5044  0.7945
 7811TIP3    H144848   2.139   1.724  14.557  0.1964  2.6144 -0.6010
 7811TIP3    H244849   2.105   1.638  14.437  2.1581  1.7953 -0.6103
 7812TIP3   OH244850   3.047   0.608  13.474 -0.4560 -0.2243 -0.6862
 7812TIP3    H144851   3.134   0.625  13.438 -0.0733  0.3649  0.4649
 7812TIP3    H244852   3.049   0.515  13.499 -0.2384 -0.2728 -0.8874
 7813TIP3   OH244853   6.065   5.751  15.841  0.4480 -0.0984  0.3496
 7813TIP3    H144854   6.108   5.744  15.756 -0.8220 -0.3966 -0.3027
 7813TIP3    H244855   6.084   5.840  15.871  1.8658 -0.3677  0.3100
 7814TIP3   OH244856   0.776   2.030   6.614  0.1557  0.0594  0.1039
 7814TIP3    H144857   0.705   2.078   6.657 -0.2936  0.6439 -1.2339
 7814TIP3    H244858   0.744   1.940   6.608 -0.4754  0.3112 -0.4483
 7815TIP3   OH244859   6.224   3.776   5.230  0.2476  0.4885 -0.2620
 7815TIP3    H144860   6.168   3.762   5.154  2.0421  0.0869 -1.5726
 7815TIP3    H244861   6.245   3.869   5.229 -1.5271  0.9716  1.1233
 7816TIP3   OH244862   4.036   0.270  14.138 -0.2944 -0.3670  1.3269
 7816TIP3    H144863   4.061   0.348  14.088 -0.7017 -0.9089  0.2469
 7816TIP3    H244864   4.067   0.197  14.085 -1.6598 -0.9863  1.3537
 7817TIP3   OH244865   3.312   6.024  14.062  0.1849  0.1694  0.3145
 7817TIP3    H144866   3.306   6.021  14.158 -1.1822 -0.9501  0.2144
 7817TIP3    H244867   3.398   6.062  14.045  1.7377 -2.3187  1.9914
 7818TIP3   OH244868   6.410   5.925  12.706  0.1193  0.2640  0.5132
 7818TIP3    H144869   6.360   6.006  12.699 -0.9617 -0.4374 -0.1891
 7818TIP3    H244870   6.478   5.944  12.770 -1.9198  0.8288  2.6493
 7819TIP3   OH244871   1.391   2.395  12.708 -0.5739  0.1604 -0.3604
 7819TIP3    H144872   1.394   2.431  12.619 -1.9183 -0.2550 -0.6026
 7819TIP3    H244873   1.337   2.458  12.757 -1.6836 -0.7058 -0.4173
 7820TIP3   OH244874   0.834   3.252   5.317  0.1695 -0.0593  0.0280
 7820TIP3    H144875   0.890   3.175   5.309 -0.2135 -0.2182 -1.3575
 7820TIP3    H244876   0.893   3.323   5.343  0.6487 -0.6419  0.5713
 7821TIP3   OH244877   2.986   3.022  12.611  0.7732  0.2586  0.1547
 7821TIP3    H144878   2.917   3.085  12.593  0.1334 -0.3086  0.5825
 7821TIP3    H244879   3.032   3.059  12.686  1.1823  0.8241 -0.3645
 7822TIP3   OH244880   1.700   0.438   2.767 -0.4444  0.5335  0.3419
 7822TIP3    H144881   1.683   0.454   2.860  0.8477  1.9219  0.3707
 7822TIP3    H244882   1.795   0.429   2.761 -0.3947  1.6257 -0.9969
 7823TIP3   OH244883   6.299   6.151  12.617 -0.1953 -0.0494  0.2589
 7823TIP3    H144884   6.282   6.104  12.535  0.6240 -0.6152  0.4053
 7823TIP3    H244885   6.237   6.224  12.616 -0.1377 -0.0008 -0.9033
 7824TIP3   OH244886   1.054   5.261  13.928  0.0282 -0.3982  0.0759
 7824TIP3    H144887   0.978   5.311  13.897 -0.0163  0.9755  2.2335
 7824TIP3    H244888   1.050   5.267  14.023  0.4191 -4.0000  0.4684
 7825TIP3   OH244889   6.669   5.544  16.145 -0.3577 -0.1337 -0.5268
 7825TIP3    H144890   6.718   5.515  16.068 -0.3960 -2.0213  0.1120
 7825TIP3    H244891   6.580   5.512  16.129 -1.7320  3.8186 -1.9990
 7826TIP3   OH244892   6.207   1.124  16.169  0.4332  0.4608  0.0112
 7826TIP3    H144893   6.257   1.197  16.204 -0.2211  1.1050 -0.3586
 7826TIP3    H244894   6.159   1.089  16.244  1.2395 -0.0048  0.3178
 7827TIP3   OH244895   2.167   1.361   1.438 -0.4530  0.6406 -0.3048
 7827TIP3    H144896   2.232   1.360   1.367 -0.9605  2.3298 -0.8272
 7827TIP3    H244897   2.102   1.295   1.412  0.6900 -0.6245 -0.0782
 7828TIP3   OH244898   1.206   1.769   2.600  0.2625 -0.2062 -0.1059
 7828TIP3    H144899   1.152   1.700   2.563 -1.4173  2.3209 -2.8844
 7828TIP3    H244900   1.276   1.781   2.536 -0.5470  1.7939 -0.7026
 7829TIP3   OH244901   0.524   4.885  11.141 -0.2472  0.0822  0.4903
 7829TIP3    H144902   0.527   4.826  11.217  1.6114 -0.1646  0.2776
 7829TIP3    H244903   0.610   4.927  11.140 -0.4378  0.5069 -1.1474
 7830TIP3   OH244904   1.927   6.086  12.964 -0.1127 -0.5243  0.4616
 7830TIP3    H144905   1.918   6.140  13.042 -1.0108 -1.4202  1.0014
 7830TIP3    H244906   1.987   6.016  12.990  0.9482  0.1020 -0.1952
 7831TIP3   OH244907   6.424   5.779   2.508  0.3726  0.1808  0.1454
 7831TIP3    H144908   6.494   5.802   2.570  1.7215 -2.3336 -0.2827
 7831TIP3    H244909   6.376   5.709   2.552  0.0389 -0.1965 -0.7962
 7832TIP3   OH244910   1.529   2.965   6.309  0.1237  0.2601  0.2193
 7832TIP3    H144911   1.560   3.000   6.226  0.2657 -1.3163 -0.4241
 7832TIP3    H244912   1.488   3.040   6.353 -0.9608  0.8981 -1.7510
 7833TIP3   OH244913   5.143   0.275  16.641  0.1761 -0.1214  0.5588
 7833TIP3    H144914   5.069   0.222  16.669  0.6421 -1.4032 -0.5323
 7833TIP3    H244915   5.219   0.218  16.651  0.8839  0.8242  0.6989
 7834TIP3   OH244916   2.303   1.313   0.565 -0.6878 -0.4027 -0.0853
 7834TIP3    H144917   2.374   1.361   0.521 -2.2635  0.8015 -1.4273
 7834TIP3    H244918   2.237   1.379   0.584 -1.1770 -1.3831  1.8166
 7835TIP3   OH244919   6.151   5.222  10.902  0.0307 -0.5595 -0.4063
 7835TIP3    H144920   6.092   5.285  10.861  0.9940  1.0770  0.5798
 7835TIP3    H244921   6.116   5.211  10.991 -0.3634 -1.7775 -0.6882
 7836TIP3   OH244922   2.345   4.224   5.431 -0.3233 -0.2980  0.3171
 7836TIP3    H144923   2.397   4.165   5.376  0.4736  0.4881  0.2156
 7836TIP3    H244924   2.385   4.220   5.517  0.0385  0.4522  0.1931
 7837TIP3   OH244925   5.165   2.565  16.662 -0.2273  0.4430  0.1188
 7837TIP3    H144926   5.254   2.575  16.696  0.0200 -0.2487 -0.2942
 7837TIP3    H244927   5.142   2.474  16.681 -1.0279  0.7534  0.6366
 7838TIP3   OH244928   0.628   3.129  12.215 -0.3033  0.5633 -0.1457
 7838TIP3    H144929   0.619   3.162  12.126  0.9783 -0.8961 -0.8544
 7838TIP3    H244930   0.540   3.097  12.238 -0.2946 -0.5008 -1.4985
 7839TIP3   OH244931   1.190   4.790   0.557 -0.0225 -0.0529  0.2884
 7839TIP3    H144932   1.127   4.764   0.489  0.7859  2.3259 -1.5119
 7839TIP3    H244933   1.139   4.845   0.616  0.0503  0.8268 -0.4515
 7840TIP3   OH244934   2.974   6.318   1.168 -0.0728  0.5706  0.2241
 7840TIP3    H144935   3.066   6.293   1.174  0.1060  0.6581 -1.6114
 7840TIP3    H244936   2.975   6.410   1.143 -0.6695  0.6642  0.5129
 7841TIP3   OH244937   2.926   5.940  15.204 -0.4228 -0.3289  0.8018
 7841TIP3    H144938   2.914   6.027  15.242 -0.5997 -0.6576  1.5075
 7841TIP3    H244939   3.021   5.928  15.202 -0.2934  0.6260 -1.0374
 7842TIP3   OH244940   3.026   3.233  12.235 -0.0618 -0.8980  0.5104
 7842TIP3    H144941   3.007   3.308  12.179  0.1456 -0.9480  0.3712
 7842TIP3    H244942   3.076   3.173  12.179 -0.7313 -1.4007  0.4344
 7843TIP3   OH244943   6.619   5.257  12.513  0.3975  0.3411  0.3762
 7843TIP3    H144944   6.568   5.234  12.591 -0.1768  0.0513 -0.0745
 7843TIP3    H244945   6.655   5.344  12.533 -3.0692  2.1879 -0.5557
 7844TIP3   OH244946   5.582   6.729   5.540 -0.3175  0.7652 -0.0312
 7844TIP3    H144947   5.595   6.692   5.628 -0.0487 -0.4692 -0.5723
 7844TIP3    H244948   5.558   6.820   5.556 -1.9217  0.1428  1.4119
 7845TIP3   OH244949   1.724   6.657   0.009  0.4758 -0.1908 -0.5543
 7845TIP3    H144950   1.661   6.611  -0.047  0.7918  1.3491 -2.3020
 7845TIP3    H244951   1.808   6.614  -0.008  0.2603 -0.9518  0.2388
 7846TIP3   OH244952   5.226   0.010  16.617 -0.1139 -0.4720 -0.0655
 7846TIP3    H144953   5.133   0.010  16.595 -0.0602  0.7525 -0.3747
 7846TIP3    H244954   5.231  -0.034  16.702 -1.0681  0.0838  0.2912
 7847TIP3   OH244955   6.224   3.296   1.131  0.0550 -0.5041 -0.4122
 7847TIP3    H144956   6.309   3.258   1.108 -0.0892  0.3906 -2.6420
 7847TIP3    H244957   6.244   3.360   1.199  1.7166  1.7539 -2.8111
 7848TIP3   OH244958   6.741   0.070  17.036 -0.3465 -0.1867 -0.5107
 7848TIP3    H144959   6.815   0.019  17.070 -0.3569  0.6467  0.8364
 7848TIP3    H244960   6.665   0.015  17.054 -0.4288  0.4955  1.5023
 7849TIP3   OH244961   6.768   2.262   5.972 -0.5789  0.1951  0.0108
 7849TIP3    H144962   6.711   2.195   6.009 -0.6359 -0.5618 -1.3636
 7849TIP3    H244963   6.755   2.339   6.027 -2.2753 -0.2217  0.2441
 7850TIP3   OH244964   4.526   5.326   5.629  1.0787 -0.2240 -0.3091
 7850TIP3    H144965   4.606   5.375   5.647  0.8631  0.6195 -1.5363
 7850TIP3    H244966   4.463   5.392   5.602  0.6651 -1.1286 -1.6439
 7851TIP3   OH244967   2.696   4.279   3.375 -0.1048 -0.1880  0.0908
 7851TIP3    H144968   2.719   4.186   3.369 -0.5032 -0.3355  0.7593
 7851TIP3    H244969   2.739   4.309   3.455 -2.5072 -0.5887  1.6671
 7852TIP3   OH244970   5.180   1.380  14.154 -0.3833 -0.0501  0.0504
 7852TIP3    H144971   5.113   1.336  14.207 -0.2876 -0.5861 -0.2783
 7852TIP3    H244972   5.181   1.333  14.071 -1.7006  1.7800 -1.0971
 7853TIP3   OH244973   5.219   5.258   0.808  0.1893 -0.0769 -0.8491
 7853TIP3    H144974   5.154   5.188   0.797  1.0549 -0.8450 -1.1602
 7853TIP3    H244975   5.299   5.222   0.771  1.1873  0.3134  0.8503
 7854TIP3   OH244976   2.229   5.626  14.818  0.2347 -0.1687  0.7164
 7854TIP3    H144977   2.238   5.626  14.723 -1.3183 -2.2125  0.5139
 7854TIP3    H244978   2.273   5.546  14.846 -0.2257 -0.1198  1.6159
 7855TIP3   OH244979   2.212   6.663   1.848 -0.4846 -0.5518 -0.4684
 7855TIP3    H144980   2.218   6.736   1.786 -1.3528  0.3700  0.4887
 7855TIP3    H244981   2.169   6.700   1.925  0.4504 -1.6913  0.6572
 7856TIP3   OH244982   4.992   5.564   3.954  0.7880 -0.5886 -0.7500
 7856TIP3    H144983   5.023   5.473   3.959  2.1432 -0.1062  0.1034
 7856TIP3    H244984   5.034   5.608   4.028 -2.0154  0.1371  0.5436
 7857TIP3   OH244985   1.324   2.849   2.779 -0.0126  0.1877  0.3110
 7857TIP3    H144986   1.325   2.880   2.870  1.8796  0.8412  0.1061
 7857TIP3    H244987   1.347   2.756   2.786  1.7019  0.5983  0.4169
 7858TIP3   OH244988   2.185   0.400  17.064  0.4128 -0.1249  0.1755
 7858TIP3    H144989   2.255   0.360  17.115  1.7223  1.3343 -0.4059
 7858TIP3    H244990   2.226   0.424  16.981 -0.9728  0.0536 -0.4839
 7859TIP3   OH244991   4.239   1.811   4.422 -0.0977 -0.2400 -0.0326
 7859TIP3    H144992   4.310   1.785   4.363 -1.0862 -2.9373 -0.2272
 7859TIP3    H244993   4.204   1.892   4.384  0.6918 -0.7266 -1.9172
 7860TIP3   OH244994   0.518   2.613  12.103  0.3698  0.2982 -0.1624
 7860TIP3    H144995   0.488   2.631  12.192 -2.6518  3.6392 -1.5920
 7860TIP3    H244996   0.531   2.519  12.101 -2.5616 -0.3761  3.0018
 7861TIP3   OH244997   0.732   2.436   0.978 -0.0885 -0.1355 -0.1871
 7861TIP3    H144998   0.791   2.412   0.907  0.2954 -1.4217  0.5365
 7861TIP3    H244999   0.784   2.490   1.037 -0.0832  0.0091 -0.3253
 7862TIP3   OH245000   1.920   1.923  14.461  0.2153 -0.4459  0.2275
 7862TIP3    H145001   1.969   1.955  14.537 -1.0814 -1.3893  1.5425
 7862TIP3    H245002   1.941   1.830  14.457 -0.5968 -0.6310  0.1345
 7863TIP3   OH245003   3.481   1.604   3.970 -0.2952  0.7435 -0.3583
 7863TIP3    H145004   3.511   1.537   3.909  3.4189  0.3761  1.5568
 7863TIP3    H245005   3.522   1.685   3.939  1.1898  0.6515  1.1910
 7864TIP3   OH245006   5.933   6.079   2.449  0.0371 -0.8348 -0.5571
 7864TIP3    H145007   6.013   6.026   2.447  1.8051  1.5909 -0.2039
 7864TIP3    H245008   5.934   6.126   2.366 -0.8770 -0.6028 -0.4425
 7865TIP3   OH245009   0.348   0.526   4.336 -0.1624  0.1856  0.0314
 7865TIP3    H145010   0.271   0.510   4.282  0.4657 -0.3374 -0.7350
 7865TIP3    H245011   0.400   0.589   4.285  1.2737 -1.6292 -0.8447
 7866TIP3   OH245012   1.606   2.409   2.542 -0.0206 -0.6355  0.5763
 7866TIP3    H145013   1.625   2.353   2.617  1.2808  0.4129  1.0685
 7866TIP3    H245014   1.687   2.458   2.526  0.2343 -1.7905 -2.4010
 7867TIP3   OH245015   6.121   1.289   4.484  0.0568 -0.8369 -0.1304
 7867TIP3    H145016   6.114   1.377   4.520 -0.2871 -0.8983 -0.0400
 7867TIP3    H245017   6.210   1.284   4.449 -0.3562  0.0168 -1.3718
 7868TIP3   OH245018   5.951   6.363   0.492  0.0774  0.3152 -0.8439
 7868TIP3    H145019   5.911   6.345   0.407  1.4546 -0.8258 -1.2931
 7868TIP3    H245020   6.036   6.320   0.488  0.0475 -0.0518  1.2379
 7869TIP3   OH245021   0.065   5.516  13.512 -1.0047 -0.0025 -0.2578
 7869TIP3    H145022   0.035   5.580  13.577 -0.8104 -0.7965  0.6147
 7869TIP3    H245023   0.039   5.555  13.428 -0.9763  1.1797  0.2591
 7870TIP3   OH245024   1.483   5.518  14.663 -0.2045 -0.5134 -0.0088
 7870TIP3    H145025   1.433   5.582  14.714  0.6473  0.7664 -0.7218
 7870TIP3    H245026   1.446   5.522  14.575 -0.2032 -1.0716 -0.0388
 7871TIP3   OH245027   1.561   4.906  14.146  0.0665  0.0123 -0.6071
 7871TIP3    H145028   1.566   4.864  14.061 -4.1559  1.5591 -1.8537
 7871TIP3    H245029   1.613   4.986  14.137 -0.8392  0.4733 -2.0181
 7872TIP3   OH245030   6.599   2.411  12.069  0.6069  0.6199 -0.3822
 7872TIP3    H145031   6.523   2.363  12.037  0.0716 -0.7594  2.5545
 7872TIP3    H245032   6.673   2.353  12.050  0.3863  0.1349  0.2010
 7873TIP3   OH245033   0.219   4.398  11.837 -0.4155 -0.2182  0.7402
 7873TIP3    H145034   0.260   4.389  11.751 -1.4201  2.4449 -0.1195
 7873TIP3    H245035   0.194   4.490  11.842 -2.9582 -0.9099  2.7138
 7874TIP3   OH245036   3.588   0.290   0.460 -0.5725  0.5046 -0.5713
 7874TIP3    H145037   3.582   0.377   0.499  1.2689  0.0881  0.7874
 7874TIP3    H245038   3.572   0.303   0.367 -0.4097  2.2877 -0.3717
 7875TIP3   OH245039   1.657   2.634  16.999  0.4193 -0.0779  0.5694
 7875TIP3    H145040   1.573   2.674  16.975  1.2057  1.5025  0.3099
 7875TIP3    H245041   1.688   2.687  17.072  0.7512 -1.2619  1.3052
 7876TIP3   OH245042   4.919   3.027   1.890 -0.8127  0.0610  0.2270
 7876TIP3    H145043   4.885   3.089   1.825 -3.0359 -2.2423 -0.9915
 7876TIP3    H245044   4.841   2.983   1.924  0.6766 -2.9450  0.0662
 7877TIP3   OH245045   4.375   6.406  13.667 -0.3574 -0.1153  0.3551
 7877TIP3    H145046   4.341   6.467  13.732 -0.5531 -0.0093  0.1573
 7877TIP3    H245047   4.470   6.412  13.675 -0.3343  1.0796 -0.4347
 7878TIP3   OH245048   2.050   6.030   2.051 -0.0209  0.3209  0.4682
 7878TIP3    H145049   2.111   6.057   1.982 -0.9601 -1.9840 -1.3760
 7878TIP3    H245050   2.091   6.061   2.132  2.0154  1.5750 -0.9357
 7879TIP3   OH245051   3.633   0.016   0.401  0.4115 -0.1313  0.0187
 7879TIP3    H145052   3.674  -0.040   0.467  2.5058  1.2548 -0.0049
 7879TIP3    H245053   3.646   0.105   0.433 -1.1951  0.4710 -0.8444
 7880TIP3   OH245054   1.330   5.230  12.182  0.6048 -0.6186 -0.2136
 7880TIP3    H145055   1.377   5.147  12.173  1.1217 -0.2201 -1.2440
 7880TIP3    H245056   1.390   5.296  12.148 -0.5052 -0.0449 -1.1023
 7881TIP3   OH245057   6.131   4.775   6.118  0.0777  0.0586 -0.5594
 7881TIP3    H145058   6.140   4.680   6.110 -0.3542 -0.0637  0.2620
 7881TIP3    H245059   6.212   4.803   6.160 -0.6352 -0.2288  1.0826
 7882TIP3   OH245060   6.181   3.171  12.708  0.2597 -0.5479  0.1160
 7882TIP3    H145061   6.184   3.117  12.787  0.4097  0.2004  0.6362
 7882TIP3    H245062   6.139   3.116  12.642  3.7093 -2.7237 -0.5190
 7883TIP3   OH245063   3.217   2.072  15.079 -0.1329 -0.1453  0.3782
 7883TIP3    H145064   3.150   2.016  15.116  0.2349  0.0369  1.3477
 7883TIP3    H245065   3.190   2.086  14.988 -1.4637  0.0221  0.7868
 7884TIP3   OH245066   5.402   3.473   2.725  0.1583 -0.2608 -1.0738
 7884TIP3    H145067   5.372   3.475   2.816  2.2552 -0.4349 -0.3235
 7884TIP3    H245068   5.354   3.543   2.682 -0.5074  0.1472  0.2863
 7885TIP3   OH245069   2.730   5.031  14.539 -0.2305 -0.1774  0.3092
 7885TIP3    H145070   2.777   4.955  14.505  1.7593  1.1111  0.0162
 7885TIP3    H245071   2.650   5.036  14.487  0.6310 -0.8602 -1.1187
 7886TIP3   OH245072   3.758   3.758  12.444 -0.4763 -0.0925 -0.4392
 7886TIP3    H145073   3.760   3.685  12.381 -0.2709  0.5297 -1.1681
 7886TIP3    H245074   3.715   3.829  12.396 -0.0144  0.4936  0.0140
 7887TIP3   OH245075   0.464   3.446   2.056 -0.7726  0.3111  0.2021
 7887TIP3    H145076   0.522   3.414   2.125  1.0715 -1.5031 -2.0186
 7887TIP3    H245077   0.463   3.541   2.068  1.6427  0.3013  1.1553
 7888TIP3   OH245078   5.529   5.600  15.503 -0.2995 -0.2805 -0.3871
 7888TIP3    H145079   5.494   5.689  15.513 -1.4105 -0.9259  2.4705
 7888TIP3    H245080   5.474   5.560  15.436 -0.3635  0.8791 -1.0695
 7889TIP3   OH245081   0.858   5.069   1.594  0.8763  0.0008 -0.3073
 7889TIP3    H145082   0.799   5.145   1.599  1.2881  0.3572 -0.7257
 7889TIP3    H245083   0.920   5.092   1.525  0.1322 -1.3506 -1.4833
 7890TIP3   OH245084   4.730   4.535  10.928 -0.8149 -0.7286  0.0492
 7890TIP3    H145085   4.649   4.525  10.879 -0.1181  0.4264 -1.4471
 7890TIP3    H245086   4.795   4.556  10.861  0.7088 -1.5261  1.2177
 7891TIP3   OH245087   0.496   1.147   4.171  0.4216 -0.0068  0.0034
 7891TIP3    H145088   0.453   1.065   4.198  1.9621 -0.6724  0.5505
 7891TIP3    H245089   0.526   1.130   4.082  0.1856  0.1870 -0.1119
 7892TIP3   OH245090   0.335   4.575   5.054  0.0529  0.2730  0.0065
 7892TIP3    H145091   0.365   4.529   5.132 -0.5178  1.6332  1.0718
 7892TIP3    H245092   0.273   4.515   5.012 -0.6503  0.0560  1.3327
 7893TIP3   OH245093   3.545   5.225  11.194 -0.1760  0.1030 -0.1167
 7893TIP3    H145094   3.536   5.305  11.246 -0.8320 -0.3875  0.5562
 7893TIP3    H245095   3.456   5.206  11.164  0.1530  0.2263 -1.2053
 7894TIP3   OH245096   6.552   4.856   0.323  0.2515  0.0753 -0.3657
 7894TIP3    H145097   6.544   4.939   0.275  0.7117 -0.0730 -0.7052
 7894TIP3    H245098   6.540   4.881   0.415 -1.2846  0.2683 -0.5891
 7895TIP3   OH245099   3.825   6.093   0.020  0.8135  0.5399  0.4956
 7895TIP3    H145100   3.905   6.144   0.009  0.7968  0.4630 -0.0454
 7895TIP3    H245101   3.760   6.157   0.050  0.5203  1.1068 -1.1957
 7896TIP3   OH245102   2.863   3.043  10.272 -0.0697 -0.1696  0.0911
 7896TIP3    H145103   2.784   3.003  10.237 -0.6914  0.0425  1.2027
 7896TIP3    H245104   2.851   3.137  10.259  0.5561 -0.1978 -0.8231
 7897TIP3   OH245105   2.054   4.352   2.684 -0.4690  0.1215 -0.1433
 7897TIP3    H145106   2.059   4.300   2.604  1.0659  2.2946 -1.5708
 7897TIP3    H245107   1.965   4.387   2.685 -1.3177 -1.9133  0.5123
 7898TIP3   OH245108   5.844   6.316  13.899  0.3698 -0.1333  0.3588
 7898TIP3    H145109   5.839   6.288  13.991 -2.8822  1.2846  0.7563
 7898TIP3    H245110   5.921   6.373  13.896  0.0951  0.4483  2.4390
 7899TIP3   OH245111   1.112   2.121   5.434 -0.4728 -0.1338  0.1315
 7899TIP3    H145112   1.143   2.050   5.377 -0.8914 -0.1703 -0.0522
 7899TIP3    H245113   1.186   2.181   5.439 -0.2178 -0.4370  0.0503
 7900TIP3   OH245114   5.181   3.522  13.235 -0.2765  0.3360  0.2129
 7900TIP3    H145115   5.095   3.521  13.276 -0.4365 -0.8048 -0.1281
 7900TIP3    H245116   5.165   3.506  13.142  0.2253  1.1732 -0.0325
 7901TIP3   OH245117   2.537   3.905   6.307  0.2443  0.1834 -0.6065
 7901TIP3    H145118   2.558   3.821   6.349  1.7939 -0.3843 -2.4023
 7901TIP3    H245119   2.577   3.971   6.365 -2.0858 -0.1375  1.5138
 7902TIP3   OH245120   0.309   3.578   0.848  0.0793  0.2182 -0.5752
 7902TIP3    H145121   0.404   3.588   0.845  0.1014  0.1635 -0.1383
 7902TIP3    H245122   0.294   3.507   0.911 -0.4194  3.1938  2.9912
 7903TIP3   OH245123   5.367   6.229  10.987  0.2768 -0.5263 -0.4100
 7903TIP3    H145124   5.345   6.286  10.913  0.8929 -1.0445 -1.0170
 7903TIP3    H245125   5.370   6.287  11.063  0.2383  0.1308 -0.9028
 7904TIP3   OH245126   3.679   4.861  11.028 -0.3454 -0.0760  0.4254
 7904TIP3    H145127   3.736   4.929  11.065  0.2597 -0.3860  0.0765
 7904TIP3    H245128   3.598   4.907  11.005 -0.9682  0.0501  2.5966
 7905TIP3   OH245129   0.709   0.383   1.403  0.0432  0.1936 -0.7333
 7905TIP3    H145130   0.682   0.294   1.426 -0.6658  0.2712 -1.2345
 7905TIP3    H245131   0.733   0.378   1.310 -1.7183  0.8873 -1.2622
 7906TIP3   OH245132   6.363   5.232  11.224 -0.0116 -0.0645 -0.0407
 7906TIP3    H145133   6.318   5.289  11.287  0.4859  0.7779 -0.4392
 7906TIP3    H245134   6.299   5.164  11.204 -1.4546  1.5407 -1.2182
 7907TIP3   OH245135   3.176   2.269  15.637 -0.0067 -0.1177 -0.0555
 7907TIP3    H145136   3.081   2.280  15.640  0.1007  0.7268  2.1320
 7907TIP3    H245137   3.204   2.318  15.560 -1.2526  0.5831 -0.0844
 7908TIP3   OH245138   2.957   6.173   4.205 -0.3642  0.0655 -0.0872
 7908TIP3    H145139   2.937   6.099   4.263 -2.2510 -0.4266 -1.2633
 7908TIP3    H245140   2.958   6.135   4.117  0.8023  1.0903 -0.5411
 7909TIP3   OH245141   0.861   1.684  16.813 -0.0322 -0.0635 -0.3025
 7909TIP3    H145142   0.886   1.638  16.894  1.0056 -0.2895 -0.7330
 7909TIP3    H245143   0.767   1.669  16.805  0.1493 -1.4763 -0.0315
 7910TIP3   OH245144   6.663   3.084   5.598  0.4229  0.6933 -0.1517
 7910TIP3    H145145   6.683   3.057   5.509 -1.1348 -0.9261 -0.0439
 7910TIP3    H245146   6.739   3.055   5.649  0.4812 -0.0569 -0.6551
 7911TIP3   OH245147   2.422   1.867  11.609  0.3492  0.0739 -0.5228
 7911TIP3    H145148   2.387   1.778  11.600 -0.1288  0.4254 -2.6837
 7911TIP3    H245149   2.434   1.878  11.703 -3.8585 -0.6825  0.2927
 7912TIP3   OH245150   5.412   2.245  16.164 -0.5554 -0.2730  0.1124
 7912TIP3    H145151   5.336   2.197  16.196  0.1452 -0.7078  1.1543
 7912TIP3    H245152   5.472   2.177  16.132  1.1269 -0.3124  3.0390
 7913TIP3   OH245153   5.972   2.142   5.726 -0.5094 -0.4227  0.0271
 7913TIP3    H145154   5.961   2.120   5.818  0.3545 -0.0843  0.2220
 7913TIP3    H245155   5.939   2.066   5.678  1.0059 -1.4962  0.6460
 7914TIP3   OH245156   4.694   1.378   4.636  0.2415  0.2049  0.2587
 7914TIP3    H145157   4.721   1.305   4.579  0.1922 -1.2366  1.9841
 7914TIP3    H245158   4.773   1.431   4.645  0.2468  0.4812 -1.1331
 7915TIP3   OH245159   1.665   5.586  16.520  0.3597 -0.6129  0.2767
 7915TIP3    H145160   1.728   5.543  16.578  1.5508  1.9304  1.0353
 7915TIP3    H245161   1.706   5.584  16.434  2.1192  1.9085  0.9389
 7916TIP3   OH245162   4.072   3.171   3.464  0.1909 -0.0160  0.1622
 7916TIP3    H145163   4.114   3.222   3.395 -0.1473 -0.2664 -0.2381
 7916TIP3    H245164   4.126   3.186   3.542 -1.0424  2.6489  0.6174
 7917TIP3   OH245165   1.976   5.044  14.259  0.2230 -0.0116  0.4018
 7917TIP3    H145166   1.955   4.951  14.250 -0.1893 -0.0211  1.3286
 7917TIP3    H245167   2.058   5.046  14.308  1.2204  0.0855 -1.2192
 7918TIP3   OH245168   0.820   4.797   4.977 -0.0145 -0.3534  0.2996
 7918TIP3    H145169   0.823   4.891   4.960 -2.1622 -0.1170  0.9317
 7918TIP3    H245170   0.823   4.757   4.890 -0.5980  0.3713 -0.0672
 7919TIP3   OH245171   4.711   2.064   2.260 -0.3651 -0.5955 -0.1896
 7919TIP3    H145172   4.724   1.985   2.313  0.8044  0.8524  1.8243
 7919TIP3    H245173   4.635   2.107   2.299 -0.5481 -0.3518 -0.7978
 7920TIP3   OH245174   5.658   6.421  16.308  0.1086  0.1499  0.2074
 7920TIP3    H145175   5.751   6.437  16.323  0.5137  1.8339 -3.2129
 7920TIP3    H245176   5.619   6.508  16.307 -0.8880 -0.2777 -1.6269
 7921TIP3   OH245177   5.355   2.469   0.326  0.4165 -0.6306  0.1358
 7921TIP3    H145178   5.274   2.418   0.332  0.0998 -0.0965  0.4909
 7921TIP3    H245179   5.335   2.550   0.372  0.8861 -0.1489 -0.4994
 7922TIP3   OH245180   5.449   0.126   4.079  0.3124  0.4333 -0.6218
 7922TIP3    H145181   5.475   0.044   4.121  0.5259  0.5447 -0.5322
 7922TIP3    H245182   5.462   0.110   3.985 -0.0007  0.2418 -0.6355
 7923TIP3   OH245183   5.742   4.121   5.700 -0.2585  0.4321 -0.2934
 7923TIP3    H145184   5.701   4.205   5.719  0.4785  0.6850  0.2190
 7923TIP3    H245185   5.798   4.104   5.776 -1.7915 -1.4252  0.5072
 7924TIP3   OH245186   2.307   4.990   4.364  0.1643 -0.3075 -0.4614
 7924TIP3    H145187   2.263   4.962   4.444 -1.5697  0.8741 -0.9314
 7924TIP3    H245188   2.400   4.989   4.386 -0.1246 -1.8919  0.9262
 7925TIP3   OH245189   3.752   0.758   4.926 -0.2044  0.2841 -0.1470
 7925TIP3    H145190   3.714   0.704   4.994  1.1561  0.8232  1.0936
 7925TIP3    H245191   3.679   0.807   4.890 -0.9272  0.1384  1.0777
 7926TIP3   OH245192   3.881   1.995  15.437  0.2175 -0.4633 -0.1223
 7926TIP3    H145193   3.905   2.045  15.515  2.7612 -1.6377 -0.0274
 7926TIP3    H245194   3.839   2.058  15.380  1.8956  1.4337  0.6118
 7927TIP3   OH245195   3.128   4.661  16.144 -0.8509 -0.3601  0.1108
 7927TIP3    H145196   3.059   4.658  16.078  0.0491 -1.2938 -0.8293
 7927TIP3    H245197   3.116   4.745  16.188 -0.4511  1.1100 -2.3861
 7928TIP3   OH245198   0.760   2.150  15.938  0.0605 -0.8455 -0.4472
 7928TIP3    H145199   0.850   2.135  15.910 -0.2460  0.1982 -2.1308
 7928TIP3    H245200   0.762   2.237  15.978 -0.2500 -0.6517 -0.8405
 7929TIP3   OH245201   3.182   3.749  11.131 -0.1375 -0.6076  0.4877
 7929TIP3    H145202   3.253   3.811  11.114 -0.3456 -0.3203  0.6541
 7929TIP3    H245203   3.144   3.733  11.045 -0.6216  0.1536  0.5505
 7930TIP3   OH245204   3.908   1.758  12.319 -0.1687 -0.2492  0.0774
 7930TIP3    H145205   3.916   1.718  12.405  2.4784  0.4844  0.2622
 7930TIP3    H245206   3.859   1.838  12.334 -0.5554 -0.6029  0.7279
 7931TIP3   OH245207   4.451   6.116  17.212 -0.4065 -0.7343 -0.0219
 7931TIP3    H145208   4.482   6.085  17.297 -0.3189 -1.0044 -0.1516
 7931TIP3    H245209   4.388   6.186  17.233  0.4155 -0.0544  0.2379
 7932TIP3   OH245210   4.391   5.532  12.759 -0.3408  0.7457 -0.0140
 7932TIP3    H145211   4.471   5.546  12.809 -0.2819  0.7206 -0.1003
 7932TIP3    H245212   4.360   5.620  12.738  0.3700  0.7620 -1.0965
 7933TIP3   OH245213   2.028   3.046  16.521  0.1538 -0.4081 -0.8380
 7933TIP3    H145214   2.120   3.027  16.541  0.1692 -0.2167 -0.7281
 7933TIP3    H245215   1.978   3.006  16.592  0.1416 -0.6382 -0.9757
 7934TIP3   OH245216   0.079   0.676   5.718  0.0386 -1.0010  0.2101
 7934TIP3    H145217   0.173   0.677   5.734  0.0345  0.6608  0.2764
 7934TIP3    H245218   0.040   0.687   5.805 -0.1210  1.3270 -0.1014
 7935TIP3   OH245219   0.016   3.981   6.553  0.5889 -0.2486  0.5952
 7935TIP3    H145220  -0.031   4.048   6.504  0.4980  0.0633  1.1021
 7935TIP3    H245221   0.063   3.930   6.486  3.9532  2.7862  0.3455
 7936TIP3   OH245222   3.653   1.562  13.660  0.0350  0.1346 -0.2154
 7936TIP3    H145223   3.736   1.526  13.691  0.2237 -0.4602 -1.3474
 7936TIP3    H245224   3.626   1.623  13.728  2.0508  1.3272 -0.4244
 7937TIP3   OH245225   0.482   5.498   3.818  0.3323 -0.0793 -0.0889
 7937TIP3    H145226   0.492   5.515   3.912 -2.1024 -2.5460  0.7418
 7937TIP3    H245227   0.463   5.405   3.812  1.4007 -0.2181 -3.1874
 7938TIP3   OH245228   0.587   1.979   0.495  0.0942 -0.6133 -0.0698
 7938TIP3    H145229   0.511   1.988   0.437  1.2009  1.7425 -1.3119
 7938TIP3    H245230   0.652   1.934   0.442  0.1261 -1.1951  0.4461
 7939TIP3   OH245231   4.749   1.977  10.964  0.1238  0.4061  0.1540
 7939TIP3    H145232   4.659   1.966  10.932  0.2244  0.3153 -0.0937
 7939TIP3    H245233   4.792   2.031  10.898  0.6344 -0.6590 -0.4050
 7940TIP3   OH245234   3.118   1.517   1.116  0.0160  0.1850  0.0787
 7940TIP3    H145235   3.148   1.445   1.172  1.1987  1.4405  1.1151
 7940TIP3    H245236   3.104   1.475   1.030  1.0260 -1.2219  0.5510
 7941TIP3   OH245237   1.828   0.680  14.222 -0.4556 -0.1008 -0.6713
 7941TIP3    H145238   1.769   0.735  14.272 -0.0087 -0.1337 -0.1002
 7941TIP3    H245239   1.805   0.591  14.248 -2.3095 -0.3408 -2.8131
 7942TIP3   OH245240   6.600   2.003  13.121 -0.2434  0.5201 -0.1942
 7942TIP3    H145241   6.554   2.011  13.205  1.4069 -1.5942  1.0422
 7942TIP3    H245242   6.554   2.062  13.062 -0.4917  3.3934  2.5932
 7943TIP3   OH245243   1.710   1.034  14.383  0.0273 -0.2378 -0.4905
 7943TIP3    H145244   1.724   0.942  14.360  0.2732 -0.3125 -0.0460
 7943TIP3    H245245   1.642   1.064  14.322  0.0850 -0.6584 -0.7642
 7944TIP3   OH245246   5.138   3.084   1.470  0.0056  0.5636  0.0794
 7944TIP3    H145247   5.097   3.069   1.555 -1.1347  1.4255 -0.3008
 7944TIP3    H245248   5.201   3.012   1.461 -1.9569 -1.2750  0.3300
 7945TIP3   OH245249   6.322   0.460  11.907 -0.0274  0.2158  0.8039
 7945TIP3    H145250   6.414   0.434  11.896  0.1574  0.6178  1.3656
 7945TIP3    H245251   6.303   0.444  11.999 -0.8472 -0.8659  0.4607
 7946TIP3   OH245252   2.626   2.063   1.728 -0.0206 -0.4670 -0.0576
 7946TIP3    H145253   2.538   2.092   1.702  0.0137 -0.0361  0.2889
 7946TIP3    H245254   2.614   2.027   1.816  0.2885  0.3590  0.3309
 7947TIP3   OH245255   6.677   5.659   6.341  0.7200  0.1846  0.4036
 7947TIP3    H145256   6.631   5.639   6.423 -0.0143 -2.2507 -0.5093
 7947TIP3    H245257   6.770   5.660   6.366  0.4319  1.1749  1.5420
 7948TIP3   OH245258   2.176   1.190  11.616 -0.8928 -0.1102  0.6097
 7948TIP3    H145259   2.267   1.189  11.645 -0.8320  0.4136  0.4539
 7948TIP3    H245260   2.153   1.098  11.604  0.2126 -0.1919 -1.2078
 7949TIP3   OH245261   6.283   2.862   2.378 -0.0331 -0.2576 -0.1853
 7949TIP3    H145262   6.193   2.886   2.357 -0.5686 -1.7372  0.2650
 7949TIP3    H245263   6.282   2.766   2.381  1.1338 -0.2695  1.5639
 7950TIP3   OH245264   6.552   3.173  13.394 -0.3008 -0.3718  0.1877
 7950TIP3    H145265   6.609   3.246  13.417 -1.4261  0.2006  1.2523
 7950TIP3    H245266   6.612   3.101  13.375  0.7858  0.2926  0.9996
 7951TIP3   OH245267   1.084   0.752  15.206 -0.5830  0.2904  0.1758
 7951TIP3    H145268   1.057   0.824  15.263  0.3639  1.7606 -1.1684
 7951TIP3    H245269   1.023   0.754  15.132  1.2231  1.7152 -1.3736
 7952TIP3   OH245270   5.592   1.494  13.955 -0.2172 -0.1068 -0.4018
 7952TIP3    H145271   5.557   1.426  14.012  1.3515 -1.8831 -1.3993
 7952TIP3    H245272   5.554   1.475  13.869 -0.9325  1.2501 -0.4134
 7953TIP3   OH245273   6.076   1.346   3.417 -0.1149  0.1859  0.7925
 7953TIP3    H145274   6.129   1.349   3.497 -0.4136 -3.7297  1.3678
 7953TIP3    H245275   5.992   1.311   3.446 -1.4540  1.9280 -0.8030
 7954TIP3   OH245276   2.986   3.439   6.675 -0.0578 -0.3349  0.4119
 7954TIP3    H145277   2.952   3.500   6.610  0.5062 -0.0792  0.3540
 7954TIP3    H245278   3.081   3.454   6.676  0.1198 -1.3828  0.2236
 7955TIP3   OH245279   1.693   0.313  16.907  0.4314 -0.1117  0.1391
 7955TIP3    H145280   1.666   0.403  16.926 -0.3944 -0.8102  2.7256
 7955TIP3    H245281   1.787   0.312  16.923  0.3628  0.1981  0.5831
 7956TIP3   OH245282   0.543   6.487   5.573 -0.7265 -0.0643 -0.1705
 7956TIP3    H145283   0.482   6.487   5.646 -1.1482 -1.6489 -0.4887
 7956TIP3    H245284   0.626   6.459   5.610 -0.1923  1.8386  0.2095
 7957TIP3   OH245285   0.899   6.105  13.943  0.6188  0.6903  0.1112
 7957TIP3    H145286   0.872   6.027  13.893  0.1514  0.2880  0.9585
 7957TIP3    H245287   0.979   6.134  13.900  1.1754 -0.6582  0.1725
 7958TIP3   OH245288   1.277   3.757  13.043  0.3483  1.0187 -0.0886
 7958TIP3    H145289   1.266   3.837  12.991  2.5246  0.9907 -0.7122
 7958TIP3    H245290   1.195   3.748  13.090 -0.2392  3.2376 -0.5405
 7959TIP3   OH245291   5.137   5.408  12.802 -0.2814  0.3818 -0.6511
 7959TIP3    H145292   5.166   5.376  12.888  0.7146  0.0519 -1.0890
 7959TIP3    H245293   5.045   5.431  12.815 -0.3034 -0.1847  0.3637
 7960TIP3   OH245294   5.582   5.872   6.075  0.1321  0.0609 -0.0166
 7960TIP3    H145295   5.612   5.786   6.105 -0.7905  0.3875  2.0108
 7960TIP3    H245296   5.487   5.866   6.077  0.0541  0.8154 -0.8714
 7961TIP3   OH245297   4.613   3.703  14.687  0.2060  0.8653 -0.4120
 7961TIP3    H145298   4.537   3.756  14.660  0.9772  2.0118 -0.4368
 7961TIP3    H245299   4.638   3.657  14.607  0.0905  1.2020 -0.6504
 7962TIP3   OH245300   5.193   1.970  13.779  0.4986  0.3583  0.4526
 7962TIP3    H145301   5.176   1.888  13.825 -1.2152  1.6417  2.2520
 7962TIP3    H245302   5.283   1.992  13.803  0.6430 -0.4897  0.7331
 7963TIP3   OH245303   1.049   2.199   5.794  0.5385  0.1542  0.1569
 7963TIP3    H145304   1.098   2.248   5.860  1.2668  1.6185 -1.3892
 7963TIP3    H245305   0.981   2.153   5.843  0.8478  1.4538  1.8725
 7964TIP3   OH245306   4.271   2.199  14.113 -0.1254 -0.3861  0.1006
 7964TIP3    H145307   4.209   2.242  14.173 -0.0491  0.9420 -0.7508
 7964TIP3    H245308   4.353   2.196  14.162 -0.3624 -0.3811  0.5036
 7965TIP3   OH245309   1.171   3.781  11.516  0.2699 -0.3588 -0.5947
 7965TIP3    H145310   1.170   3.760  11.610 -2.8647 -0.0983 -0.4552
 7965TIP3    H245311   1.141   3.871  11.511  1.6468  0.0679 -1.8408
 7966TIP3   OH245312   2.231   5.556   4.491 -0.0609 -0.0133 -0.5062
 7966TIP3    H145313   2.174   5.485   4.463  0.4051 -1.0098  0.9496
 7966TIP3    H245314   2.183   5.636   4.469 -2.7908 -0.7861  2.0307
 7967TIP3   OH245315   3.406   4.606  16.031 -0.2969  0.5942 -0.4643
 7967TIP3    H145316   3.326   4.562  16.059  0.7838 -0.7737  0.6716
 7967TIP3    H245317   3.379   4.695  16.007 -2.5827 -0.6591 -2.9553
 7968TIP3   OH245318   0.416   5.091   5.310  0.2359  0.3179 -0.0003
 7968TIP3    H145319   0.410   5.149   5.234  1.9649  1.0033  0.3538
 7968TIP3    H245320   0.452   5.146   5.380 -0.6201 -0.4944  1.1320
 7969TIP3   OH245321   0.281   3.157  13.930 -0.1603 -0.0303 -0.0668
 7969TIP3    H145322   0.245   3.187  13.846 -0.7491  0.3367  0.3108
 7969TIP3    H245323   0.245   3.070  13.941 -3.4947  1.4030  1.7277
 7970TIP3   OH245324   2.821   4.065  14.642 -0.7470 -0.4924 -0.4983
 7970TIP3    H145325   2.726   4.079  14.652 -0.2315  2.1122  2.1471
 7970TIP3    H245326   2.851   4.143  14.595  0.0966 -1.3652 -1.4272
 7971TIP3   OH245327   3.916   5.718  15.999 -0.4980 -0.2482  0.1563
 7971TIP3    H145328   3.986   5.681  15.946  1.0115 -0.8160  2.3784
 7971TIP3    H245329   3.918   5.812  15.980 -0.0880 -0.4428 -0.8247
 7972TIP3   OH245330   4.944   5.710  11.046 -0.2289 -0.0084  0.9096
 7972TIP3    H145331   4.920   5.637  10.989  2.1554 -0.2097  0.0450
 7972TIP3    H245332   5.017   5.677  11.098  0.9539  1.7154  0.4595
 7973TIP3   OH245333   5.254   2.808   3.125  0.0444 -0.7429  0.2162
 7973TIP3    H145334   5.290   2.864   3.194  0.6524 -0.6104 -0.1960
 7973TIP3    H245335   5.163   2.837   3.115  0.4619  0.4643 -0.2668
 7974TIP3   OH245336   2.470   1.662   1.611  0.3532 -0.3762  0.3401
 7974TIP3    H145337   2.526   1.681   1.535  2.8782  3.7355  2.8661
 7974TIP3    H245338   2.413   1.738   1.618  0.2656 -0.6000  2.6334
 7975TIP3   OH245339   5.443   6.718   4.835 -0.5662 -0.2292 -0.0351
 7975TIP3    H145340   5.504   6.791   4.829 -0.5631 -0.1404  0.8769
 7975TIP3    H245341   5.382   6.731   4.762 -1.4162  1.4952  0.9114
 7976TIP3   OH245342   0.986   6.576  14.986  0.2791  0.5910 -0.0745
 7976TIP3    H145343   0.958   6.666  15.003 -0.2630  0.8594 -2.1074
 7976TIP3    H245344   0.933   6.523  15.045  0.7777  1.5850  1.3280
 7977TIP3   OH245345   4.058   3.186  13.202 -0.6228  0.3145  0.1111
 7977TIP3    H145346   4.136   3.241  13.213  0.2597 -0.9668  0.5260
 7977TIP3    H245347   3.985   3.246  13.209  0.3381  1.6791 -0.9589
 7978TIP3   OH245348   6.404   5.771  13.963 -0.3993  0.9041  0.0977
 7978TIP3    H145349   6.313   5.743  13.967 -0.2373  0.0545 -1.2815
 7978TIP3    H245350   6.452   5.703  14.010 -0.3891  0.8388 -0.0055
 7979TIP3   OH245351   5.819   2.651  12.653 -0.1404  0.1872  0.1863
 7979TIP3    H145352   5.884   2.614  12.713 -1.2903 -0.3379  1.1416
 7979TIP3    H245353   5.838   2.745  12.651  0.9037 -0.0119  0.1042
 7980TIP3   OH245354   6.494   6.171  15.068  0.3539 -0.3682 -0.5191
 7980TIP3    H145355   6.457   6.206  15.149 -2.3736 -2.3768 -0.7644
 7980TIP3    H245356   6.587   6.160  15.087  0.1905  1.1545  1.5852
 7981TIP3   OH245357   6.569   4.303  12.297 -0.3273  0.1767  0.3027
 7981TIP3    H145358   6.578   4.384  12.347 -0.2007  0.7316 -0.6152
 7981TIP3    H245359   6.654   4.260  12.305  0.4938  1.3852 -1.3444
 7982TIP3   OH245360   4.875   6.509   0.796 -0.1030  0.1233 -0.1797
 7982TIP3    H145361   4.968   6.518   0.776  0.3987 -2.2884  0.7317
 7982TIP3    H245362   4.851   6.425   0.758 -1.3077 -0.3708  1.5658
 7983TIP3   OH245363   0.955   3.404   2.157 -0.2309 -0.2316 -0.2869
 7983TIP3    H145364   0.930   3.466   2.226 -1.5254 -1.8625  0.8117
 7983TIP3    H245365   0.985   3.458   2.085 -1.2758  1.6651  0.6367
 7984TIP3   OH245366   1.080   0.505   3.285  0.2458  0.4128 -0.5098
 7984TIP3    H145367   1.165   0.478   3.321  1.3291  3.8789 -0.1523
 7984TIP3    H245368   1.052   0.430   3.233  2.2039 -1.9066  1.5070
 7985TIP3   OH245369   1.207   1.014  15.691  0.5219 -0.2864  0.6618
 7985TIP3    H145370   1.219   0.986  15.781  0.3231  0.1586  0.8291
 7985TIP3    H245371   1.112   1.025  15.681  0.6905  2.4188  1.2581
 7986TIP3   OH245372   5.689   3.484   4.469  0.5087  0.4869 -0.4050
 7986TIP3    H145373   5.758   3.536   4.509  0.8398  0.5808 -1.0811
 7986TIP3    H245374   5.729   3.399   4.451  0.4303  0.5122 -0.7189
 7987TIP3   OH245375   2.765   4.823   0.648 -0.1565  0.2293 -0.7363
 7987TIP3    H145376   2.850   4.822   0.604 -0.1956  0.2652 -0.8137
 7987TIP3    H245377   2.721   4.744   0.619 -0.1935  0.2670 -0.7828
 7988TIP3   OH245378   0.920   5.781   4.516 -0.2589 -0.0401 -0.4517
 7988TIP3    H145379   0.841   5.803   4.565  0.2761  1.3561 -0.1681
 7988TIP3    H245380   0.940   5.861   4.467  0.8520 -0.4500 -0.6772
 7989TIP3   OH245381   3.538   3.350   2.257  0.3043 -0.1921 -0.0503
 7989TIP3    H145382   3.599   3.424   2.250  0.0487 -0.0240 -0.5837
 7989TIP3    H245383   3.455   3.390   2.282  0.3434 -0.3909  0.4082
 7990TIP3   OH245384   3.977   0.757  16.745 -0.3583  0.4251  0.2762
 7990TIP3    H145385   4.059   0.753  16.695 -0.6031  0.8611 -0.1769
 7990TIP3    H245386   3.982   0.840  16.792 -2.0505  2.3130 -2.5306
 7991TIP3   OH245387   4.391   0.118  11.100  0.0718 -0.3670  0.5621
 7991TIP3    H145388   4.323   0.182  11.124 -0.5039 -0.9843  0.5850
 7991TIP3    H245389   4.394   0.057  11.173  0.2811 -0.6506  0.3192
 7992TIP3   OH245390   2.078   0.228  15.615  0.5322  0.4690 -0.1696
 7992TIP3    H145391   2.158   0.250  15.566 -0.2926 -0.6887 -2.1709
 7992TIP3    H245392   2.013   0.291  15.583 -0.1064 -0.5240 -0.8904
 7993TIP3   OH245393   6.027   5.423  11.181  0.2528 -0.5644 -0.3841
 7993TIP3    H145394   5.999   5.478  11.107 -0.7415 -0.6495 -0.0876
 7993TIP3    H245395   6.021   5.334  11.147  3.4993 -0.5349 -1.4328
 7994TIP3   OH245396   4.088   4.513   5.814 -0.5139  0.3097  0.6123
 7994TIP3    H145397   4.130   4.427   5.819  0.1722  0.6373  0.5939
 7994TIP3    H245398   4.022   4.511   5.883 -0.3408 -0.1492  0.7678
 7995TIP3   OH245399   3.259   1.546   5.534  0.1011 -0.6998  0.1577
 7995TIP3    H145400   3.171   1.573   5.509  0.8377  1.4145 -0.4164
 7995TIP3    H245401   3.298   1.625   5.573  2.7633 -0.5170 -2.4768
 7996TIP3   OH245402   0.862   5.991   4.963  0.1141  0.4878  0.0845
 7996TIP3    H145403   0.936   6.009   5.022 -0.4269  1.1805  0.5651
 7996TIP3    H245404   0.903   5.972   4.879  0.8945 -0.3211  0.6218
 7997TIP3   OH245405   5.571   5.979  11.689 -0.7427 -0.0564  0.3409
 7997TIP3    H145406   5.533   5.995  11.776 -0.5053  0.3190  0.3770
 7997TIP3    H245407   5.559   5.885  11.675  0.6055 -0.4243  1.4370
 7998TIP3   OH245408   4.840   5.385   4.964 -0.3825 -0.2813 -0.1097
 7998TIP3    H145409   4.754   5.421   4.985 -1.4361 -2.0262 -1.1809
 7998TIP3    H245410   4.852   5.314   5.027 -0.5431 -1.1654 -1.0450
 7999TIP3   OH245411   6.548   4.667   3.999 -0.4878 -0.0761  0.8264
 7999TIP3    H145412   6.523   4.720   3.923  0.6601 -1.8691 -0.9012
 7999TIP3    H245413   6.472   4.613   4.018  0.7882 -3.4881 -2.6120
 8000TIP3   OH245414   3.188   2.122  17.171  0.7015 -0.2856 -0.3564
 8000TIP3    H145415   3.276   2.101  17.140  1.7158  0.1433  1.9998
 8000TIP3    H245416   3.170   2.209  17.136  1.8039  0.2038  0.2571
 8001TIP3   OH245417   2.901   1.015   3.452 -0.4927  0.3412 -0.3931
 8001TIP3    H145418   2.812   1.044   3.432 -0.7419 -1.5043 -2.2655
 8001TIP3    H245419   2.952   1.039   3.375  0.1916 -0.3037 -0.1508
 8002TIP3   OH245420   5.106   3.473  12.984 -0.3892  0.8966 -0.3344
 8002TIP3    H145421   5.118   3.557  12.939  0.8437  0.6087 -0.5886
 8002TIP3    H245422   5.052   3.421  12.924  0.3909  0.8744 -1.0481
 8003TIP3   OH245423   6.706   4.493   1.986 -0.7015  0.0827  0.0171
 8003TIP3    H145424   6.624   4.541   2.001 -0.3132  0.8450 -0.2567
 8003TIP3    H245425   6.769   4.535   2.044 -0.3237 -0.0159 -0.3201
 8004TIP3   OH245426   2.394   5.131   6.391  0.7323 -0.2166 -0.1161
 8004TIP3    H145427   2.340   5.060   6.426  0.5094 -0.3019 -0.6229
 8004TIP3    H245428   2.350   5.157   6.310  0.2147  1.2162  0.5712
 8005TIP3   OH245429   3.584   0.285  14.193  0.4798 -0.1293 -0.2651
 8005TIP3    H145430   3.548   0.238  14.117  1.4301  0.7570 -1.2976
 8005TIP3    H245431   3.509   0.329  14.233 -0.1068 -0.9898 -0.3980
 8006TIP3   OH245432   0.213   0.664  13.079  0.3971  0.0957  0.4275
 8006TIP3    H145433   0.206   0.723  13.004 -2.1905 -0.6626 -0.0313
 8006TIP3    H245434   0.259   0.587  13.044  0.9659  0.5460  0.1723
 8007TIP3   OH245435   4.772   0.708  11.330 -0.2499 -0.2498  0.2184
 8007TIP3    H145436   4.741   0.621  11.304  0.5730 -0.8333  1.1425
 8007TIP3    H245437   4.867   0.703  11.325 -0.1729  0.4515  0.7721
 8008TIP3   OH245438   3.595   4.092   1.565  0.4184 -0.3449  0.1963
 8008TIP3    H145439   3.554   4.005   1.562 -0.9212  0.2371  1.0147
 8008TIP3    H245440   3.563   4.136   1.487 -0.2730 -0.0039  0.6656
 8009TIP3   OH245441   2.540   3.430   1.242 -0.0356  0.1868  0.0764
 8009TIP3    H145442   2.488   3.393   1.312 -1.6318  2.5816  0.2468
 8009TIP3    H245443   2.551   3.522   1.265  0.7740  0.6774 -2.0017
 8010TIP3   OH245444   6.164   3.638   4.232 -0.1888  0.1038  0.3306
 8010TIP3    H145445   6.251   3.666   4.205  0.2397 -0.0024  1.5254
 8010TIP3    H245446   6.106   3.709   4.204  0.5538  1.0885  1.1760
 8011TIP3   OH245447   4.580   1.035   4.377  0.3026  0.1649  1.0222
 8011TIP3    H145448   4.535   1.049   4.461 -1.2685 -1.1408  0.4665
 8011TIP3    H245449   4.664   0.995   4.401 -0.2045 -0.3691  1.9911
 8012TIP3   OH245450   5.633   5.255   4.941 -0.5025 -0.0169  0.3131
 8012TIP3    H145451   5.687   5.177   4.951  0.2317  0.5760  1.1566
 8012TIP3    H245452   5.577   5.255   5.019 -2.7325 -1.3437 -1.1834
 8013TIP3   OH245453   1.543   2.626  12.443  0.0556 -0.1285  0.1976
 8013TIP3    H145454   1.519   2.613  12.351 -0.6374 -2.1982  0.6251
 8013TIP3    H245455   1.638   2.629  12.443  0.1326 -1.7995 -0.4344
 8014TIP3   OH245456   5.425   1.287   4.999 -0.0180 -0.5074 -0.3131
 8014TIP3    H145457   5.511   1.296   5.038 -0.1881 -0.4886  0.0605
 8014TIP3    H245458   5.418   1.361   4.939 -0.5802  0.7061  1.1919
 8015TIP3   OH245459   3.743   6.673  12.009  0.2641 -0.3253 -0.1514
 8015TIP3    H145460   3.791   6.738  12.059  0.4419 -0.8351  0.3518
 8015TIP3    H245461   3.754   6.700  11.918  0.7622  0.0632  0.0173
 8016TIP3   OH245462   5.816   5.685  11.791 -0.1551  0.2340 -0.4096
 8016TIP3    H145463   5.732   5.729  11.779 -0.5231 -0.6610 -1.2546
 8016TIP3    H245464   5.830   5.636  11.710  0.5389 -0.6747  0.2334
 8017TIP3   OH245465   0.238   6.190  12.701 -0.3195  0.3375  0.3318
 8017TIP3    H145466   0.165   6.128  12.698 -1.1064  1.2605  0.1409
 8017TIP3    H245467   0.203   6.266  12.746  0.3671  1.0021 -0.2340
 8018TIP3   OH245468   0.520   3.974   2.597  0.4178 -0.5497  0.5185
 8018TIP3    H145469   0.574   3.941   2.669  1.7659  0.3926 -0.0197
 8018TIP3    H245470   0.575   4.040   2.554 -0.9432  0.0027 -0.4404
 8019TIP3   OH245471   4.891   0.585  12.601 -0.4096  0.2526  0.1943
 8019TIP3    H145472   4.913   0.652  12.666 -1.7853  0.7017  0.2289
 8019TIP3    H245473   4.902   0.630  12.517  0.5494 -0.0793  0.1263
 8020TIP3   OH245474   0.725   0.536   0.076  0.9289 -0.5849  0.2585
 8020TIP3    H145475   0.653   0.597   0.064  0.3229 -1.6532 -2.3696
 8020TIP3    H245476   0.798   0.590   0.105 -0.1816  0.9940  0.2420
 8021TIP3   OH245477   5.139   0.582   3.653  0.2828  0.4658 -0.2165
 8021TIP3    H145478   5.228   0.572   3.619 -0.0105 -0.4160 -0.7485
 8021TIP3    H245479   5.114   0.495   3.681  0.1933  1.0202  1.5291
 8022TIP3   OH245480   1.995   6.266   5.418  0.2487  0.1664  0.0354
 8022TIP3    H145481   1.977   6.202   5.349  0.5444  0.1434 -0.0215
 8022TIP3    H245482   2.087   6.288   5.406 -0.3317  2.1171 -1.2078
 8023TIP3   OH245483   0.569   6.078  15.987  0.1363 -0.4115 -0.3956
 8023TIP3    H145484   0.544   6.168  15.963 -0.5737 -0.4348  0.2365
 8023TIP3    H245485   0.489   6.039  16.020  1.0982 -0.3070  2.2787
 8024TIP3   OH245486   4.662   0.796  16.815  0.2351 -0.4496 -0.0107
 8024TIP3    H145487   4.748   0.775  16.778  0.0656 -0.9432 -0.1326
 8024TIP3    H245488   4.641   0.882  16.778 -1.1335 -2.0503 -3.3174
 8025TIP3   OH245489   0.270   3.485  14.651 -0.3648 -0.0055 -0.0812
 8025TIP3    H145490   0.350   3.453  14.692  0.1544 -0.2763 -1.2584
 8025TIP3    H245491   0.210   3.411  14.652  0.4361 -0.7454 -1.7720
 8026TIP3   OH245492   0.066   0.694   4.186 -0.9377  0.5630 -0.3391
 8026TIP3    H145493   0.036   0.636   4.255 -0.1248  0.8635  0.2846
 8026TIP3    H245494   0.037   0.781   4.213 -1.8370  0.5163 -1.0902
 8027TIP3   OH245495   2.967   2.982   4.735 -0.5454  0.0917 -0.4658
 8027TIP3    H145496   2.972   2.946   4.647 -1.6588 -2.1818  0.3070
 8027TIP3    H245497   3.032   2.932   4.785  0.8513  2.0863 -0.1495
 8028TIP3   OH245498   3.631   0.776  11.088 -0.1123 -1.0122  0.3048
 8028TIP3    H145499   3.626   0.745  10.998 -2.1811 -3.1106  1.0471
 8028TIP3    H245500   3.701   0.724  11.128 -1.2976 -2.3834  0.6676
 8029TIP3   OH245501   2.906   2.795   2.973 -0.5947 -0.7884  0.1046
 8029TIP3    H145502   2.962   2.845   3.032 -1.9910  0.3001  0.5792
 8029TIP3    H245503   2.945   2.707   2.971  0.3841 -0.4186  1.4083
 8030TIP3   OH245504   3.320   4.959   4.113 -0.2892  0.4481 -0.1871
 8030TIP3    H145505   3.288   5.045   4.083 -0.1033  0.6259  0.1141
 8030TIP3    H245506   3.396   4.942   4.058  0.4042  1.0464  0.5521
 8031TIP3   OH245507   4.527   5.056   6.363  0.4958  0.0279  0.4070
 8031TIP3    H145508   4.436   5.085   6.358  0.3435 -0.3241  0.9974
 8031TIP3    H245509   4.578   5.128   6.325 -0.0296  0.1988  0.0204
 8032TIP3   OH245510   4.764   2.670   3.575  0.4130  0.3184 -0.3736
 8032TIP3    H145511   4.752   2.579   3.546 -1.1228 -0.1156  1.3677
 8032TIP3    H245512   4.811   2.662   3.658 -0.3081  1.0437  0.1206
 8033TIP3   OH245513   1.963   1.101  12.966  0.4152  0.0506 -0.3859
 8033TIP3    H145514   1.902   1.029  12.960  0.4227 -0.0617  0.6754
 8033TIP3    H245515   2.049   1.060  12.979  0.5649  0.2314 -0.7635
 8034TIP3   OH245516   1.282   1.000   5.684 -0.5231  0.1717  0.5180
 8034TIP3    H145517   1.225   1.062   5.639  0.1002  0.1209 -0.3858
 8034TIP3    H245518   1.370   1.019   5.650  0.1423  0.7895  2.4936
 8035TIP3   OH245519   6.133   0.735   2.716 -0.3278 -0.2688 -0.0065
 8035TIP3    H145520   6.149   0.662   2.775 -0.5622  0.0753  0.4853
 8035TIP3    H245521   6.038   0.737   2.705 -0.2218 -1.0290 -1.2958
 8036TIP3   OH245522   1.261   6.021   2.318  0.1443  0.3048  0.4907
 8036TIP3    H145523   1.350   6.031   2.285  0.4705 -0.5716  1.0656
 8036TIP3    H245524   1.269   6.031   2.413 -0.5601  1.3746  0.4487
 8037TIP3   OH245525   2.884   5.023   1.222 -0.5833 -0.2509  0.3401
 8037TIP3    H145526   2.856   5.092   1.283 -0.2364  0.8683 -0.7089
 8037TIP3    H245527   2.806   5.005   1.169 -0.4331 -0.0042  0.0292
 8038TIP3   OH245528   0.213   6.714   1.943  0.0294  0.0269 -0.1447
 8038TIP3    H145529   0.302   6.737   1.970 -0.0564 -0.0796  0.2308
 8038TIP3    H245530   0.175   6.671   2.019 -1.2976  2.5310  0.6988
 8039TIP3   OH245531   4.887   3.509  11.085  0.1878  0.1363  0.2794
 8039TIP3    H145532   4.922   3.573  11.146 -0.0405 -0.3585  0.9423
 8039TIP3    H245533   4.794   3.532  11.077 -0.5136 -1.5232  2.4397
 8040TIP3   OH245534   4.193   0.090   3.345  0.6631 -0.0675  0.3057
 8040TIP3    H145535   4.136   0.032   3.294 -0.8177  0.6178  1.0993
 8040TIP3    H245536   4.162   0.178   3.325  1.5549  0.3317  0.6449
 8041TIP3   OH245537   3.104   6.174  13.677  0.6685 -0.1196 -0.0312
 8041TIP3    H145538   3.097   6.172  13.773  2.4404  1.0648  0.1753
 8041TIP3    H245539   3.166   6.104  13.656  0.5654 -0.1407 -0.2639
 8042TIP3   OH245540   3.814   3.937  13.342  0.1990 -0.3443  0.2649
 8042TIP3    H145541   3.848   4.012  13.391 -0.1046  0.6978 -1.0859
 8042TIP3    H245542   3.892   3.897  13.303  0.1933  0.2927 -0.4121
 8043TIP3   OH245543   6.372   5.673  16.812  0.7344 -0.0136 -0.1494
 8043TIP3    H145544   6.334   5.679  16.724  0.3937  1.3582  0.0654
 8043TIP3    H245545   6.302   5.639  16.867  0.2890  1.0286 -0.0487
 8044TIP3   OH245546   3.277   1.269  16.514  0.2550  0.0267 -0.1621
 8044TIP3    H145547   3.211   1.326  16.473  0.6810 -0.0998 -1.0648
 8044TIP3    H245548   3.233   1.185  16.525 -0.5828  0.6714  1.7698
 8045TIP3   OH245549   1.426   5.468   2.186  0.0730 -0.6416 -0.8481
 8045TIP3    H145550   1.505   5.451   2.237 -0.7077  0.1542  0.6987
 8045TIP3    H245551   1.432   5.561   2.164 -0.8358 -0.3452  0.0671
 8046TIP3   OH245552   4.348   3.893   6.467 -0.3968  0.7116  0.3592
 8046TIP3    H145553   4.410   3.917   6.397 -0.8266  1.5018  0.2440
 8046TIP3    H245554   4.307   3.975   6.492  1.0400  0.7843  2.8409
 8047TIP3   OH245555   1.694   3.379  11.601 -0.2402  0.0381  0.4136
 8047TIP3    H145556   1.693   3.381  11.697  2.5602 -1.4194  0.5858
 8047TIP3    H245557   1.664   3.291  11.578 -0.1852  0.1202  0.0178
 8048TIP3   OH245558   2.218   1.313   1.999  0.2263 -0.1198  0.2714
 8048TIP3    H145559   2.187   1.319   2.089 -2.7351  0.2922 -0.6711
 8048TIP3    H245560   2.208   1.401   1.964 -0.5625 -0.6891 -1.0076
 8049TIP3   OH245561   2.674   5.162   6.428  0.3854  0.1357 -0.1717
 8049TIP3    H145562   2.578   5.160   6.428  0.3469 -1.0556  2.0551
 8049TIP3    H245563   2.698   5.152   6.520  2.6714  1.3997 -0.5625
 8050TIP3   OH245564   0.763   2.337  15.601  0.5870  0.1094 -0.4988
 8050TIP3    H145565   0.753   2.367  15.692  0.3398 -0.2432 -0.4119
 8050TIP3    H245566   0.739   2.245  15.603 -2.0258  0.7035 -1.4196
 8051TIP3   OH245567   4.362   1.514  13.473  0.2527 -0.5899  0.3939
 8051TIP3    H145568   4.413   1.572  13.417 -1.1421  2.2835  1.8776
 8051TIP3    H245569   4.288   1.487  13.419  0.2634  0.0515  0.0469
 8052TIP3   OH245570   0.856   2.615   1.134  0.5704 -0.5778 -0.0667
 8052TIP3    H145571   0.945   2.650   1.139  1.0679 -1.4096 -1.8775
 8052TIP3    H245572   0.802   2.691   1.112  1.1792 -0.4111 -1.0660
 8053TIP3   OH245573   2.583   2.854  11.116  0.3943  0.6029 -0.3631
 8053TIP3    H145574   2.517   2.881  11.052  1.8659  0.6981 -1.9026
 8053TIP3    H245575   2.534   2.846  11.198 -1.6458  0.1355 -1.5380
 8054TIP3   OH245576   1.352   5.907   5.084 -0.2572  0.4382 -0.3306
 8054TIP3    H145577   1.273   5.885   5.034 -0.9181  0.4045  0.6962
 8054TIP3    H245578   1.328   5.888   5.175  1.1273 -0.1000 -0.0578
 8055TIP3   OH245579   4.311   6.107   5.843 -0.0561  0.4676  0.0672
 8055TIP3    H145580   4.396   6.151   5.846  0.2251  0.2005 -1.9906
 8055TIP3    H245581   4.251   6.172   5.806 -0.2624  0.0338 -0.3908
 8056TIP3   OH245582   1.126   5.496   1.216  0.1638 -0.1783  0.0411
 8056TIP3    H145583   1.182   5.527   1.144  1.9528 -2.5403  0.3030
 8056TIP3    H245584   1.144   5.556   1.288 -0.7555  1.5061 -1.0715
 8057TIP3   OH245585   2.815   2.033   1.171 -0.2983  0.3514  0.8071
 8057TIP3    H145586   2.850   1.961   1.224 -0.7437  0.6922  1.5816
 8057TIP3    H245587   2.721   2.029   1.185 -0.4772  0.1144 -0.4050
 8058TIP3   OH245588   3.006   3.258  14.637 -0.6627 -0.1601  0.0321
 8058TIP3    H145589   2.958   3.246  14.719 -0.9815  0.8570  0.0157
 8058TIP3    H245590   3.091   3.294  14.664 -0.7767  0.1986 -0.0751
 8059TIP3   OH245591   2.165   5.156  16.924 -0.1434 -0.5059 -0.0427
 8059TIP3    H145592   2.221   5.116  16.990  1.3022  0.7054 -0.4855
 8059TIP3    H245593   2.080   5.167  16.968  0.7417  0.1225  1.5794
 8060TIP3   OH245594   5.348   5.070  13.426 -0.6794  0.5006  0.1540
 8060TIP3    H145595   5.266   5.093  13.382 -0.7165  3.2533  1.4339
 8060TIP3    H245596   5.322   5.010  13.496 -1.3700  0.1231 -0.4191
 8061TIP3   OH245597   1.164   2.624  13.753 -0.3451  0.1946  0.3839
 8061TIP3    H145598   1.094   2.682  13.783 -0.2399  0.4254  0.1874
 8061TIP3    H245599   1.124   2.537  13.752 -0.6700  0.3441  0.1450
 8062TIP3   OH245600   0.934   0.936  16.868 -0.3567  0.0939 -0.2082
 8062TIP3    H145601   0.973   0.870  16.810 -0.1311  1.0841 -1.2064
 8062TIP3    H245602   0.941   1.018  16.820 -0.0472  0.9803  1.2914
 8063TIP3   OH245603   4.580   5.060  11.534  0.2198  0.4799  0.2978
 8063TIP3    H145604   4.632   5.060  11.615 -1.0555  1.5051  1.1440
 8063TIP3    H245605   4.620   5.128  11.481  0.7755  0.1176  0.2399
 8064TIP3   OH245606   1.881   3.088   3.453 -0.2556  0.3764  0.0820
 8064TIP3    H145607   1.953   3.033   3.423 -1.1425  0.4248 -2.3029
 8064TIP3    H245608   1.916   3.134   3.530  1.2983 -1.6412  0.6629
 8065TIP3   OH245609   6.097   5.656   3.140  0.3574 -0.0946 -0.1137
 8065TIP3    H145610   6.132   5.642   3.052 -0.6499 -1.8143 -0.2933
 8065TIP3    H245611   6.174   5.677   3.193  1.4111 -1.7400 -0.8985
 8066TIP3   OH245612   1.217   2.713   2.413  0.3537  0.1385 -0.3245
 8066TIP3    H145613   1.210   2.618   2.402  1.5867 -0.2278  1.5849
 8066TIP3    H245614   1.292   2.738   2.360 -0.5759  0.2525 -1.6426
 8067TIP3   OH245615   5.384   6.575   3.266  0.5404  0.6530  0.9568
 8067TIP3    H145616   5.298   6.540   3.285  0.4908  0.7940  0.9934
 8067TIP3    H245617   5.386   6.584   3.170  0.9605 -0.4941  0.8428
 8068TIP3   OH245618   5.649   1.278   4.690  0.2073  0.4604  0.8805
 8068TIP3    H145619   5.600   1.198   4.712 -2.4448  1.6679 -0.2387
 8068TIP3    H245620   5.741   1.251   4.695 -0.5648 -2.6220  0.6750
 8069TIP3   OH245621   6.536   6.701  13.107 -0.0549 -0.4178 -0.2053
 8069TIP3    H145622   6.529   6.641  13.181 -0.8443 -0.6350 -0.4432
 8069TIP3    H245623   6.620   6.744  13.118  1.2135 -2.6128 -0.8075
 8070TIP3   OH245624   2.206   2.889   1.372  0.0514 -0.5055 -0.1170
 8070TIP3    H145625   2.170   2.952   1.310  2.2009  1.2523  0.2979
 8070TIP3    H245626   2.179   2.921   1.458 -2.8828 -2.9095  0.0234
 8071TIP3   OH245627   1.476   1.203   2.481 -1.0443 -0.6232  0.4639
 8071TIP3    H145628   1.531   1.212   2.403  1.1869 -0.8205  1.9158
 8071TIP3    H245629   1.387   1.199   2.447 -0.1458 -1.0453 -2.0903
 8072TIP3   OH245630   0.219   2.892  14.392 -0.1646  0.2450  0.0825
 8072TIP3    H145631   0.242   2.980  14.362 -0.3207  0.8750  1.6862
 8072TIP3    H245632   0.247   2.891  14.484 -0.4972 -1.2618  0.1862
 8073TIP3   OH245633   4.424   4.819   3.586 -0.2234  0.7151  1.1519
 8073TIP3    H145634   4.434   4.731   3.550  1.4175  0.4553  2.1173
 8073TIP3    H245635   4.436   4.878   3.512 -4.2387  0.1934 -0.1262
 8074TIP3   OH245636   2.237   5.768   4.056  0.5176  0.5808 -0.3009
 8074TIP3    H145637   2.192   5.800   3.977 -0.8881 -0.4010  0.0602
 8074TIP3    H245638   2.294   5.699   4.024 -0.6837 -0.4046 -0.3849
 8075TIP3   OH245639   2.151   2.629   1.304  0.1089 -0.4005 -0.2976
 8075TIP3    H145640   2.055   2.632   1.298  0.2409  1.3556 -2.4986
 8075TIP3    H245641   2.176   2.716   1.333  1.0854 -0.7048 -0.1997
 8076TIP3   OH245642   4.512   0.294   0.171 -0.1731 -0.7258  0.0292
 8076TIP3    H145643   4.422   0.322   0.186  0.1382  0.0962  0.4080
 8076TIP3    H245644   4.550   0.361   0.115  0.5440 -0.4201  0.8451
 8077TIP3   OH245645   4.006   2.483  14.863  0.1845  0.6691  0.5919
 8077TIP3    H145646   3.971   2.562  14.822 -0.6483 -1.1000 -2.4302
 8077TIP3    H245647   3.935   2.419  14.855  1.6190 -1.0163  0.8581
 8078TIP3   OH245648   0.641   3.536  16.806 -0.2883  0.1811 -0.0676
 8078TIP3    H145649   0.555   3.504  16.833 -0.5051  0.8768  0.0960
 8078TIP3    H245650   0.669   3.592  16.879  0.2214  0.1101 -0.2039
 8079TIP3   OH245651   1.912   0.464  12.684 -0.2658 -0.1494  0.5901
 8079TIP3    H145652   1.852   0.470  12.610  0.8753  0.7106 -0.3143
 8079TIP3    H245653   1.989   0.419  12.648  0.4343  0.5649  1.1612
 8080TIP3   OH245654   2.266   2.253  10.596  0.1263  0.3566 -0.4334
 8080TIP3    H145655   2.236   2.181  10.540 -0.1065  0.9959 -1.1509
 8080TIP3    H245656   2.193   2.269  10.655  0.2482 -0.1084 -0.1492
 8081TIP3   OH245657   5.225   2.944  15.029  0.2465 -0.4572 -0.0491
 8081TIP3    H145658   5.189   2.925  14.942  0.9369 -0.9510 -0.2339
 8081TIP3    H245659   5.149   2.937  15.088 -0.4949  1.1770 -0.7558
 8082TIP3   OH245660   3.314   1.211   1.750  0.4557  0.0942  0.4970
 8082TIP3    H145661   3.296   1.274   1.681  2.2125 -1.2020 -1.2521
 8082TIP3    H245662   3.246   1.145   1.743  0.1663  0.3846  0.5597
 8083TIP3   OH245663   1.052   3.373   3.768 -0.1448 -0.4060 -0.0572
 8083TIP3    H145664   1.022   3.285   3.744 -1.4753  0.1399 -0.5022
 8083TIP3    H245665   1.097   3.405   3.690 -2.0980  0.3335 -0.9437
 8084TIP3   OH245666   2.443   2.145  12.543 -0.0602 -0.2570 -0.0857
 8084TIP3    H145667   2.476   2.109  12.460 -1.0667  0.7462 -0.9575
 8084TIP3    H245668   2.349   2.156  12.529 -0.9107 -3.0509  2.3416
 8085TIP3   OH245669   3.982   3.240   0.831 -0.0512  0.5563  0.3146
 8085TIP3    H145670   3.967   3.156   0.787  0.5236  1.8088 -2.4826
 8085TIP3    H245671   3.930   3.303   0.781  1.8398  2.3196  0.4285
 8086TIP3   OH245672   4.087   4.645  17.018  0.5142 -0.3417  0.0889
 8086TIP3    H145673   4.133   4.722  16.986  1.5462 -1.6162 -1.6688
 8086TIP3    H245674   4.048   4.606  16.939  0.2367 -1.7603  0.8893
 8087TIP3   OH245675   5.389   0.761  14.634  0.3231 -0.4243  0.5736
 8087TIP3    H145676   5.412   0.852  14.654  1.3423 -0.8867  1.5749
 8087TIP3    H245677   5.399   0.755  14.539 -0.2898  0.6469  0.4265
 8088TIP3   OH245678   3.634   3.490   4.340  0.6703  0.0659  0.3909
 8088TIP3    H145679   3.715   3.534   4.312  0.5563 -0.0353 -0.0922
 8088TIP3    H245680   3.615   3.529   4.426  1.4220 -0.1567  0.6678
 8089TIP3   OH245681   1.554   2.556  15.973 -0.0708 -0.0575 -0.0510
 8089TIP3    H145682   1.474   2.520  15.936  1.0164 -2.3978 -0.2465
 8089TIP3    H245683   1.618   2.486  15.967  1.8880  1.5686  0.5776
 8090TIP3   OH245684   1.840   6.127   2.941  0.1791  0.0622 -0.3136
 8090TIP3    H145685   1.890   6.196   2.984  1.1451 -0.3846 -0.6955
 8090TIP3    H245686   1.763   6.172   2.907  0.5892  0.8746 -0.2024
 8091TIP3   OH245687   2.287   0.773   0.607  0.0364 -0.0214  0.4566
 8091TIP3    H145688   2.198   0.809   0.600 -0.2755 -0.8702 -0.0023
 8091TIP3    H245689   2.334   0.838   0.659 -0.5931  0.9157 -0.1148
 8092TIP3   OH245690   5.598   0.867   2.177 -0.5513 -0.9161  0.2172
 8092TIP3    H145691   5.665   0.814   2.220 -0.3382 -0.6364  0.2378
 8092TIP3    H245692   5.639   0.954   2.169 -0.2926 -1.1428 -1.2154
 8093TIP3   OH245693   4.694   2.183  11.494  0.0552  0.0871  0.5198
 8093TIP3    H145694   4.727   2.273  11.506  1.3051 -0.2973  0.1264
 8093TIP3    H245695   4.641   2.188  11.414  0.0546  0.4932  0.5410
 8094TIP3   OH245696   0.239   2.874  13.968  0.5989 -0.3312  0.3207
 8094TIP3    H145697   0.185   2.843  14.041  0.9717  0.4575  0.9408
 8094TIP3    H245698   0.329   2.867  14.000  0.7194  0.8707  0.2904
 8095TIP3   OH245699   0.501   6.462  15.621 -0.3560  0.3108 -0.2497
 8095TIP3    H145700   0.487   6.419  15.537 -2.2565  1.9106 -0.8379
 8095TIP3    H245701   0.415   6.497  15.644  0.0786 -0.1892  2.4564
 8096TIP3   OH245702   5.555   2.249   3.483 -0.0886 -0.6872  0.0517
 8096TIP3    H145703   5.585   2.158   3.495 -0.6696 -1.2933 -2.4608
 8096TIP3    H245704   5.589   2.273   3.397  1.4121  2.1255  1.2983
 8097TIP3   OH245705   4.161   6.155  14.684  0.0412  0.0267 -0.4693
 8097TIP3    H145706   4.249   6.191  14.693 -0.2656  1.3248 -2.2344
 8097TIP3    H245707   4.109   6.201  14.750  0.0071  1.7121 -1.6227
 8098TIP3   OH245708   1.060   4.716   0.933 -0.2121 -0.0485 -0.6586
 8098TIP3    H145709   0.970   4.710   0.963 -0.3219 -0.2599 -1.0245
 8098TIP3    H245710   1.075   4.810   0.920 -0.3028  0.0057 -0.3677
 8099TIP3   OH245711   6.152   1.683   1.292 -0.5620 -0.0249  0.4306
 8099TIP3    H145712   6.175   1.595   1.261  1.4859 -0.0847  1.8776
 8099TIP3    H245713   6.165   1.740   1.216 -1.6941 -0.8978 -0.4634
 8100TIP3   OH245714   1.804   5.582   3.246 -0.1641  0.0250  0.1127
 8100TIP3    H145715   1.804   5.632   3.164 -0.7837 -1.7485 -1.0227
 8100TIP3    H245716   1.712   5.568   3.265 -0.0019 -0.3921  0.6047
 8101TIP3   OH245717   2.687   0.029   0.286  0.3077  0.4242  0.2501
 8101TIP3    H145718   2.692   0.003   0.194 -0.6471 -0.7418  0.4926
 8101TIP3    H245719   2.619   0.097   0.288 -2.2077 -1.8857  0.4676
 8102TIP3   OH245720   2.590   6.370   3.295 -0.2092  0.0078  0.4280
 8102TIP3    H145721   2.672   6.351   3.249 -0.6599 -0.0483 -0.3696
 8102TIP3    H245722   2.589   6.465   3.304 -0.1636  0.0273  0.2347
 8103TIP3   OH245723   1.269   0.584  14.626  0.2826  0.2171 -0.1016
 8103TIP3    H145724   1.298   0.507  14.675  1.6745  1.2666  0.7973
 8103TIP3    H245725   1.273   0.656  14.689  0.1009  1.2446 -1.2150
 8104TIP3   OH245726   0.983   5.316   4.449 -0.1153  0.1024  0.1568
 8104TIP3    H145727   0.973   5.273   4.533  1.2548 -1.0848 -0.2389
 8104TIP3    H245728   1.073   5.349   4.449 -0.9235  2.5627  0.2113
 8105TIP3   OH245729   2.011   4.665  14.566 -0.2084 -0.1792 -0.6395
 8105TIP3    H145730   2.019   4.756  14.595 -0.3577 -0.1961 -0.5458
 8105TIP3    H245731   1.996   4.615  14.647 -2.8447  0.0270 -0.9203
 8106TIP3   OH245732   6.576   2.298  13.327  0.1531  0.6486 -0.2747
 8106TIP3    H145733   6.645   2.280  13.263 -1.7682 -2.2677 -1.7840
 8106TIP3    H245734   6.571   2.218  13.379 -0.9007  1.4924  0.9758
 8107TIP3   OH245735   6.113   2.986  12.528 -0.0234  0.3572  0.0705
 8107TIP3    H145736   6.164   2.906  12.538  0.5058  0.5040 -1.2837
 8107TIP3    H245737   6.139   3.021  12.443 -1.3842  1.1565 -0.0465
 8108TIP3   OH245738   2.154   0.376   1.635 -0.6900  0.1719  0.1557
 8108TIP3    H145739   2.112   0.346   1.715  1.0601 -0.8460  0.7557
 8108TIP3    H245740   2.169   0.296   1.585  0.3683  0.5177 -0.0975
 8109TIP3   OH245741   1.925   0.625  15.247  0.5282 -0.3381  0.4890
 8109TIP3    H145742   1.844   0.577  15.264  0.0593  1.1406  2.9459
 8109TIP3    H245743   1.994   0.559  15.252 -0.3999 -1.4319 -0.5185
 8110TIP3   OH245744   4.066   0.395  10.933 -0.2735  0.2331  0.1413
 8110TIP3    H145745   4.110   0.448  10.999  1.7790  0.1736 -1.1018
 8110TIP3    H245746   3.983   0.439  10.918 -0.4281  0.7125  2.1387
 8111TIP3   OH245747   2.578   2.976  16.959  0.2908 -0.1394  0.2171
 8111TIP3    H145748   2.672   2.964  16.950  0.3597  0.5836 -0.0193
 8111TIP3    H245749   2.540   2.931  16.883  0.4226 -0.6359  0.4394
 8112TIP3   OH245750   3.021   1.716   0.635 -0.1108  0.5911 -0.5104
 8112TIP3    H145751   3.032   1.670   0.552  1.3715  1.2576 -0.7195
 8112TIP3    H245752   3.021   1.808   0.612  1.7552  0.8595  0.3080
 8113TIP3   OH245753   2.618   5.030  14.961  0.1637 -0.5090  0.3877
 8113TIP3    H145754   2.575   4.982  14.891  0.7807  1.3570 -1.3607
 8113TIP3    H245755   2.706   4.993  14.964  0.8100  0.7742 -1.3165
 8114TIP3   OH245756   2.264   2.125   0.074 -0.7084  0.4698  0.4336
 8114TIP3    H145757   2.270   2.149  -0.018  0.6539  0.8766  0.6175
 8114TIP3    H245758   2.340   2.166   0.115  0.4447 -2.2223  1.1831
 8115TIP3   OH245759   0.970   5.250  17.043 -0.6390  0.4703  0.6701
 8115TIP3    H145760   0.929   5.313  16.983 -0.6475  0.5257  0.7342
 8115TIP3    H245761   1.048   5.220  16.996 -0.4060  0.8470  0.8166
 8116TIP3   OH245762   3.422   3.475   1.892  0.1243  0.0113  0.7641
 8116TIP3    H145763   3.490   3.523   1.940 -0.1978  0.9841  0.2671
 8116TIP3    H245764   3.390   3.538   1.827  0.7150 -1.3312 -0.9092
 8117TIP3   OH245765   4.744   6.583   3.449 -0.6771  0.2470 -0.2298
 8117TIP3    H145766   4.659   6.539   3.458 -0.2503 -0.5605 -0.1205
 8117TIP3    H245767   4.721   6.673   3.426 -1.5514 -0.1856 -1.1387
 8118TIP3   OH245768   3.238   3.366   4.171 -0.2084  0.7917 -0.5522
 8118TIP3    H145769   3.180   3.384   4.097 -3.3521  0.3543  1.6047
 8118TIP3    H245770   3.278   3.282   4.150  0.0263  1.3039 -2.3085
 8119TIP3   OH245771   2.651   0.831  15.309  0.8266 -0.4160 -0.4746
 8119TIP3    H145772   2.746   0.827  15.296  0.7252 -2.8919 -1.0059
 8119TIP3    H245773   2.614   0.783  15.235 -0.7879 -0.3299  0.2312
 8120TIP3   OH245774   3.012   2.565   2.893 -0.4931  0.1226 -0.3144
 8120TIP3    H145775   3.016   2.472   2.914 -2.6055  0.0056 -0.1318
 8120TIP3    H245776   3.093   2.602   2.927 -0.9360 -1.1685  2.4019
 8121TIP3   OH245777   4.971   6.234   5.104 -0.0619  0.1324 -0.6294
 8121TIP3    H145778   4.896   6.280   5.142  0.3940  1.7179 -1.5477
 8121TIP3    H245779   5.047   6.276   5.144  0.3683  0.2185 -1.5195
 8122TIP3   OH245780   5.268   4.886   4.138  0.1198  0.1770 -0.3513
 8122TIP3    H145781   5.206   4.930   4.196 -0.7563  0.5665 -1.5463
 8122TIP3    H245782   5.300   4.956   4.081 -0.1928 -0.4687 -1.3276
 8123TIP3   OH245783   1.987   5.703   1.884 -0.1215  0.5319 -0.5188
 8123TIP3    H145784   1.943   5.738   1.961  1.6592 -0.2946  0.9481
 8123TIP3    H245785   2.023   5.779   1.839  0.3041  0.9067  0.4372
 8124TIP3   OH245786   3.636   5.284  16.578  0.2068  0.1759 -0.9381
 8124TIP3    H145787   3.714   5.262  16.629 -0.5316  1.8021  1.0125
 8124TIP3    H245788   3.582   5.205  16.582 -0.0285  0.3705  1.3016
 8125TIP3   OH245789   2.239   1.185   0.331  0.0357  0.6599 -0.2156
 8125TIP3    H145790   2.276   1.098   0.343 -0.1976  0.1962 -2.4083
 8125TIP3    H245791   2.258   1.231   0.413 -1.9008 -2.1525  2.0208
 8126TIP3   OH245792   5.190   4.296   2.712  0.3832 -0.6824 -0.1710
 8126TIP3    H145793   5.106   4.300   2.666 -0.1321  1.0699  0.8319
 8126TIP3    H245794   5.167   4.308   2.804  1.5689 -2.2398  0.3855
 8127TIP3   OH245795   4.630   4.876  13.289 -0.7106 -0.3568  0.2305
 8127TIP3    H145796   4.660   4.786  13.275  0.5439 -0.0718  0.9364
 8127TIP3    H245797   4.631   4.916  13.202  2.1545 -0.0273  0.3338
 8128TIP3   OH245798   5.573   6.459   2.151  0.1754  0.0005 -0.0517
 8128TIP3    H145799   5.533   6.418   2.074  0.4673  0.5058 -0.4710
 8128TIP3    H245800   5.578   6.552   2.130 -0.9678  0.3583  1.1061
 8129TIP3   OH245801   0.850   2.446   2.958 -0.3293  0.4548 -0.4469
 8129TIP3    H145802   0.906   2.368   2.957 -0.7746  0.1086  0.3649
 8129TIP3    H245803   0.783   2.427   3.024  0.8726  2.4180  1.4956
 8130TIP3   OH245804   6.184   1.098   5.992 -0.1550  0.4352 -0.8069
 8130TIP3    H145805   6.239   1.175   6.005 -0.4150  0.1862  3.1720
 8130TIP3    H245806   6.097   1.133   5.973 -0.0834  1.1201  0.0702
 8131TIP3   OH245807   4.045   1.718   1.164  0.0244  0.1914 -0.2185
 8131TIP3    H145808   4.118   1.761   1.120  0.6716 -0.8231 -0.1866
 8131TIP3    H245809   4.000   1.788   1.211  0.0002  1.1090 -1.5547
 8132TIP3   OH245810   3.714   2.020  11.410 -0.0780  0.0245  0.0923
 8132TIP3    H145811   3.743   2.074  11.336 -1.8623  0.2084 -0.5286
 8132TIP3    H245812   3.620   2.010  11.397 -0.3032 -0.6451  1.9087
 8133TIP3   OH245813   4.712   2.578   6.721 -0.5169 -0.3869 -0.2757
 8133TIP3    H145814   4.627   2.547   6.754 -0.6296 -0.9982 -1.1220
 8133TIP3    H245815   4.702   2.581   6.626  0.2269  0.0924 -0.3452
 8134TIP3   OH245816   5.228   4.595  16.944 -0.4727 -0.2270 -0.0821
 8134TIP3    H145817   5.136   4.583  16.918 -0.3121 -0.2284 -0.6790
 8134TIP3    H245818   5.267   4.643  16.870 -0.1280  0.2761  0.4225
 8135TIP3   OH245819   3.747   3.165   1.748 -0.4601 -0.2061  0.4519
 8135TIP3    H145820   3.774   3.235   1.807  0.3449 -1.7303  1.9847
 8135TIP3    H245821   3.806   3.092   1.768 -0.5887 -1.0207 -1.8059
 8136TIP3   OH245822   0.553   0.759  13.745  0.0213  0.6444 -0.3879
 8136TIP3    H145823   0.573   0.666  13.738  0.3586  0.7850 -1.4365
 8136TIP3    H245824   0.512   0.768  13.831  0.2547 -0.4178 -0.1486
 8137TIP3   OH245825   6.238   4.557  11.826 -0.6825  0.2882 -0.2592
 8137TIP3    H145826   6.149   4.533  11.854 -0.0564 -3.6498 -0.9746
 8137TIP3    H245827   6.255   4.500  11.751  2.2770  1.2611 -0.4422
 8138TIP3   OH245828   3.533   3.311  15.888  0.1489 -0.0495 -0.0608
 8138TIP3    H145829   3.559   3.310  15.795  1.1394 -1.5597  0.1874
 8138TIP3    H245830   3.505   3.221  15.905  1.3477 -0.1717  1.4394
 8139TIP3   OH245831   6.592   6.487   3.421  0.7423  0.0503 -0.4590
 8139TIP3    H145832   6.586   6.460   3.329  1.4394 -1.0950 -0.1883
 8139TIP3    H245833   6.685   6.508   3.433  0.9359 -1.1952  0.3445
 8140TIP3   OH245834   2.826   4.355  13.115  0.7534 -0.2198 -0.2278
 8140TIP3    H145835   2.915   4.388  13.126  1.1995 -0.5714 -2.3615
 8140TIP3    H245836   2.837   4.260  13.110  0.3611 -0.2308 -1.1019
 8141TIP3   OH245837   2.599   3.853   0.680  0.2794 -0.5248 -0.0188
 8141TIP3    H145838   2.612   3.914   0.753 -1.2408  0.7452 -0.7459
 8141TIP3    H245839   2.644   3.773   0.707  3.4938  1.2883  0.4104
 8142TIP3   OH245840   5.305   3.959   5.022  0.1747  0.3446 -0.4841
 8142TIP3    H145841   5.220   4.003   5.027 -0.1144 -0.1083 -1.2874
 8142TIP3    H245842   5.283   3.867   5.006  0.8477  0.4697 -2.2860
 8143TIP3   OH245843   4.661   6.588   3.792  0.1303 -0.7162  0.1544
 8143TIP3    H145844   4.605   6.564   3.718 -0.1298  0.0689  0.0821
 8143TIP3    H245845   4.655   6.514   3.852 -0.8239 -0.7501  0.0383
 8144TIP3   OH245846   3.567   0.681  15.112  0.3355 -0.7221 -0.3086
 8144TIP3    H145847   3.625   0.615  15.073 -0.7356 -0.3922 -2.6212
 8144TIP3    H245848   3.626   0.739  15.159  1.7502 -1.1636 -1.4382
 8145TIP3   OH245849   2.033   4.957  13.143  0.1156 -0.1369  0.2434
 8145TIP3    H145850   2.022   4.994  13.056 -1.3545  0.7611  0.7768
 8145TIP3    H245851   2.124   4.929  13.146  0.8511  1.9677 -0.7705
 8146TIP3   OH245852   0.531   2.439  13.402 -0.1949  0.0244  0.5466
 8146TIP3    H145853   0.481   2.467  13.479 -1.5791  0.2329 -0.3849
 8146TIP3    H245854   0.466   2.398  13.345  0.8582 -0.3999 -0.3750
 8147TIP3   OH245855   4.878   3.011   2.961  0.4398  0.3580  0.1766
 8147TIP3    H145856   4.946   2.969   3.013  0.4671  0.8312  0.5230
 8147TIP3    H245857   4.925   3.073   2.905  0.3632  0.1864 -0.0815
 8148TIP3   OH245858   4.991   2.791   2.494  0.0026  0.2441 -0.7773
 8148TIP3    H145859   5.056   2.796   2.425 -1.7402 -0.0182 -2.5202
 8148TIP3    H245860   4.944   2.874   2.489 -2.1638 -0.9671 -2.0834
 8149TIP3   OH245861   0.457   3.665  14.489 -0.1117 -0.7506 -0.0225
 8149TIP3    H145862   0.406   3.646  14.567  0.3426 -1.0983  0.1887
 8149TIP3    H245863   0.396   3.715  14.433 -0.8295 -1.5390  0.0316
 8150TIP3   OH245864   4.100   1.536  16.040  0.0496  0.1417 -0.6505
 8150TIP3    H145865   4.118   1.563  16.130  0.4531  0.4575 -0.8207
 8150TIP3    H245866   4.166   1.582  15.988 -1.2470  1.3710 -1.3038
 8151TIP3   OH245867   6.699   4.518  16.582  0.1595 -0.7812 -0.0689
 8151TIP3    H145868   6.711   4.611  16.562 -1.5069 -0.0182  2.0303
 8151TIP3    H245869   6.643   4.486  16.512 -0.4986  0.2287 -0.0425
 8152TIP3   OH245870   1.155   0.060  12.397 -0.7409  0.0492  0.5137
 8152TIP3    H145871   1.237   0.055  12.347 -0.6103 -0.9811  0.8073
 8152TIP3    H245872   1.182   0.051  12.488 -1.1903 -0.4461  0.6038
 8153TIP3   OH245873   2.255   3.229  14.376 -0.2242 -0.0356  0.7583
 8153TIP3    H145874   2.296   3.247  14.291  0.8308 -0.2443  1.2137
 8153TIP3    H245875   2.260   3.312  14.423 -1.3219  0.2415  0.4350
 8154TIP3   OH245876   5.825   3.919   6.417 -0.0870  0.4133 -0.1204
 8154TIP3    H145877   5.849   4.000   6.371 -1.6418  1.1335  0.2630
 8154TIP3    H245878   5.729   3.915   6.409 -0.0237 -1.5317 -0.3301
 8155TIP3   OH245879   2.985   0.464  13.083  0.4195  0.5286 -0.3864
 8155TIP3    H145880   3.042   0.531  13.045  1.9360 -1.4139 -1.7269
 8155TIP3    H245881   3.038   0.425  13.152 -0.3544  0.4803  0.1987
 8156TIP3   OH245882   2.381   3.137   5.037  0.5177  0.1310 -0.1957
 8156TIP3    H145883   2.350   3.066   5.092 -1.7354 -0.1920 -1.7282
 8156TIP3    H245884   2.468   3.157   5.069  0.1674 -1.5313  1.9720
 8157TIP3   OH245885   1.121   3.735   0.203  0.6834 -0.5796 -0.8370
 8157TIP3    H145886   1.098   3.658   0.255  0.9741 -0.4992 -0.5925
 8157TIP3    H245887   1.183   3.702   0.138  0.0581 -0.7521 -1.3618
 8158TIP3   OH245888   3.169   0.035  11.716 -0.5513  0.2398  0.3952
 8158TIP3    H145889   3.229  -0.031  11.680 -1.3425  0.0454 -0.6055
 8158TIP3    H245890   3.090   0.026  11.664 -0.9567  1.4510  0.7807
 8159TIP3   OH245891   0.146   5.653  15.089  0.2134  0.1168  0.4507
 8159TIP3    H145892   0.154   5.711  15.164 -1.1171  2.6648 -1.2280
 8159TIP3    H245893   0.234   5.620  15.074  1.1619  2.1354  1.2053
 8160TIP3   OH245894   3.314   1.078  14.227  0.1986  0.0891 -0.3900
 8160TIP3    H145895   3.404   1.109  14.241  0.0693  0.1009  0.5055
 8160TIP3    H245896   3.272   1.090  14.312 -0.7414  0.3715 -0.8859
 8161TIP3   OH245897   6.047   3.852  14.426 -0.3293 -0.1429  0.1127
 8161TIP3    H145898   6.080   3.829  14.340  0.9060 -0.5640  0.6745
 8161TIP3    H245899   6.071   3.944  14.437  1.2238 -0.5814  0.7266
 8162TIP3   OH245900   4.206   2.345  15.828 -0.1019 -0.4000 -0.3698
 8162TIP3    H145901   4.295   2.358  15.794  0.9092 -1.5615  1.6863
 8162TIP3    H245902   4.160   2.426  15.806  2.0333  1.0400  0.2237
 8163TIP3   OH245903   6.316   5.411  13.714 -1.0806  0.2428 -0.2417
 8163TIP3    H145904   6.336   5.451  13.629 -2.2902  1.9058  0.1952
 8163TIP3    H245905   6.300   5.486  13.772 -0.6076 -0.8644  1.3790
 8164TIP3   OH245906   0.990   4.931   0.626 -0.1697 -0.1176  0.0650
 8164TIP3    H145907   0.917   4.896   0.677 -0.7492  0.0433 -0.6260
 8164TIP3    H245908   0.948   4.971   0.550  0.6583 -0.2610 -0.4794
 8165TIP3   OH245909   1.114   4.949   2.642  0.1405  0.1843 -0.3291
 8165TIP3    H145910   1.140   4.934   2.733 -0.0062 -0.0919 -0.3325
 8165TIP3    H245911   1.020   4.961   2.645  0.1690  0.4381 -0.4137
 8166TIP3   OH245912   6.744   4.749   5.542 -0.0282 -0.2639  0.0014
 8166TIP3    H145913   6.666   4.777   5.494 -0.2577  1.8052  1.4621
 8166TIP3    H245914   6.800   4.827   5.544  1.0789 -1.0527  0.9420
 8167TIP3   OH245915   2.724   2.045  16.878  0.7105  0.0816  0.0827
 8167TIP3    H145916   2.663   1.984  16.838 -0.5396  1.2407  0.1709
 8167TIP3    H245917   2.752   2.001  16.959 -0.5435 -0.1905  0.3879
 8168TIP3   OH245918   5.665   3.086  14.862  0.1131 -0.5402 -0.3122
 8168TIP3    H145919   5.753   3.075  14.824 -0.0032  2.0659 -1.5774
 8168TIP3    H245920   5.607   3.041  14.800  0.5007 -2.7388  0.8039
 8169TIP3   OH245921   1.396   5.373   2.815 -0.2109 -0.1133 -0.0044
 8169TIP3    H145922   1.437   5.288   2.799 -1.3350 -0.5891 -0.4845
 8169TIP3    H245923   1.420   5.426   2.739  1.0636  0.2377  0.6260
 8170TIP3   OH245924   4.366   4.373  12.211 -0.5204 -0.3087  0.7546
 8170TIP3    H145925   4.427   4.444  12.229  0.3399 -1.0410  0.8473
 8170TIP3    H245926   4.337   4.343  12.297  0.1925 -0.9501  0.7886
 8171TIP3   OH245927   2.740   2.483   3.579 -0.0942  0.3894  0.5784
 8171TIP3    H145928   2.697   2.440   3.653  0.6601  0.0879  0.8525
 8171TIP3    H245929   2.672   2.537   3.540 -0.1726  1.6551  2.3359
 8172TIP3   OH245930   6.198   3.979  13.929 -0.4743  0.2570 -0.1507
 8172TIP3    H145931   6.170   4.035  14.001  0.0395  3.7822 -2.4424
 8172TIP3    H245932   6.121   3.927  13.907 -1.3898  0.9331  1.3337
 8173TIP3   OH245933   3.745   3.950  12.906  0.5415 -0.3022  0.2999
 8173TIP3    H145934   3.791   4.022  12.864  0.4550  0.3391  1.2640
 8173TIP3    H245935   3.725   3.982  12.994 -0.8051 -0.9527  0.2648
 8174TIP3   OH245936   4.469   2.300  16.896  0.0108 -0.2668 -0.4902
 8174TIP3    H145937   4.464   2.363  16.968 -3.0298  1.6375 -2.1742
 8174TIP3    H245938   4.529   2.340  16.833  0.1861 -0.3811 -0.3968
 8175TIP3   OH245939   3.155   0.354  13.255  0.3108  0.3599 -0.1762
 8175TIP3    H145940   3.216   0.428  13.248  0.2388  0.4770  0.3808
 8175TIP3    H245941   3.208   0.281  13.286  0.4480  0.0826 -1.0366
 8176TIP3   OH245942   3.786   2.338   5.795  0.3756  0.1983 -0.0052
 8176TIP3    H145943   3.823   2.297   5.874  1.9659 -0.4345 -1.0423
 8176TIP3    H245944   3.731   2.270   5.757 -0.4630  0.5329  0.5729
 8177TIP3   OH245945   6.075   3.272   5.413  0.0313  0.1611  0.0282
 8177TIP3    H145946   6.042   3.239   5.496  0.2824  1.1884  0.5459
 8177TIP3    H245947   6.131   3.346   5.436  0.6505  0.0351 -1.0100
 8178TIP3   OH245948   5.273   5.133   4.327  0.5935  0.1423  0.1464
 8178TIP3    H145949   5.254   5.219   4.365 -1.6230 -0.3203  0.2429
 8178TIP3    H245950   5.258   5.144   4.233 -0.3517 -0.2515  0.2323
 8179TIP3   OH245951   2.167   4.672   5.020  0.0506  0.2174 -0.3081
 8179TIP3    H145952   2.129   4.733   5.083  0.1058 -0.2947  0.2287
 8179TIP3    H245953   2.093   4.622   4.986  0.2341 -0.9232  0.8909
 8180TIP3   OH245954   0.739   3.237  13.470  0.0620 -0.6691  0.0577
 8180TIP3    H145955   0.645   3.245  13.456  0.3179 -0.7096 -1.8689
 8180TIP3    H245956   0.747   3.188  13.552 -1.5654  0.4992  0.9755
 8181TIP3   OH245957   2.507   1.770   4.815 -0.0431  0.7510  0.1560
 8181TIP3    H145958   2.572   1.699   4.819  0.2092  0.9450 -0.4037
 8181TIP3    H245959   2.475   1.778   4.905  2.0737  1.9038  0.8867
 8182TIP3   OH245960   0.728   2.975  12.699  1.0001 -0.0352  0.0507
 8182TIP3    H145961   0.793   2.905  12.690 -0.5033 -1.2447 -3.5540
 8182TIP3    H245962   0.747   3.034  12.626 -0.4949  0.8421  0.3364
 8183TIP3   OH245963   5.705   3.014   3.257 -0.0103  0.2734  0.4979
 8183TIP3    H145964   5.631   3.000   3.316 -0.9822 -0.1035 -0.7567
 8183TIP3    H245965   5.770   3.061   3.309  0.1831 -2.1242  2.5851
 8184TIP3   OH245966   3.454   4.269  10.722 -0.9113 -0.4572  0.1546
 8184TIP3    H145967   3.475   4.183  10.758 -0.1871 -0.9238 -1.2855
 8184TIP3    H245968   3.360   4.266  10.706 -0.5465 -2.0958 -2.4316
 8185TIP3   OH245969   2.936   3.801   4.637  0.5351  0.1040 -0.3408
 8185TIP3    H145970   2.932   3.852   4.555  1.4060  0.3738 -0.2313
 8185TIP3    H245971   2.972   3.716   4.610 -2.7459 -1.2770 -0.8695
 8186TIP3   OH245972   4.013   3.183   2.121  0.2430 -0.2455 -0.1266
 8186TIP3    H145973   4.048   3.234   2.194 -0.0460 -0.4153  0.1295
 8186TIP3    H245974   3.985   3.100   2.160 -0.3583 -0.1489 -0.3467
 8187TIP3   OH245975   6.681   4.518  12.415 -0.0763 -0.4297 -0.2517
 8187TIP3    H145976   6.768   4.512  12.454  0.1662  0.3661 -0.6421
 8187TIP3    H245977   6.630   4.569  12.477  0.3418  0.9381 -0.9710
 8188TIP3   OH245978   1.557   2.812   0.288 -0.0902 -0.1504  0.1965
 8188TIP3    H145979   1.549   2.818   0.193 -0.2731  0.3273  0.2399
 8188TIP3    H245980   1.467   2.819   0.320 -0.0195 -0.2119  0.4072
 8189TIP3   OH245981   2.722   3.056   4.867  0.0558  0.5102 -0.2521
 8189TIP3    H145982   2.669   3.099   4.800  0.4642  0.6408 -0.4919
 8189TIP3    H245983   2.797   3.022   4.819  0.4358  0.7555  0.1728
 8190TIP3   OH245984   4.508   3.115  10.940 -0.3144  0.3098 -0.2096
 8190TIP3    H145985   4.416   3.096  10.960  0.7205 -2.1773  3.0944
 8190TIP3    H245986   4.524   3.201  10.978 -0.5444 -0.7164  2.3809
 8191TIP3   OH245987   6.339   2.932  15.811 -0.3574  0.6106 -0.0193
 8191TIP3    H145988   6.378   2.921  15.897 -2.6937  0.4015  1.0753
 8191TIP3    H245989   6.262   2.875  15.812  0.1205 -0.2313 -2.6517
 8192TIP3   OH245990   6.338   6.209  15.493 -0.3096  0.0809 -0.5188
 8192TIP3    H145991   6.382   6.283  15.535 -1.5476  0.7495 -0.3332
 8192TIP3    H245992   6.283   6.172  15.561 -3.4761  2.0843 -1.7392
 8193TIP3   OH245993   4.095   5.711  13.475 -0.2792 -0.3062 -0.0730
 8193TIP3    H145994   4.187   5.728  13.495  0.2476 -1.6200 -1.2347
 8193TIP3    H245995   4.080   5.622  13.507 -1.3094  0.0705  0.5541
 8194TIP3   OH245996   4.478   1.971   0.747  0.1235 -0.8580  0.1845
 8194TIP3    H145997   4.411   2.027   0.786  0.8834 -0.6394  1.2227
 8194TIP3    H245998   4.453   1.964   0.655 -0.8406 -0.0815  0.3710
 8195TIP3   OH245999   3.262   1.249  16.085 -0.1748 -0.2267 -0.0448
 8195TIP3    H146000   3.218   1.294  16.157 -0.5991 -0.9418  0.1548
 8195TIP3    H246001   3.287   1.319  16.024 -1.9359  0.1888 -0.3530
 8196TIP3   OH246002   4.159   1.820   1.969 -0.0073 -0.1201  0.0267
 8196TIP3    H146003   4.084   1.772   1.933 -0.9784  3.0562 -2.7564
 8196TIP3    H246004   4.137   1.834   2.061 -1.3920 -1.7191 -0.0124
 8197TIP3   OH246005   6.218   6.284   0.492  0.0743  0.2566 -0.6739
 8197TIP3    H146006   6.219   6.236   0.575 -1.0261 -0.0269 -0.8051
 8197TIP3    H246007   6.272   6.231   0.433 -0.6146 -0.5155 -0.6371
 8198TIP3   OH246008   6.406   1.212   4.382 -0.3846 -0.1249  0.1744
 8198TIP3    H146009   6.360   1.137   4.345  1.1132 -2.0079  1.9251
 8198TIP3    H246010   6.461   1.245   4.311 -1.0069 -0.6975 -0.5887
 8199TIP3   OH246011   0.919   6.669  16.048 -0.5450  0.1364  0.1583
 8199TIP3    H146012   0.906   6.591  15.993 -3.5334  0.3174  0.4588
 8199TIP3    H246013   0.876   6.740  16.000 -0.7446  0.8936  1.4205
 8200TIP3   OH246014   2.196   1.735  11.032 -0.6829 -0.7293  0.2129
 8200TIP3    H146015   2.104   1.761  11.029 -0.3362  0.5986  0.3826
 8200TIP3    H246016   2.224   1.737  10.941 -1.1078 -2.2853  0.0289
 8201TIP3   OH246017   2.247   1.924   3.680  0.1397 -0.2893  0.2238
 8201TIP3    H146018   2.179   1.883   3.734 -1.9373  2.9279  0.3405
 8201TIP3    H246019   2.219   1.907   3.590  0.8809 -1.4610  0.1924
 8202TIP3   OH246020   4.330   0.841  13.131  0.1858 -0.4937 -0.2713
 8202TIP3    H146021   4.369   0.881  13.209 -0.6642  1.0203 -0.5713
 8202TIP3    H246022   4.242   0.879  13.127 -0.5235 -2.1374 -0.8223
 8203TIP3   OH246023   0.703   1.756   5.862  0.7415 -1.0266 -0.0723
 8203TIP3    H146024   0.695   1.848   5.837  0.0556 -1.2926 -0.8792
 8203TIP3    H246025   0.767   1.720   5.800  2.1325 -0.7892  1.1567
 8204TIP3   OH246026   1.211   0.314  15.004 -0.1355 -0.0278 -0.2077
 8204TIP3    H146027   1.296   0.272  15.013 -0.8388 -1.4535  0.0470
 8204TIP3    H246028   1.216   0.391  15.061  0.4905 -0.9045  0.9729
 8205TIP3   OH246029   6.012   0.779  11.511  0.6818 -0.1629  0.1692
 8205TIP3    H146030   5.990   0.835  11.437  0.3440 -1.1041 -0.4528
 8205TIP3    H246031   5.946   0.800  11.578 -0.7618 -1.3219 -0.8351
 8206TIP3   OH246032   4.003   4.508  16.782  0.1059 -0.1952  0.1545
 8206TIP3    H146033   3.938   4.548  16.724  0.9967  2.2781  0.7173
 8206TIP3    H246034   4.077   4.488  16.725  0.7188  1.6060  0.2597
 8207TIP3   OH246035   3.630   1.047   2.920 -0.0173  0.1108  0.0288
 8207TIP3    H146036   3.631   1.142   2.908 -0.5146  0.2399  0.9332
 8207TIP3    H246037   3.610   1.035   3.013  0.1783 -0.8781 -0.0492
 8208TIP3   OH246038   5.074   5.676   3.064  0.3027  0.0554 -0.1892
 8208TIP3    H146039   5.063   5.719   3.149  1.4192 -0.1805  0.1047
 8208TIP3    H246040   4.991   5.632   3.048 -0.0056  0.2949  0.6770
 8209TIP3   OH246041   3.989   5.649   0.224 -0.7711 -0.0006  0.3834
 8209TIP3    H146042   4.038   5.569   0.208 -2.5867 -1.0110 -0.3568
 8209TIP3    H246043   3.910   5.620   0.269 -1.9377  1.2212 -0.7940
 8210TIP3   OH246044   5.280   5.963  14.239  0.1714  0.0393 -0.5510
 8210TIP3    H146045   5.336   5.888  14.258 -1.4931 -1.4063 -1.1321
 8210TIP3    H246046   5.260   6.001  14.325 -1.2107 -1.8995  0.0441
 8211TIP3   OH246047   3.200   1.662  10.714  0.2026  0.0288  0.2235
 8211TIP3    H146048   3.181   1.568  10.709  1.5284 -0.2565  0.0664
 8211TIP3    H246049   3.135   1.696  10.775 -1.5222 -0.6239 -1.1791
 8212TIP3   OH246050   6.484   2.749  17.269 -0.2226  0.0858 -0.2673
 8212TIP3    H146051   6.531   2.767  17.350 -1.0971  1.0325  0.0568
 8212TIP3    H246052   6.496   2.655  17.255  0.6755  0.0709  0.4779
 8213TIP3   OH246053   5.689   5.585   0.763  0.4826  0.2283  0.0965
 8213TIP3    H146054   5.743   5.656   0.796  1.2582  0.7065 -2.0657
 8213TIP3    H246055   5.752   5.518   0.735 -0.2021 -0.8406  1.0139
 8214TIP3   OH246056   2.406   3.752   0.472 -0.5530  0.1507 -0.1952
 8214TIP3    H146057   2.332   3.811   0.483 -0.2066  0.4387  0.6328
 8214TIP3    H246058   2.478   3.794   0.519  0.2359  0.0358 -1.2721
 8215TIP3   OH246059   2.477   4.149   0.210  0.6536  0.4008 -0.4086
 8215TIP3    H146060   2.512   4.060   0.222 -0.7462 -0.1710 -0.3841
 8215TIP3    H246061   2.382   4.137   0.208  0.4503  1.8950 -0.5320
 8216TIP3   OH246062   4.366   0.493   2.457  0.1877  0.1377  0.2829
 8216TIP3    H146063   4.287   0.497   2.512  0.2198 -1.6111  0.5274
 8216TIP3    H246064   4.360   0.408   2.414  0.8016  0.9587 -1.4994
 8217TIP3   OH246065   0.122   5.706   4.028 -0.0527 -0.1354 -0.3898
 8217TIP3    H146066   0.182   5.667   3.964  0.7720 -1.6922  1.2393
 8217TIP3    H246067   0.175   5.714   4.107 -1.6170 -0.1753  0.6817
 8218TIP3   OH246068   3.963   2.700  10.700  0.9105 -0.5583  0.4787
 8218TIP3    H146069   4.001   2.716  10.614 -2.0263 -2.1948 -1.2786
 8218TIP3    H246070   3.931   2.785  10.728  2.8347  0.2059  0.5410
 8219TIP3   OH246071   2.842   5.847  12.829  0.1502  0.3628 -0.4552
 8219TIP3    H146072   2.824   5.762  12.869  1.9937 -0.6507 -1.6289
 8219TIP3    H246073   2.766   5.864  12.773 -0.7984  0.1187  0.7103
 8220TIP3   OH246074   5.666   5.654  14.877 -0.7480 -0.0293  0.6534
 8220TIP3    H146075   5.614   5.726  14.840 -0.1308  0.2987  0.4119
 8220TIP3    H246076   5.752   5.663  14.836 -0.7469 -1.0918  0.3952
 8221TIP3   OH246077   0.123   1.538   6.018 -0.3077  0.1849 -0.4224
 8221TIP3    H146078   0.076   1.508   6.096 -2.3342 -1.1352 -2.0517
 8221TIP3    H246079   0.209   1.495   6.023 -0.3413  0.2381  1.1166
 8222TIP3   OH246080   0.596   4.034  10.755  0.1035 -0.0400  0.3583
 8222TIP3    H146081   0.612   3.990  10.671 -1.3593 -2.1900  1.1221
 8222TIP3    H246082   0.513   4.079  10.742 -0.0842 -0.3093  0.6130
 8223TIP3   OH246083   0.588   4.490  12.830 -0.3748 -0.2530  0.2743
 8223TIP3    H146084   0.559   4.420  12.772 -0.9364  0.5302 -0.4134
 8223TIP3    H246085   0.508   4.528  12.865 -0.0501 -0.7248  1.6218
 8224TIP3   OH246086   5.648   1.115   4.322 -0.1738  0.2800  0.1218
 8224TIP3    H146087   5.654   1.068   4.405 -0.5566  2.7996  1.6600
 8224TIP3    H246088   5.701   1.063   4.262 -0.4330 -1.9932  1.7103
 8225TIP3   OH246089   2.030   3.070   0.641 -0.8034 -0.2075 -0.2442
 8225TIP3    H146090   1.998   3.030   0.722  0.3753  0.2132  0.4575
 8225TIP3    H246091   2.100   3.012   0.611 -0.6040  0.1332 -0.4442
 8226TIP3   OH246092   6.624   1.926  10.901 -0.6692  0.2783  0.4341
 8226TIP3    H146093   6.613   1.942  10.995  0.7007  2.4321  0.3136
 8226TIP3    H246094   6.688   1.992  10.874  0.1045 -1.2764 -1.7368
 8227TIP3   OH246095   0.973   4.888  13.478  0.1011  0.3146 -0.1027
 8227TIP3    H146096   1.018   4.963  13.438 -0.4712  0.8965  0.3337
 8227TIP3    H246097   0.895   4.875  13.423 -0.2981  0.6471  0.3782
 8228TIP3   OH246098   2.167   2.545   2.121  0.0298 -0.0614 -0.8744
 8228TIP3    H146099   2.184   2.487   2.196 -3.6473 -1.0861 -0.6478
 8228TIP3    H246100   2.158   2.485   2.046 -1.5394  0.3752 -1.0685
 8229TIP3   OH246101   2.904   3.771   3.633  0.3370 -0.4972 -0.0458
 8229TIP3    H146102   2.985   3.817   3.655  0.8060 -0.7903 -1.1303
 8229TIP3    H246103   2.927   3.679   3.632  0.0367 -0.5698 -0.5613
 8230TIP3   OH246104   3.454   5.028  10.868  0.0762  0.6069  0.0374
 8230TIP3    H146105   3.526   5.061  10.814  0.5997 -1.4340 -0.6184
 8230TIP3    H246106   3.430   4.945  10.827 -0.6871 -0.1800  1.9596
 8231TIP3   OH246107   1.343   4.283   1.782 -0.3251 -0.1812  0.2990
 8231TIP3    H146108   1.334   4.368   1.824  0.7367 -0.8310  1.9408
 8231TIP3    H246109   1.421   4.291   1.728  0.5674 -0.4791  1.5022
 8232TIP3   OH246110   1.867   1.760  14.110 -0.2866 -0.2260 -0.3589
 8232TIP3    H146111   1.890   1.809  14.031  0.0721  0.5940  0.2400
 8232TIP3    H246112   1.940   1.775  14.169 -1.8192  1.5203  1.1872
 8233TIP3   OH246113   0.395   3.889   0.883  0.5820  0.5493  0.0741
 8233TIP3    H146114   0.432   3.827   0.820 -0.0979 -1.4103  1.5108
 8233TIP3    H246115   0.418   3.975   0.848 -0.8434 -0.3637 -3.4924
 8234TIP3   OH246116   3.776   4.589   5.201  0.0560 -0.0957 -0.1026
 8234TIP3    H146117   3.814   4.677   5.201  1.1440 -0.5361  0.8786
 8234TIP3    H246118   3.851   4.531   5.195 -0.3198 -1.0184  2.7700
 8235TIP3   OH246119   4.494   0.677   3.869 -0.0398  0.1287  0.0009
 8235TIP3    H146120   4.437   0.753   3.856  1.0844  0.9766 -0.1185
 8235TIP3    H246121   4.450   0.626   3.936 -0.2907  1.4403  0.8794
 8236TIP3   OH246122   0.726   4.131  12.752  0.7956  0.1665  0.2165
 8236TIP3    H146123   0.716   4.040  12.722  0.0538  0.1888  0.3761
 8236TIP3    H246124   0.816   4.153  12.729  0.5944 -0.1775 -1.0328
 8237TIP3   OH246125   0.768   2.532  12.307 -0.3514 -0.1047 -0.2692
 8237TIP3    H146126   0.687   2.549  12.355  0.4161 -0.2717  1.1457
 8237TIP3    H246127   0.831   2.506  12.375  0.7940 -0.3088 -1.3739
 8238TIP3   OH246128   0.627   4.909  13.961 -0.0180  0.3845  0.3714
 8238TIP3    H146129   0.554   4.847  13.965 -0.6256  1.0419 -0.3418
 8238TIP3    H246130   0.660   4.902  13.871  0.1976  0.7762  0.4180
 8239TIP3   OH246131   1.634   3.171   3.095 -0.1714  0.3514  0.5161
 8239TIP3    H146132   1.681   3.230   3.153  0.3867 -0.1066  0.5415
 8239TIP3    H246133   1.650   3.084   3.132 -1.4188  0.2177  0.7906
 8240TIP3   OH246134   0.276   1.863   5.552 -0.1085  0.3575 -0.8019
 8240TIP3    H146135   0.266   1.775   5.515  1.0800 -0.4971  0.7493
 8240TIP3    H246136   0.186   1.894   5.566 -0.6270 -1.6430  0.8416
 8241TIP3   OH246137   5.481   1.773  12.876 -0.2833 -0.2792  0.1485
 8241TIP3    H146138   5.564   1.740  12.911  1.2292  1.4668 -1.5167
 8241TIP3    H246139   5.497   1.781  12.782 -2.0966  0.8188 -0.1067
 8242TIP3   OH246140   4.856   2.914   3.841  0.0272  0.4247  0.3264
 8242TIP3    H146141   4.936   2.922   3.789  0.3796 -2.8308  0.1726
 8242TIP3    H246142   4.795   2.976   3.800  1.5941  0.9788 -1.3039
 8243TIP3   OH246143   1.378   2.116  17.226  0.0932  0.3424  0.1866
 8243TIP3    H146144   1.399   2.183  17.161 -0.0275 -0.5183 -0.7680
 8243TIP3    H246145   1.334   2.047  17.176 -2.4025  0.7841  1.6302
 8244TIP3   OH246146   0.629   2.589   5.151  0.6974  0.6500 -0.0459
 8244TIP3    H146147   0.655   2.663   5.205  0.2126  0.6219  0.2311
 8244TIP3    H246148   0.632   2.513   5.210  0.9763  0.4779 -0.2720
 8245TIP3   OH246149   5.014   5.250   4.382 -0.2805  0.3154  0.1092
 8245TIP3    H146150   5.039   5.205   4.463  0.4081  0.2742 -0.1159
 8245TIP3    H246151   4.982   5.180   4.325  1.5722 -0.0753 -0.5479
 8246TIP3   OH246152   3.325   4.159   4.994 -0.0655 -0.1726  0.0278
 8246TIP3    H146153   3.297   4.242   4.955  1.5024  0.6566  0.5756
 8246TIP3    H246154   3.327   4.177   5.088  1.9836 -0.2407  0.0385
 8247TIP3   OH246155   5.358   5.217   5.169 -0.0147  0.4304  0.2050
 8247TIP3    H146156   5.356   5.181   5.258  0.0024 -0.5621 -0.1904
 8247TIP3    H246157   5.266   5.233   5.148 -0.0867 -0.1191  0.0910
 8248TIP3   OH246158   6.571   1.330  13.463  0.3006 -0.2582  0.0012
 8248TIP3    H146159   6.482   1.357  13.486 -0.2627 -2.8857  1.2634
 8248TIP3    H246160   6.565   1.235  13.449  3.3656 -1.1344  3.1615
 8249TIP3   OH246161   6.190   1.780  12.789 -0.3172  0.4223 -0.0127
 8249TIP3    H146162   6.133   1.856  12.799  0.7960  1.5353 -1.5269
 8249TIP3    H246163   6.249   1.803  12.717  2.4849 -0.3837  1.8268
 8250TIP3   OH246164   5.831   2.758   4.194  0.3694  0.3400  0.1552
 8250TIP3    H146165   5.736   2.762   4.178  0.2201 -1.7075  0.2370
 8250TIP3    H246166   5.854   2.846   4.223 -1.9345  0.3202  2.4550
 8251TIP3   OH246167   4.901   2.569   0.557 -0.1744 -0.7413  0.6303
 8251TIP3    H146168   4.871   2.478   0.559 -1.7310 -0.3565 -1.5838
 8251TIP3    H246169   4.893   2.595   0.465  0.7482  1.4719  1.1136
 8252TIP3   OH246170   4.174   1.280  16.926 -1.0404 -0.6642 -0.6609
 8252TIP3    H146171   4.106   1.323  16.977  2.9599  3.0692  2.2345
 8252TIP3    H246172   4.220   1.224  16.988 -0.6545 -2.1239 -2.1910
 8253TIP3   OH246173   1.944   4.929   1.521 -0.1901 -0.5885 -0.2273
 8253TIP3    H146174   1.889   4.913   1.445 -1.8738 -0.4276  0.8990
 8253TIP3    H246175   1.932   5.021   1.541  1.6152 -0.1916 -0.7472
 8254TIP3   OH246176   3.362   3.805   6.147  0.4461 -0.0807  0.6994
 8254TIP3    H146177   3.308   3.767   6.078 -0.2188  1.3728  0.3731
 8254TIP3    H246178   3.434   3.848   6.100  1.6305 -1.5266  1.1004
 8255TIP3   OH246179   4.365   6.312  15.408  0.1207 -0.0413 -0.2861
 8255TIP3    H146180   4.334   6.228  15.440  1.0585  0.0535  0.9503
 8255TIP3    H246181   4.416   6.348  15.481 -1.1106  2.0729 -0.4018
 8256TIP3   OH246182   5.137   4.375   0.936  0.1225 -0.2521  0.4044
 8256TIP3    H146183   5.064   4.421   0.978 -0.6625 -0.2773 -0.8727
 8256TIP3    H246184   5.185   4.444   0.891  0.6759 -0.2962  0.9094
 8257TIP3   OH246185   0.224   6.062   4.116  0.5416 -0.1020 -0.7585
 8257TIP3    H146186   0.210   5.973   4.147 -2.0139  0.5175  0.1129
 8257TIP3    H246187   0.242   6.052   4.023  1.1598 -1.5602 -0.5093
 8258TIP3   OH246188   3.979   5.577  17.126 -0.3900  0.7449  0.2273
 8258TIP3    H146189   4.034   5.646  17.163  0.7834 -1.1148  2.1630
 8258TIP3    H246190   3.958   5.521  17.200 -0.6065 -1.4498 -1.4061
 8259TIP3   OH246191   4.843   4.029   0.447 -0.0345  0.6156 -0.3523
 8259TIP3    H146192   4.867   3.956   0.504 -0.6241  0.4469 -0.3064
 8259TIP3    H246193   4.751   4.012   0.425 -0.0777  1.1671 -0.6096
 8260TIP3   OH246194   1.126   5.602  15.785  0.1080  0.0109  0.1632
 8260TIP3    H146195   1.084   5.556  15.712  2.9615  0.7195 -2.1071
 8260TIP3    H246196   1.128   5.538  15.856 -2.1439 -0.9406 -0.5362
 8261TIP3   OH246197   5.434   3.799  16.633  0.1846 -0.8054  0.1636
 8261TIP3    H146198   5.416   3.845  16.714 -2.3478 -0.4732 -0.5149
 8261TIP3    H246199   5.473   3.865  16.576  0.5406 -0.6492  0.5805
 8262TIP3   OH246200   2.689   0.115   2.073  0.0886  0.0474 -0.0269
 8262TIP3    H146201   2.684   0.034   2.124 -1.2171  1.3336  2.0689
 8262TIP3    H246202   2.623   0.172   2.113 -1.8515  0.8461 -3.9221
 8263TIP3   OH246203   4.847   0.454   5.233 -0.7164  0.1821  0.0736
 8263TIP3    H146204   4.831   0.361   5.218 -0.5269  0.1592  0.0030
 8263TIP3    H246205   4.923   0.456   5.291  1.4950  0.3085 -2.5830
 8264TIP3   OH246206   2.869   3.848   4.186 -0.1804 -0.3635  0.3023
 8264TIP3    H146207   2.805   3.788   4.224 -2.2301  0.1717 -2.0226
 8264TIP3    H246208   2.909   3.799   4.115  1.2498 -0.3203  1.0504
 8265TIP3   OH246209   1.354   3.303  10.908  0.1513 -0.2753 -0.3714
 8265TIP3    H146210   1.280   3.260  10.951  0.7312  0.4949  1.5185
 8265TIP3    H246211   1.419   3.234  10.896  0.0551 -0.4615  0.1684
 8266TIP3   OH246212   0.009   4.038   5.389  0.2671 -0.3006 -0.0497
 8266TIP3    H146213   0.088   4.026   5.440  0.9277 -1.0347 -1.1991
 8266TIP3    H246214  -0.032   4.116   5.425  1.7997  0.4074  0.2012
 8267TIP3   OH246215   1.053   4.525   1.895  0.4200 -0.1462  1.0501
 8267TIP3    H146216   1.042   4.571   1.978 -2.3051 -0.9700  1.2245
 8267TIP3    H246217   1.077   4.436   1.921 -1.4290 -0.6823  1.0794
 8268TIP3   OH246218   0.509   0.580   0.520 -0.4298 -0.6882  0.3244
 8268TIP3    H146219   0.455   0.549   0.593  1.3359 -1.1092  1.5186
 8268TIP3    H246220   0.599   0.557   0.545  0.5725  1.8544 -0.5741
 8269TIP3   OH246221   3.356   6.480   4.100  0.2517  0.1497  0.3913
 8269TIP3    H146222   3.387   6.568   4.078 -1.3729  1.2482  2.1431
 8269TIP3    H246223   3.394   6.462   4.186 -0.0164 -0.5504  0.3729
 8270TIP3   OH246224   2.411   5.645   2.553  0.5967 -0.2338  0.3129
 8270TIP3    H146225   2.477   5.704   2.590  1.2543 -0.6627 -0.1608
 8270TIP3    H246226   2.341   5.703   2.523  0.0144  0.1240  2.2475
 8271TIP3   OH246227   0.336   6.536   5.389 -0.0689  0.3212  0.0198
 8271TIP3    H146228   0.346   6.479   5.313 -2.3168 -2.8753  1.8806
 8271TIP3    H246229   0.400   6.504   5.452 -0.9695  0.1497  0.8867
 8272TIP3   OH246230   0.389   3.928  14.923 -0.4525  0.2582 -0.1965
 8272TIP3    H146231   0.474   3.916  14.965 -1.4804  1.2584  2.4059
 8272TIP3    H246232   0.377   4.023  14.921 -2.1646  0.1178  1.0409
 8273TIP3   OH246233   3.518   0.724   5.114 -0.2826 -0.5545  0.1197
 8273TIP3    H146234   3.598   0.740   5.165  0.1807 -2.2591  0.0130
 8273TIP3    H246235   3.496   0.633   5.133 -0.2950 -1.1644 -2.4206
 8274TIP3   OH246236   4.286   0.270   3.601 -0.0446  0.4048  0.4137
 8274TIP3    H146237   4.248   0.211   3.536  1.6839 -0.4022  0.0779
 8274TIP3    H246238   4.356   0.315   3.554  0.9219  0.1597  1.5591
 8275TIP3   OH246239   5.609   3.203  13.358 -0.5221  0.1025  0.0002
 8275TIP3    H146240   5.517   3.229  13.352 -0.6244  0.1497  1.3293
 8275TIP3    H246241   5.611   3.144  13.434  0.3826 -0.6750 -0.6095
 8276TIP3   OH246242   4.099   3.313   2.489  0.5171  0.2214 -0.1699
 8276TIP3    H146243   4.044   3.363   2.550  1.2363 -0.2484  0.8838
 8276TIP3    H246244   4.110   3.372   2.414  1.3854  1.6866  1.0699
 8277TIP3   OH246245   2.484   0.145  15.057  0.2130  0.3886  0.5666
 8277TIP3    H146246   2.405   0.092  15.064  0.4677 -0.0596  0.1001
 8277TIP3    H246247   2.554   0.086  15.085  0.5398  0.3658 -0.2643
 8278TIP3   OH246248   4.048   5.708  14.418 -0.0312 -0.3185  0.1503
 8278TIP3    H146249   3.969   5.701  14.365  0.7834  0.3491 -1.2165
 8278TIP3    H246250   4.022   5.761  14.494 -0.3969  1.8004 -1.3818
 8279TIP3   OH246251   5.795   2.190  10.491  0.3175  0.2305  0.0408
 8279TIP3    H146252   5.813   2.268  10.544  2.4917  0.8904 -1.4987
 8279TIP3    H246253   5.750   2.224  10.413 -0.1607 -0.2985  0.0798
 8280TIP3   OH246254   5.571   3.107   1.995 -0.0883  0.0075 -1.0050
 8280TIP3    H146255   5.641   3.140   1.939  0.6849  0.8598  0.3981
 8280TIP3    H246256   5.605   3.116   2.084 -1.9098  0.2625 -0.2830
 8281TIP3   OH246257   2.836   6.302  17.021  0.2565 -0.6364  0.5113
 8281TIP3    H146258   2.920   6.343  16.998  0.3318 -0.6486  0.7615
 8281TIP3    H246259   2.858   6.211  17.039  0.2759 -0.5149  1.1055
 8282TIP3   OH246260   6.267   5.332   1.261 -0.8564  0.5418 -0.4299
 8282TIP3    H146261   6.347   5.334   1.208 -0.6790  0.2777 -0.1773
 8282TIP3    H246262   6.298   5.313   1.350 -0.9966  2.3887  0.0594
 8283TIP3   OH246263   1.332   3.335  11.605 -0.0389  0.0815 -0.2828
 8283TIP3    H146264   1.327   3.255  11.554  1.4096  0.2821 -0.7633
 8283TIP3    H246265   1.328   3.406  11.540 -0.6970  0.4051  0.0908
 8284TIP3   OH246266   4.177   4.211   2.257  0.0161 -0.1928  0.0813
 8284TIP3    H146267   4.210   4.285   2.205 -1.5420  0.3640 -0.1887
 8284TIP3    H246268   4.126   4.252   2.327 -0.1253 -0.9939  0.4530
 8285TIP3   OH246269   4.023   5.849  16.468  0.2851  1.1403 -0.0377
 8285TIP3    H146270   4.034   5.916  16.535  2.9996 -0.1780  0.9728
 8285TIP3    H246271   4.100   5.858  16.412 -0.4542  0.2803 -1.2460
 8286TIP3   OH246272   0.326   4.377   3.474  0.3667  0.1689  0.8905
 8286TIP3    H146273   0.265   4.447   3.450 -0.0114 -0.2747  0.5334
 8286TIP3    H246274   0.357   4.344   3.390  1.7925  0.9753  1.0683
 8287TIP3   OH246275   5.691   1.228  12.559 -0.0643 -0.1430 -0.5304
 8287TIP3    H146276   5.697   1.230  12.654 -0.7430 -2.6755 -0.3552
 8287TIP3    H246277   5.778   1.252  12.528  0.6185 -0.8562  0.7737
 8288TIP3   OH246278   5.076   0.775   4.180 -0.5965  0.4985  0.5445
 8288TIP3    H146279   5.169   0.795   4.168 -0.0857 -0.3331  2.6761
 8288TIP3    H246280   5.072   0.679   4.174 -1.3255  0.5371  0.3750
 8289TIP3   OH246281   4.107   0.009   4.241 -0.0049 -0.5571  0.0270
 8289TIP3    H146282   4.015  -0.018   4.237 -0.2617  0.2039  0.5312
 8289TIP3    H246283   4.143  -0.017   4.156 -0.4988 -1.4949  0.0899
 8290TIP3   OH246284   4.897   0.522  12.272  0.5191 -0.2508  0.2726
 8290TIP3    H146285   4.954   0.445  12.280 -0.6103 -1.2404 -0.8117
 8290TIP3    H246286   4.950   0.586  12.224  1.2763 -0.5514  0.6884
 8291TIP3   OH246287   5.379   4.235   0.087 -0.4771 -0.0787  0.0624
 8291TIP3    H146288   5.356   4.173   0.017 -0.2528  0.1850 -0.2469
 8291TIP3    H246289   5.466   4.267   0.063 -0.0194 -0.6249  0.9059
 8292TIP3   OH246290   3.635   4.321  17.043  0.0579  0.0780  0.5452
 8292TIP3    H146291   3.587   4.374  16.979  0.1798 -1.0976 -0.5472
 8292TIP3    H246292   3.726   4.327  17.015  0.2501  0.3562  1.2093
 8293TIP3   OH246293   0.147   0.170  13.241 -0.5890 -0.0418  0.2502
 8293TIP3    H146294   0.113   0.169  13.331  0.1085 -0.7894  0.5243
 8293TIP3    H246295   0.071   0.187  13.186 -1.5354 -2.2134  0.7911
 8294TIP3   OH246296   6.509   3.940  11.283 -0.0093 -0.2598 -0.1294
 8294TIP3    H146297   6.569   4.014  11.279  1.2254 -1.2619 -1.6463
 8294TIP3    H246298   6.422   3.977  11.270  0.6053  0.8926 -1.0320
 8295TIP3   OH246299   1.937   3.794   0.401 -0.2240  0.4084  0.7776
 8295TIP3    H146300   2.007   3.731   0.419 -0.5929  0.2438  1.7041
 8295TIP3    H246301   1.871   3.744   0.354  0.2364  0.5454 -0.0322
 8296TIP3   OH246302   3.915   2.010   1.908  0.3294 -0.2735  0.3919
 8296TIP3    H146303   4.007   2.011   1.881  0.3766  0.6547  0.5662
 8296TIP3    H246304   3.872   1.955   1.843  0.9029 -0.2187 -0.0471
 8297TIP3   OH246305   5.161   1.154   4.514  0.0996  0.3090  0.4740
 8297TIP3    H146306   5.095   1.150   4.583  0.4340 -0.5861  0.7607
 8297TIP3    H246307   5.207   1.237   4.529 -1.5668  1.4299 -0.3333
 8298TIP3   OH246308   3.444   0.900   2.771  0.8922 -0.1864 -0.2491
 8298TIP3    H146309   3.444   0.809   2.802  2.5843 -0.9687 -2.2554
 8298TIP3    H246310   3.522   0.938   2.811 -0.0752  0.5775  0.9717
 8299TIP3   OH246311   5.446   1.787   3.217 -0.1549  0.0502 -0.3312
 8299TIP3    H146312   5.398   1.848   3.274 -0.5431  0.8067 -1.4349
 8299TIP3    H246313   5.538   1.805   3.235 -0.2719  0.0630  0.2821
 8300TIP3   OH246314   6.651   5.725  13.565 -0.3393 -0.5998 -0.5179
 8300TIP3    H146315   6.636   5.723  13.471 -0.3523  0.7168 -0.5715
 8300TIP3    H246316   6.563   5.729  13.603 -0.3245  0.5360 -0.5474
 8301TIP3   OH246317   1.658   6.348  13.181  0.0243 -0.3310 -0.1594
 8301TIP3    H146318   1.632   6.391  13.099  0.1177 -3.4659 -2.0014
 8301TIP3    H246319   1.576   6.324  13.223 -0.0198  0.9687  0.5431
 8302TIP3   OH246320   3.392   5.485  13.250 -0.5522  0.6019 -0.6642
 8302TIP3    H146321   3.443   5.551  13.205  0.1834 -0.7288 -1.8467
 8302TIP3    H246322   3.441   5.467  13.331 -0.1268  0.6516 -0.9107
 8303TIP3   OH246323   4.335   3.699   1.290 -0.7585  0.4566  0.5073
 8303TIP3    H146324   4.342   3.741   1.376  0.6511 -0.0515  0.6639
 8303TIP3    H246325   4.274   3.627   1.304 -2.4944  1.8350  0.4533
 8304TIP3   OH246326   2.918   3.373   3.362 -0.1003 -0.0736 -0.4813
 8304TIP3    H146327   2.973   3.295   3.360 -0.2198 -0.1643 -3.0237
 8304TIP3    H246328   2.861   3.365   3.286 -0.3616  2.3222 -0.6266
 8305TIP3   OH246329   4.839   2.280  11.966 -0.0577  0.1098 -0.1004
 8305TIP3    H146330   4.891   2.234  11.900 -1.6440 -1.2327 -0.4625
 8305TIP3    H246331   4.813   2.362  11.925 -0.3757 -0.3702 -0.8630
 8306TIP3   OH246332   0.112   1.947   5.828  0.3258  0.1547  0.1568
 8306TIP3    H146333   0.188   2.004   5.818  0.2953  0.0390 -0.7894
 8306TIP3    H246334   0.067   1.952   5.744  0.4273 -1.4192 -0.0110
 8307TIP3   OH246335   5.048   0.662  14.370  0.3501 -0.3466  0.3089
 8307TIP3    H146336   5.048   0.697  14.459  1.7006  1.3731 -0.3262
 8307TIP3    H246337   5.001   0.579  14.378  0.6596 -0.3715  2.6679
 8308TIP3   OH246338   6.167   0.835  13.420 -0.0049 -0.3632 -0.4737
 8308TIP3    H146339   6.194   0.885  13.343  0.0573 -0.1521 -0.3132
 8308TIP3    H246340   6.071   0.836  13.416 -0.0122  0.2643 -0.1502
 8309TIP3   OH246341   1.489   4.678   4.589 -0.4684 -0.1966 -0.2017
 8309TIP3    H146342   1.577   4.709   4.571  0.1317 -2.4067 -1.5752
 8309TIP3    H246343   1.485   4.669   4.684  0.7958 -0.0809 -0.1214
 8310TIP3   OH246344   2.923   5.874  11.830 -0.1043 -0.6850 -0.6015
 8310TIP3    H146345   3.000   5.914  11.790  0.4494 -2.2886 -1.2008
 8310TIP3    H246346   2.892   5.939  11.893  1.4048  0.2127 -0.7520
 8311TIP3   OH246347   1.206   1.282  15.389 -0.1122  0.2847  0.5927
 8311TIP3    H146348   1.231   1.371  15.363 -0.6475 -0.0657 -1.2615
 8311TIP3    H246349   1.127   1.264  15.338  0.6148 -1.6669  0.0887
 8312TIP3   OH246350   1.932   6.450  10.378 -0.1722  0.4365 -0.2048
 8312TIP3    H146351   2.016   6.457  10.333 -0.7754  2.0861 -1.1416
 8312TIP3    H246352   1.878   6.396  10.321  0.3463 -1.0120  0.6157
 8313TIP3   OH246353   3.372   2.893   1.211 -0.1751  0.2139  0.4136
 8313TIP3    H146354   3.422   2.881   1.292  0.8071 -0.7420 -0.3006
 8313TIP3    H246355   3.294   2.840   1.222  0.6616 -1.1233  0.1782
 8314TIP3   OH246356   6.641   5.221  17.074 -0.1421 -0.4895  0.2875
 8314TIP3    H146357   6.612   5.168  17.148  1.9749 -0.6180  1.1024
 8314TIP3    H246358   6.645   5.160  17.000 -1.4266 -0.5586  0.2626
 8315TIP3   OH246359   6.719   0.194  12.112  0.1584 -0.7913 -0.1976
 8315TIP3    H146360   6.776   0.271  12.119  0.1394 -0.7246 -0.7325
 8315TIP3    H246361   6.778   0.120  12.124  0.6395 -0.7800 -2.1831
 8316TIP3   OH246362   6.218   2.220  11.249 -0.0456 -0.3026  0.1112
 8316TIP3    H146363   6.160   2.232  11.174  0.2034  0.0437 -0.0317
 8316TIP3    H246364   6.304   2.204  11.210  0.9707  3.8066  0.2056
 8317TIP3   OH246365   2.689   0.452   4.910 -0.1947 -0.1532  0.0546
 8317TIP3    H146366   2.701   0.533   4.860  0.0978  0.0340  0.4236
 8317TIP3    H246367   2.650   0.391   4.847  0.7110 -0.1026 -0.5676
 8318TIP3   OH246368   5.778   0.539  16.475 -0.6120  0.1258 -0.0787
 8318TIP3    H146369   5.789   0.523  16.382 -2.0614 -2.4039  0.0995
 8318TIP3    H246370   5.703   0.598  16.481 -1.1950 -0.5659 -0.4925
 8319TIP3   OH246371   6.219   2.731  12.415  0.6048 -0.2723 -0.4100
 8319TIP3    H146372   6.261   2.774  12.341 -2.1962  0.4930 -1.6862
 8319TIP3    H246373   6.164   2.663  12.375 -0.5963 -0.1724  0.9753
 8320TIP3   OH246374   1.872   1.883   0.193 -0.0152 -0.6510  0.1234
 8320TIP3    H146375   1.916   1.948   0.247 -2.0815 -0.3759  1.6078
 8320TIP3    H246376   1.795   1.928   0.158 -1.1365 -2.0463  0.6507
 8321TIP3   OH246377   2.569   4.400   0.397 -0.7134 -0.3250  0.3367
 8321TIP3    H146378   2.565   4.451   0.316  2.2139  0.5641  0.6592
 8321TIP3    H246379   2.531   4.316   0.374 -2.4597  0.7889 -1.1721
 8322TIP3   OH246380   2.434   1.480  11.507  0.0847  1.0496 -0.7641
 8322TIP3    H146381   2.374   1.462  11.580 -1.2436 -1.1208 -2.2794
 8322TIP3    H246382   2.382   1.531  11.445  0.6263  1.3210 -1.0056
 8323TIP3   OH246383   2.229   6.258  14.914 -0.2347 -0.3150 -0.6733
 8323TIP3    H146384   2.321   6.251  14.891 -0.1130  0.3185 -0.4125
 8323TIP3    H246385   2.228   6.274  15.008 -0.5011  1.4082 -0.9281
 8324TIP3   OH246386   5.877   3.778  10.940 -0.0144  0.7690  0.5282
 8324TIP3    H146387   5.809   3.830  10.983 -0.0891  0.8274  0.3387
 8324TIP3    H246388   5.943   3.764  11.008 -0.1654  0.8030  0.6821
 8325TIP3   OH246389   0.333   5.270   2.600 -0.1566 -0.1018  0.1662
 8325TIP3    H146390   0.420   5.298   2.572  0.2672  0.9266  2.2977
 8325TIP3    H246391   0.348   5.228   2.685 -1.9560  2.2050  1.7280
 8326TIP3   OH246392   1.892   1.689   5.557 -0.5007  0.2007  0.0661
 8326TIP3    H146393   1.921   1.769   5.513  1.7247 -0.8376 -0.4992
 8326TIP3    H246394   1.895   1.709   5.650 -0.4975  0.9265 -0.0877
 8327TIP3   OH246395   4.459   0.695   4.615 -0.3972 -0.8192  0.2131
 8327TIP3    H146396   4.499   0.731   4.694  2.4956 -3.0623 -0.0532
 8327TIP3    H246397   4.409   0.619   4.645  0.8402 -1.7743 -0.0304
 8328TIP3   OH246398   3.161   3.893  10.382  0.0999  0.4365  0.0653
 8328TIP3    H146399   3.130   3.926  10.298 -0.6838 -0.2969  0.0527
 8328TIP3    H246400   3.159   3.969  10.440 -0.4836  0.6892 -0.2758
 8329TIP3   OH246401   5.419   2.935  12.719 -0.3962 -0.2687  0.2834
 8329TIP3    H146402   5.495   2.883  12.743 -1.2245 -1.1811  0.9788
 8329TIP3    H246403   5.449   3.026  12.724  0.0385 -0.4828  2.8823
 8330TIP3   OH246404   4.275   1.072  14.918  0.6780  0.0688 -0.7723
 8330TIP3    H146405   4.247   1.098  14.830 -0.6593  1.7968  0.0882
 8330TIP3    H246406   4.200   1.093  14.973  1.0143 -2.1449  0.6340
 8331TIP3   OH246407   0.712   3.042   6.248  0.5235 -0.6340  0.4388
 8331TIP3    H146408   0.625   3.005   6.238  0.3780 -0.0863 -0.5012
 8331TIP3    H246409   0.761   2.977   6.298 -0.0171 -1.6145 -0.2710
 8332TIP3   OH246410   4.129   2.075  12.690  0.4632  0.1381  0.3239
 8332TIP3    H146411   4.079   2.139  12.638  0.7836 -0.7418 -1.1338
 8332TIP3    H246412   4.063   2.023  12.735  0.0547 -0.4704 -0.9242
 8333TIP3   OH246413   0.180   5.913   0.825 -0.0814 -0.8276  0.3635
 8333TIP3    H146414   0.126   5.903   0.903  1.2849 -0.6483  1.3627
 8333TIP3    H246415   0.178   6.007   0.807 -0.8666 -0.9399 -0.1798
 8334TIP3   OH246416   4.046   5.049   2.233  0.3686  0.1157  0.2229
 8334TIP3    H146417   4.003   4.970   2.266 -0.8106  0.5066 -0.3183
 8334TIP3    H246418   4.041   5.042   2.138  1.4360  0.2263  0.1453
 8335TIP3   OH246419   2.966   6.041   4.917  0.1852 -0.4023 -0.1883
 8335TIP3    H146420   2.948   6.108   4.851 -2.0607  0.8419  1.5488
 8335TIP3    H246421   2.916   5.965   4.888 -2.1145  0.6511  0.7786
 8336TIP3   OH246422   4.131   2.523   1.799  0.1514 -0.5923 -0.3160
 8336TIP3    H146423   4.143   2.431   1.773 -0.3608 -1.6687  2.8232
 8336TIP3    H246424   4.158   2.526   1.890 -2.4629  1.7699  0.5240
 8337TIP3   OH246425   5.560   4.112   3.669  0.6772  0.6850  0.1626
 8337TIP3    H146426   5.497   4.043   3.690  0.5979  0.8014  0.3016
 8337TIP3    H246427   5.571   4.106   3.574  0.0065  1.0578  0.0586
 8338TIP3   OH246428   1.052   0.297   1.214  0.0119 -0.5960  0.1650
 8338TIP3    H146429   0.965   0.304   1.174  0.5925 -0.6364 -1.1663
 8338TIP3    H246430   1.088   0.217   1.177  0.7979 -0.3277  0.3420
 8339TIP3   OH246431   1.873   0.724  12.035 -0.3223  0.1815  0.1821
 8339TIP3    H146432   1.967   0.705  12.031 -0.2851 -0.0567  1.6721
 8339TIP3    H246433   1.868   0.818  12.052 -0.2935 -0.0277  1.4736
 8340TIP3   OH246434   2.162   5.640  10.747 -0.2758  0.5464 -0.1673
 8340TIP3    H146435   2.253   5.646  10.716 -0.0970 -0.1799  0.1815
 8340TIP3    H246436   2.110   5.673  10.674  0.1982 -0.3012 -0.9150
 8341TIP3   OH246437   1.130   5.789   0.579  0.8678 -0.2022  0.3228
 8341TIP3    H146438   1.179   5.865   0.609  1.3810  0.0713 -1.1340
 8341TIP3    H246439   1.188   5.745   0.518  0.3285 -1.4227  0.6387
 8342TIP3   OH246440   3.493   3.045  12.699 -0.1192 -0.3359  0.4088
 8342TIP3    H146441   3.459   3.022  12.785 -4.4217 -1.3610 -1.3219
 8342TIP3    H246442   3.534   2.965  12.667  0.5896 -0.2469  1.0688
 8343TIP3   OH246443   1.519   5.956  16.297 -0.3731  0.7223  0.7235
 8343TIP3    H146444   1.577   6.026  16.264 -1.9625  2.7200  1.9131
 8343TIP3    H246445   1.457   5.941  16.225 -0.3747  0.9598  0.6734
 8344TIP3   OH246446   2.424   4.368  12.114 -0.3221 -0.1175 -0.1396
 8344TIP3    H146447   2.432   4.382  12.020  0.5496 -0.9523 -0.2032
 8344TIP3    H246448   2.342   4.320  12.124  0.3787 -1.4744 -0.6545
 8345TIP3   OH246449   0.716   4.168  17.235  0.1659  0.3727 -0.4088
 8345TIP3    H146450   0.648   4.109  17.267 -0.2989  1.3786  0.5420
 8345TIP3    H246451   0.702   4.250  17.284  0.6184  1.3674 -1.8589
 8346TIP3   OH246452   6.685   4.567   3.011  0.1138 -0.5918 -0.2674
 8346TIP3    H146453   6.726   4.513   3.078  1.0977 -1.8289 -1.7918
 8346TIP3    H246454   6.599   4.526   2.997 -0.6674  0.4705  1.1149
 8347TIP3   OH246455   3.234   6.118  12.773  0.3173  0.0958  0.5004
 8347TIP3    H146456   3.173   6.103  12.845  0.5469 -2.7312  0.2125
 8347TIP3    H246457   3.190   6.082  12.696  1.8818 -1.1381  0.1188
 8348TIP3   OH246458   0.506   4.534   4.601  0.7288 -0.1619 -0.1528
 8348TIP3    H146459   0.535   4.606   4.656  2.6523 -0.6489 -0.4513
 8348TIP3    H246460   0.503   4.570   4.512 -0.4672  0.1036 -0.0228
 8349TIP3   OH246461   5.422   2.843   2.914 -0.0716 -0.5352 -0.0199
 8349TIP3    H146462   5.498   2.830   2.971  0.2768 -1.8027 -0.7363
 8349TIP3    H246463   5.349   2.856   2.974  0.5386 -0.2831  0.6869
 8350TIP3   OH246464   0.055   3.674  13.430 -0.4690 -0.2959  0.1959
 8350TIP3    H146465   0.080   3.767  13.437 -0.2316 -0.3901  0.6555
 8350TIP3    H246466   0.106   3.641  13.356 -0.3249 -0.1326  0.2206
 8351TIP3   OH246467   2.035   1.812   1.027 -0.2476  0.3094  0.4130
 8351TIP3    H146468   2.091   1.777   1.096  0.2479  0.2845  0.0029
 8351TIP3    H246469   1.948   1.778   1.046  0.2015 -1.0989  0.0611
 8352TIP3   OH246470   3.680   1.474  12.586 -0.0740 -0.5446 -0.0449
 8352TIP3    H146471   3.760   1.491  12.536  0.8070  0.4860  1.6228
 8352TIP3    H246472   3.640   1.560  12.598 -0.8826 -0.9241  0.0222
 8353TIP3   OH246473   3.736   2.237   4.010  0.7162 -0.0547 -0.0074
 8353TIP3    H146474   3.731   2.293   4.088  0.9128 -1.1306  0.8092
 8353TIP3    H246475   3.675   2.166   4.029  2.0430 -1.2385 -0.0657
 8354TIP3   OH246476   5.342   3.800  12.593  0.4564 -0.2215 -0.2032
 8354TIP3    H146477   5.411   3.775  12.532  0.1250  0.4275 -0.8643
 8354TIP3    H246478   5.377   3.876  12.640 -0.4531  1.3357 -1.8673
 8355TIP3   OH246479   2.244   3.064  15.581 -0.0118 -0.7554 -0.1290
 8355TIP3    H146480   2.217   3.084  15.671 -2.6653  0.9632 -1.1993
 8355TIP3    H246481   2.261   3.149  15.541 -0.7712 -1.3486 -1.7840
 8356TIP3   OH246482   0.682   1.059  12.241 -0.2139 -0.2853 -0.0834
 8356TIP3    H146483   0.747   1.128  12.255 -0.0190 -0.3601 -0.5836
 8356TIP3    H246484   0.632   1.088  12.165 -1.3046  0.1596  0.7714
 8357TIP3   OH246485   6.499   2.798   3.120 -0.7145 -0.2630 -0.2178
 8357TIP3    H146486   6.497   2.837   3.032 -0.7886  0.0761 -0.0656
 8357TIP3    H246487   6.526   2.707   3.105 -0.3177 -0.0945 -0.5528
 8358TIP3   OH246488   6.713   5.157  12.862  0.2773 -0.0389 -0.5965
 8358TIP3    H146489   6.634   5.194  12.901  1.2431  0.3217  1.1352
 8358TIP3    H246490   6.778   5.227  12.868  1.0908 -0.7523 -0.7649
 8359TIP3   OH246491   5.060   0.275  12.781  0.3809  0.0419 -0.2390
 8359TIP3    H146492   5.024   0.302  12.697 -0.1770  1.4919  0.4216
 8359TIP3    H246493   4.985   0.242  12.830  0.4349  0.5434  0.1882
 8360TIP3   OH246494   6.297   1.693  15.705 -0.0944  0.1150 -0.4094
 8360TIP3    H146495   6.350   1.614  15.715  0.1335  0.2115 -0.8411
 8360TIP3    H246496   6.294   1.731  15.793  0.9899  0.3834 -0.4686
 8361TIP3   OH246497   2.881   6.598   4.528 -0.2359 -0.4247  0.5834
 8361TIP3    H146498   2.924   6.583   4.612  1.0779 -1.8503 -0.2791
 8361TIP3    H246499   2.953   6.603   4.465 -1.2426 -2.4513 -0.8606
 8362TIP3   OH246500   1.660   2.238   0.890  0.3070  0.1961 -0.4424
 8362TIP3    H146501   1.667   2.143   0.879 -0.2494 -0.0362  0.9451
 8362TIP3    H246502   1.574   2.260   0.854  1.3791  0.5912 -2.9706
 8363TIP3   OH246503   2.479   6.071  15.379  0.2554 -1.0431  0.2809
 8363TIP3    H146504   2.396   6.116  15.392 -0.3713 -2.4871  1.6218
 8363TIP3    H246505   2.487   6.060  15.284 -0.9422 -0.6558  0.1257
 8364TIP3   OH246506   5.344   6.547   4.604 -0.1520  0.3816  0.3114
 8364TIP3    H146507   5.321   6.489   4.677  1.2935  0.3178  0.7568
 8364TIP3    H246508   5.260   6.568   4.562 -0.7896 -1.3613  0.6306
 8365TIP3   OH246509   5.658   0.030   1.653  0.5866 -0.2015 -0.2005
 8365TIP3    H146510   5.566   0.016   1.674  0.6584  2.4074  2.3469
 8365TIP3    H246511   5.706  -0.021   1.718  0.8734  1.1480  0.6806
 8366TIP3   OH246512   3.016   1.295   4.068 -0.4402 -0.0386  0.1152
 8366TIP3    H146513   3.101   1.337   4.056  0.3552 -1.5406  0.2656
 8366TIP3    H246514   3.006   1.287   4.163  0.0957 -1.4384  0.0832
 8367TIP3   OH246515   6.360   0.075   0.758 -0.0117 -0.4630  0.3490
 8367TIP3    H146516   6.270   0.097   0.780 -0.3889  0.2960 -1.7130
 8367TIP3    H246517   6.373  -0.014   0.791 -1.0704 -0.1005  1.8120
 8368TIP3   OH246518   0.405   1.757  11.293  0.3844 -0.2818  0.0476
 8368TIP3    H146519   0.334   1.693  11.290  0.6042 -0.5432  0.3990
 8368TIP3    H246520   0.432   1.768  11.201  0.9816 -1.4019  0.0716
 8369TIP3   OH246521   1.315   6.761  14.206 -0.6898  0.4506 -0.0018
 8369TIP3    H146522   1.319   6.672  14.170  0.6862  0.2075  0.6984
 8369TIP3    H246523   1.225   6.789  14.189 -0.5763 -0.2807 -2.0814
 8370TIP3   OH246524   0.755   4.558  13.733  0.1699  0.3862 -0.1142
 8370TIP3    H146525   0.839   4.586  13.695 -0.2237  0.2390 -1.1255
 8370TIP3    H246526   0.751   4.603  13.817  0.7049  1.3661 -0.5888
 8371TIP3   OH246527   0.923   0.024   3.181  0.1232  0.4944  0.0687
 8371TIP3    H146528   0.933   0.098   3.240  0.5808 -0.5729  1.3890
 8371TIP3    H246529   0.901   0.063   3.096  0.4395  2.1228  0.7015
 8372TIP3   OH246530   1.409   1.855  11.658 -0.5749 -0.3900  0.2149
 8372TIP3    H146531   1.398   1.947  11.634 -0.5817 -0.3440  0.3942
 8372TIP3    H246532   1.503   1.846  11.677 -0.6506 -0.3208  0.6159
 8373TIP3   OH246533   2.555   4.593  15.179  0.3543 -0.2623  0.0438
 8373TIP3    H146534   2.475   4.637  15.208  0.1409  0.6207 -1.7433
 8373TIP3    H246535   2.564   4.518  15.238 -2.1752 -0.7852 -0.1271
 8374TIP3   OH246536   3.330   0.305   5.461  0.3265 -0.5056 -0.1942
 8374TIP3    H146537   3.248   0.290   5.413  0.0138 -1.8761  0.6846
 8374TIP3    H246538   3.393   0.244   5.421  0.4654 -0.5948  0.1523
 8375TIP3   OH246539   4.124   1.513   0.145 -0.0172 -0.4867  0.0921
 8375TIP3    H146540   4.062   1.580   0.119 -0.1368 -0.3811  0.6323
 8375TIP3    H246541   4.209   1.557   0.145 -0.1199 -0.2790  0.6242
 8376TIP3   OH246542   2.677   6.422  13.322 -0.1916  0.3874 -0.5051
 8376TIP3    H146543   2.698   6.483  13.393  1.2052 -1.5045  0.8196
 8376TIP3    H246544   2.596   6.379  13.350  0.9489 -1.1611  0.5884
 8377TIP3   OH246545   0.901   5.001  12.753  0.3452  0.5373  0.3153
 8377TIP3    H146546   0.870   4.919  12.717  1.6398 -0.3971  1.2330
 8377TIP3    H246547   0.978   5.023  12.700  1.2559  0.0303  1.3945
 8378TIP3   OH246548   6.019   3.976   0.199  0.0269 -0.4010  0.7404
 8378TIP3    H146549   5.924   3.976   0.211  0.1012 -0.3238  1.3506
 8378TIP3    H246550   6.043   4.068   0.197  0.2599 -0.4186  2.0373
 8379TIP3   OH246551   1.494   4.398  15.778  0.2447  0.3914 -0.2527
 8379TIP3    H146552   1.531   4.363  15.697 -0.4354  1.0600 -0.8700
 8379TIP3    H246553   1.403   4.369  15.777  0.1484  0.6769  0.1088
 8380TIP3   OH246554   3.731   0.414  12.101 -0.2173  0.4680  0.2067
 8380TIP3    H146555   3.756   0.487  12.157  0.4514  0.2869  0.1481
 8380TIP3    H246556   3.749   0.444  12.012 -0.6432  0.5048  0.1295
 8381TIP3   OH246557   0.709   1.478   1.796  0.0081  0.4933  0.5141
 8381TIP3    H146558   0.753   1.466   1.713 -1.7317  0.2468 -0.4173
 8381TIP3    H246559   0.622   1.441   1.783  0.4722 -1.9690  3.2463
 8382TIP3   OH246560   1.465   4.715  14.396  0.8399 -0.0107  0.0538
 8382TIP3    H146561   1.506   4.750  14.316  0.4696  1.5436  0.5327
 8382TIP3    H246562   1.469   4.786  14.459  0.4312 -0.9725  1.2010
 8383TIP3   OH246563   0.366   0.968   0.107  1.1016 -0.5435  0.0499
 8383TIP3    H146564   0.310   0.926   0.173  1.3981 -1.2118 -0.1110
 8383TIP3    H246565   0.341   1.060   0.110  0.4442 -0.7224  0.4309
 8384TIP3   OH246566   1.759   2.867  11.064 -0.6215  0.3259 -0.0337
 8384TIP3    H146567   1.827   2.799  11.070 -0.2069  0.8482  1.5278
 8384TIP3    H246568   1.752   2.884  10.970  1.5970  0.4070 -0.2516
 8385TIP3   OH246569   3.234   3.647  12.436 -0.3356  0.4127 -0.3628
 8385TIP3    H146570   3.243   3.572  12.378  1.5153 -0.2492  0.6859
 8385TIP3    H246571   3.162   3.625  12.495  0.8339 -1.0349  0.5851
 8386TIP3   OH246572   2.014   6.187   1.547  0.2908 -0.3786  0.2017
 8386TIP3    H146573   2.068   6.131   1.603  1.9328 -0.1963 -1.1262
 8386TIP3    H246574   2.077   6.238   1.496 -1.1614  0.6853 -0.5960
 8387TIP3   OH246575   2.697   3.344  16.298 -0.2266  0.1088 -0.4862
 8387TIP3    H146576   2.715   3.406  16.368  0.3834 -0.1087 -0.4410
 8387TIP3    H246577   2.649   3.395  16.232 -0.3613  0.4384 -0.1362
 8388TIP3   OH246578   5.502   3.971  16.231  0.1664  0.0199  0.4854
 8388TIP3    H146579   5.414   3.937  16.218  0.2904 -0.1517  0.0757
 8388TIP3    H246580   5.493   4.034  16.303 -0.0154 -1.0751  1.4585
 8389TIP3   OH246581   5.601   2.074   5.216 -0.1518  0.0185 -0.2106
 8389TIP3    H146582   5.594   2.050   5.123  1.6178  0.3533 -0.4641
 8389TIP3    H246583   5.572   1.996   5.263 -0.5169 -0.3567 -1.0332
 8390TIP3   OH246584   0.360   6.409   4.483  0.9944 -0.1934 -0.6369
 8390TIP3    H146585   0.396   6.346   4.545 -0.3698 -0.2161  0.1819
 8390TIP3    H246586   0.331   6.356   4.409 -0.2258 -0.5854  0.0844
 8391TIP3   OH246587   0.830   0.050  14.974  0.0898 -0.9301  0.5236
 8391TIP3    H146588   0.855   0.141  14.993  2.1030 -0.8598 -1.9624
 8391TIP3    H246589   0.745   0.058  14.931  0.0771 -0.2762  0.6470
 8392TIP3   OH246590   2.772   4.457   0.716 -0.4883  0.3650 -0.3777
 8392TIP3    H146591   2.866   4.474   0.718 -0.4385  0.0222  0.9921
 8392TIP3    H246592   2.763   4.381   0.658  0.2390 -0.3763  0.4451
 8393TIP3   OH246593   2.962   5.784  14.455 -0.1264  0.4952  0.1465
 8393TIP3    H146594   2.949   5.764  14.363 -0.7310 -1.0055  0.5222
 8393TIP3    H246595   3.052   5.755  14.474 -0.2525  0.1246  0.1870
 8394TIP3   OH246596   0.773   5.757   2.773 -0.3013 -0.0480  0.3517
 8394TIP3    H146597   0.836   5.693   2.738  0.7200  0.3633  1.3837
 8394TIP3    H246598   0.719   5.781   2.698  1.0342 -0.1141 -0.6527
 8395TIP3   OH246599   4.913   1.581  14.062  0.2309  0.8182 -0.8899
 8395TIP3    H146600   4.952   1.547  13.982 -1.3843 -0.8369 -1.0526
 8395TIP3    H246601   4.824   1.546  14.062  0.5192 -0.2988  2.1855
 8396TIP3   OH246602   5.587   2.549   4.827  0.0794 -0.2844  0.3186
 8396TIP3    H146603   5.653   2.503   4.775  1.7224  0.4636  1.6630
 8396TIP3    H246604   5.594   2.640   4.798  0.7949  0.0833  1.5971
 8397TIP3   OH246605   5.121   1.540  12.664 -0.6544  0.1502  0.4791
 8397TIP3    H146606   5.128   1.508  12.574 -1.6588 -0.7624  0.7165
 8397TIP3    H246607   5.152   1.468  12.718 -1.1990  0.2471  0.9267
 8398TIP3   OH246608   2.560   1.553   4.244  0.5497 -0.2929  0.8268
 8398TIP3    H146609   2.618   1.477   4.246  1.5835  0.4985  1.5095
 8398TIP3    H246610   2.599   1.615   4.305  1.3778  1.9872 -1.8382
 8399TIP3   OH246611   4.849   0.827  15.932 -0.3005 -0.2277  0.0264
 8399TIP3    H146612   4.794   0.904  15.917  0.3525  0.6799  1.9768
 8399TIP3    H246613   4.907   0.824  15.856 -0.2856  1.2729 -0.0531
 8400TIP3   OH246614   2.027   4.186  15.205 -0.3657  0.2605  0.1764
 8400TIP3    H146615   2.095   4.120  15.214 -0.6025  0.1927  1.9806
 8400TIP3    H246616   2.053   4.238  15.130 -0.1609 -1.8549 -1.2940
 8401TIP3   OH246617   5.321   5.508   3.759 -0.2896 -0.1639  0.2421
 8401TIP3    H146618   5.393   5.568   3.743 -2.0557  2.1195  0.3021
 8401TIP3    H246619   5.329   5.441   3.691  2.2467 -0.4127  0.7106
 8402TIP3   OH246620   0.169   6.686  16.693  0.2755 -0.0577 -0.1219
 8402TIP3    H146621   0.152   6.689  16.598 -1.9543  0.5358  0.2384
 8402TIP3    H246622   0.143   6.597  16.719  0.2281  0.0022  0.0370
 8403TIP3   OH246623   5.982   0.032   5.497  0.1694  0.2071 -0.0462
 8403TIP3    H146624   5.921  -0.004   5.432 -0.8961 -2.2998  2.1912
 8403TIP3    H246625   5.931   0.098   5.544 -0.8152 -1.5998  1.5503
 8404TIP3   OH246626   0.200   0.883   4.481 -0.5663  0.3087  0.5284
 8404TIP3    H146627   0.180   0.812   4.542  1.7795 -1.6598 -0.8289
 8404TIP3    H246628   0.116   0.902   4.439 -1.4500 -0.9817  1.6156
 8405TIP3   OH246629   4.571   4.268  13.861 -0.5666 -0.3245  0.1473
 8405TIP3    H146630   4.496   4.308  13.907 -1.1874 -0.4548 -0.7278
 8405TIP3    H246631   4.601   4.199  13.921 -1.9061 -1.0668  0.0223
 8406TIP3   OH246632   6.158   4.710  12.701  0.1066 -0.6954  1.1471
 8406TIP3    H146633   6.196   4.765  12.633 -0.1827  0.4183  1.8463
 8406TIP3    H246634   6.176   4.620  12.674 -0.2758 -0.2922 -0.5375
 8407TIP3   OH246635   1.345   4.356  12.942 -0.2659 -0.0635 -0.0063
 8407TIP3    H146636   1.282   4.388  13.007 -1.0189  0.4284 -0.9527
 8407TIP3    H246637   1.333   4.414  12.867  1.1089 -0.1650 -0.3231
 8408TIP3   OH246638   4.672   5.247  11.368  0.3190 -0.5394 -0.2185
 8408TIP3    H146639   4.746   5.293  11.409  1.0455 -1.3504 -0.5869
 8408TIP3    H246640   4.670   5.281  11.279  0.2733 -0.5413 -0.2176
 8409TIP3   OH246641   2.770   6.110  10.727  0.0153 -0.4814  0.2502
 8409TIP3    H146642   2.709   6.042  10.756  1.1930 -1.9674 -0.6243
 8409TIP3    H246643   2.726   6.151  10.652 -0.2587 -0.9678  0.1435
 8410TIP3   OH246644   4.168   1.123  10.757  0.1851  0.4023  0.3390
 8410TIP3    H146645   4.260   1.147  10.747  0.4225  0.9349  3.0787
 8410TIP3    H246646   4.130   1.196  10.807 -1.0664 -1.0483  1.5943
 8411TIP3   OH246647   6.412   3.182   1.498  0.0674  0.0369 -0.0458
 8411TIP3    H146648   6.391   3.101   1.451 -0.3349  0.1687 -0.1028
 8411TIP3    H246649   6.472   3.155   1.567  0.1146 -0.2738 -0.2078
 8412TIP3   OH246650   5.135   0.930  13.179 -0.0156  0.0937  0.6282
 8412TIP3    H146651   5.047   0.917  13.215  0.0985  1.2030  1.3796
 8412TIP3    H246652   5.137   0.876  13.100 -1.5230  0.3708  0.3564
 8413TIP3   OH246653   3.463   2.159  15.626 -0.0506 -0.3008 -0.5371
 8413TIP3    H146654   3.508   2.085  15.666  1.1598  0.7346  0.0875
 8413TIP3    H246655   3.375   2.156  15.663  0.5796 -0.3026  1.0425
 8414TIP3   OH246656   4.575   3.766  15.534 -0.4158  0.1553  0.2185
 8414TIP3    H146657   4.557   3.687  15.483 -1.1470  0.2765  0.2835
 8414TIP3    H246658   4.520   3.757  15.612  0.4019  0.1527  0.8154
 8415TIP3   OH246659   4.930   6.503   2.462  0.2332  0.3653 -0.0001
 8415TIP3    H146660   5.008   6.455   2.489  0.1914  0.5425  0.4364
 8415TIP3    H246661   4.866   6.485   2.531 -0.8076 -1.4518 -1.3443
 8416TIP3   OH246662   0.167   1.074   4.703 -0.0617 -0.2350 -0.4976
 8416TIP3    H146663   0.208   0.999   4.659  0.0453 -0.9043  0.6948
 8416TIP3    H246664   0.103   1.106   4.640 -0.6805 -1.8423 -0.7463
 8417TIP3   OH246665   3.747   6.647   2.184  0.4329  0.3373 -0.0962
 8417TIP3    H146666   3.714   6.661   2.273  1.4253  0.0923  0.3348
 8417TIP3    H246667   3.712   6.562   2.159 -0.4585  0.7411 -0.2378
 8418TIP3   OH246668   1.406   4.526  17.022  0.0026  0.0445 -0.5890
 8418TIP3    H146669   1.499   4.540  17.038 -0.3197  0.4792  1.0530
 8418TIP3    H246670   1.393   4.556  16.932  1.1809  1.3945 -0.3509
 8419TIP3   OH246671   6.132   1.228   5.482 -0.0826 -0.0950  0.2828
 8419TIP3    H146672   6.157   1.262   5.568 -2.7336  4.7993 -0.5598
 8419TIP3    H246673   6.040   1.204   5.491  0.0579 -1.1488 -0.8225
 8420TIP3   OH246674   0.063   1.427  12.220  0.0387  0.4236 -0.5387
 8420TIP3    H146675   0.099   1.364  12.282  1.5307  0.5288 -1.2366
 8420TIP3    H246676   0.049   1.506  12.272 -0.2368  0.0252 -0.0083
 8421TIP3   OH246677   4.078   3.860  12.962 -0.8208 -0.0977 -0.5942
 8421TIP3    H146678   3.995   3.870  12.914 -1.1835 -0.4800 -0.0626
 8421TIP3    H246679   4.127   3.795  12.912 -0.2925  1.0628 -1.6243
 8422TIP3   OH246680   3.259   2.606   1.275 -0.0171  0.3182  0.2843
 8422TIP3    H146681   3.275   2.607   1.369 -1.1905 -2.0729  0.5970
 8422TIP3    H246682   3.319   2.539   1.241 -0.4446  0.2945 -0.4526
 8423TIP3   OH246683   4.528   6.738   4.096 -0.0248 -0.1494  0.1091
 8423TIP3    H146684   4.451   6.790   4.116  1.5725  2.8939 -1.0466
 8423TIP3    H246685   4.497   6.668   4.039 -2.0389  0.3725  0.5152
 8424TIP3   OH246686   2.208   0.951   2.502  0.2514 -0.8934 -0.2251
 8424TIP3    H146687   2.246   0.940   2.415 -1.4687 -0.6984 -1.0526
 8424TIP3    H246688   2.165   0.867   2.520 -0.9482 -0.3329 -0.3875
 8425TIP3   OH246689   6.152   2.703   2.073  0.3191  0.0348 -0.0578
 8425TIP3    H146690   6.112   2.690   1.987  3.2963  1.0626 -1.7450
 8425TIP3    H246691   6.153   2.798   2.084  1.2355 -0.0166  0.4005
 8426TIP3   OH246692   0.289   3.861  14.026 -0.2666  0.7471  0.3880
 8426TIP3    H146693   0.358   3.807  13.987 -1.4646 -1.0254  0.6117
 8426TIP3    H246694   0.317   3.873  14.117 -1.1502 -1.6883  1.0522
 8427TIP3   OH246695   1.132   2.030  12.807 -0.0624 -0.4724  0.6041
 8427TIP3    H146696   1.219   1.993  12.795 -0.3050 -0.9148  0.1805
 8427TIP3    H246697   1.142   2.094  12.877  0.7924  0.1260 -0.0512
 8428TIP3   OH246698   4.648   4.323  16.294 -0.5219  0.2627  0.4902
 8428TIP3    H146699   4.667   4.241  16.338  1.1346 -0.2905 -1.1236
 8428TIP3    H246700   4.626   4.297  16.204  0.0352  1.5648 -0.0458
 8429TIP3   OH246701   4.299   5.426   1.548 -0.3237 -0.7949 -0.1491
 8429TIP3    H146702   4.296   5.342   1.501  3.5111 -0.2927 -1.5755
 8429TIP3    H246703   4.346   5.485   1.490 -0.2906  1.5134  2.0611
 8430TIP3   OH246704   5.250   1.930  16.958 -0.0454  0.0828 -0.1763
 8430TIP3    H146705   5.168   1.893  16.924  0.4100  0.7383 -2.1078
 8430TIP3    H246706   5.314   1.859  16.948 -0.1602 -0.1187  0.4665
 8431TIP3   OH246707   2.381   5.292   5.654 -0.2972  0.1227  0.7625
 8431TIP3    H146708   2.408   5.305   5.745  1.4219 -1.7730  0.6107
 8431TIP3    H246709   2.447   5.231   5.619 -1.0783  0.5833 -1.6675
 8432TIP3   OH246710   0.940   1.026   2.218  0.2038  0.1850 -0.0893
 8432TIP3    H146711   0.927   0.982   2.134  1.1614 -0.9813  0.3306
 8432TIP3    H246712   0.874   0.987   2.276  1.0530 -0.7537  0.2831
 8433TIP3   OH246713   0.046   0.249   6.343  0.5178  0.5177  0.3284
 8433TIP3    H146714   0.036   0.159   6.313  0.3433 -0.4686  3.0812
 8433TIP3    H246715   0.139   0.267   6.333  0.5615  0.0380 -0.2160
 8434TIP3   OH246716   1.255   0.183  11.873  0.0552  0.2379 -0.1524
 8434TIP3    H146717   1.220   0.243  11.939  1.3886 -0.6134  1.3878
 8434TIP3    H246718   1.188   0.115  11.865  0.2387 -0.0950  0.9780
 8435TIP3   OH246719   0.274   5.018  15.152  0.0002 -0.1111  0.0025
 8435TIP3    H146720   0.260   4.963  15.075  0.5749  0.1117 -0.2649
 8435TIP3    H246721   0.339   4.972  15.204 -1.1873 -0.8178  0.9283
 8436TIP3   OH246722   4.870   2.056   2.887 -0.3155  0.2662  0.1296
 8436TIP3    H146723   4.913   2.103   2.958 -1.0107  1.8759 -0.4523
 8436TIP3    H246724   4.926   1.980   2.870  0.0758  0.0822  2.0889
 8437TIP3   OH246725   2.763   0.380   1.583 -0.3765  0.3284  0.2053
 8437TIP3    H146726   2.857   0.378   1.565 -0.5842  1.1914 -1.0928
 8437TIP3    H246727   2.728   0.305   1.535 -0.3019 -0.3306  1.1470
 8438TIP3   OH246728   1.054   4.975  12.330  0.6841  0.1052 -0.0683
 8438TIP3    H146729   0.999   5.025  12.270  0.3659  1.2355  1.0964
 8438TIP3    H246730   1.064   4.890  12.289 -2.0757 -0.2139 -0.2729
 8439TIP3   OH246731   5.439   0.222  14.223 -0.2358  0.2396 -1.1137
 8439TIP3    H146732   5.496   0.255  14.153  0.6585 -1.4138 -1.2105
 8439TIP3    H246733   5.493   0.158  14.270 -1.1861  0.4987  0.4195
 8440TIP3   OH246734   1.507   2.661  14.922 -0.2125  0.2037  0.7383
 8440TIP3    H146735   1.545   2.576  14.901  0.0781  0.2901  0.9045
 8440TIP3    H246736   1.544   2.721  14.857 -3.1419 -0.4008 -1.6961
 8441TIP3   OH246737   5.490   4.787  15.978 -0.0940  0.5476  0.5000
 8441TIP3    H146738   5.478   4.729  15.903  2.3116  1.1977 -0.4794
 8441TIP3    H246739   5.515   4.729  16.050 -0.4968  0.1117  0.2957
 8442TIP3   OH246740   2.353   1.924  15.328 -0.1032 -0.0489 -0.2263
 8442TIP3    H146741   2.327   1.858  15.264 -3.4286  1.6964 -0.8768
 8442TIP3    H246742   2.421   1.975  15.284 -1.4819  0.3817 -1.9480
 8443TIP3   OH246743   5.597   6.505   4.944 -0.4967  0.1581  0.3618
 8443TIP3    H146744   5.574   6.573   4.881 -0.0667 -0.4831 -0.5043
 8443TIP3    H246745   5.603   6.425   4.892 -2.0620 -0.7677  1.5176
 8444TIP3   OH246746   0.117   1.280   3.090  0.3260 -0.0478 -0.1353
 8444TIP3    H146747   0.032   1.292   3.047 -0.2996 -0.3106  0.9690
 8444TIP3    H246748   0.167   1.358   3.066 -0.2617  0.1609 -0.7292
 8445TIP3   OH246749   3.876   5.186   6.263  0.3886 -0.8165  0.4693
 8445TIP3    H146750   3.786   5.210   6.283  0.3460 -0.2780 -0.3080
 8445TIP3    H246751   3.925   5.209   6.342 -0.3450 -2.3801  1.4088
 8446TIP3   OH246752   3.670   0.836  13.726 -0.2149 -0.2807  0.4309
 8446TIP3    H146753   3.660   0.882  13.809  0.4512  2.4969 -0.9124
 8446TIP3    H246754   3.581   0.829  13.691 -0.1411  2.8948 -0.7035
 8447TIP3   OH246755   1.620   2.427  15.696 -0.0223 -0.3104  0.4152
 8447TIP3    H146756   1.637   2.509  15.649 -1.0770 -1.1629 -1.5750
 8447TIP3    H246757   1.538   2.444  15.743  0.2349  0.0681  0.7297
 8448TIP3   OH246758   1.932   2.060  11.274 -0.1351 -0.3069 -0.1926
 8448TIP3    H146759   2.010   2.060  11.329 -0.7898  0.9848  0.7885
 8448TIP3    H246760   1.904   1.968  11.272  0.9474 -0.6512  0.1115
 8449TIP3   OH246761   1.659   2.684   3.613  0.0140 -0.0160  0.1948
 8449TIP3    H146762   1.576   2.651   3.579  0.2994  0.0210 -0.5654
 8449TIP3    H246763   1.638   2.768   3.652 -0.4949 -0.5018  0.9803
 8450TIP3   OH246764   4.709   0.207  13.527 -0.2182 -0.3636  0.1460
 8450TIP3    H146765   4.690   0.239  13.439  0.7243 -1.7576 -0.6096
 8450TIP3    H246766   4.624   0.180  13.562 -1.0849  2.9578  0.8995
 8451TIP3   OH246767   1.676   3.926   4.646  0.7397  0.0828 -0.2365
 8451TIP3    H146768   1.693   4.013   4.683 -0.3844 -0.6073  2.1490
 8451TIP3    H246769   1.594   3.937   4.598  0.5655  0.3430  0.1103
 8452TIP3   OH246770   5.095   4.070  14.035 -0.2062 -0.1089 -0.4351
 8452TIP3    H146771   5.061   4.021  14.110  1.5593  1.3094  1.3930
 8452TIP3    H246772   5.039   4.148  14.030 -0.6223 -0.4340 -0.9142
 8453TIP3   OH246773   6.272   4.941  13.296 -0.5205  0.0606  0.2237
 8453TIP3    H146774   6.239   4.979  13.215  0.1909  0.4649  0.1137
 8453TIP3    H246775   6.225   4.988  13.365  0.2976  1.1165  0.0847
 8454TIP3   OH246776   0.155   2.988   3.993  0.2024 -0.1873  0.1004
 8454TIP3    H146777   0.133   2.973   4.085 -1.4300 -2.6968 -0.6074
 8454TIP3    H246778   0.090   3.052   3.963  0.4304  0.2596  0.5326
 8455TIP3   OH246779   5.414   4.859  16.716  0.0269 -0.6091 -0.5181
 8455TIP3    H146780   5.371   4.891  16.637  1.3762  0.2090 -0.9524
 8455TIP3    H246781   5.387   4.920  16.784  0.5733 -0.0083 -0.8213
 8456TIP3   OH246782   2.723   0.425   2.514  0.2801 -0.2428  0.0731
 8456TIP3    H146783   2.763   0.427   2.601  1.2770 -0.8424 -0.3474
 8456TIP3    H246784   2.747   0.509   2.475 -2.3555  1.1945  1.2540
 8457TIP3   OH246785   1.247   5.840   5.315 -0.0194  0.3386  0.3429
 8457TIP3    H146786   1.302   5.824   5.392  1.1085  0.3698 -0.4422
 8457TIP3    H246787   1.198   5.758   5.303  0.3655  0.0654  0.6330
 8458TIP3   OH246788   1.449   3.969  16.971 -0.5405 -0.7265 -0.6420
 8458TIP3    H146789   1.529   3.952  17.021 -2.0365  0.4878  2.4204
 8458TIP3    H246790   1.408   3.883  16.961  1.4366 -1.5220 -3.0725
 8459TIP3   OH246791   1.549   3.764   2.659 -0.1082  0.2613 -0.2682
 8459TIP3    H146792   1.539   3.809   2.743  0.0131 -1.0163  0.4560
 8459TIP3    H246793   1.551   3.835   2.595 -3.0034  1.2115  0.4910
 8460TIP3   OH246794   1.834   4.923  11.156  0.0648  0.7678  0.2697
 8460TIP3    H146795   1.794   5.002  11.120 -0.3651  0.0694 -0.8271
 8460TIP3    H246796   1.813   4.854  11.093  1.8176  0.0921  0.3757
 8461TIP3   OH246797   1.834   4.960   0.422 -0.0351 -0.1975 -0.0789
 8461TIP3    H146798   1.815   4.966   0.328 -1.4521 -2.6556 -0.0216
 8461TIP3    H246799   1.850   4.868   0.438  0.0118  0.1380  2.1378
 8462TIP3   OH246800   3.268   3.316  10.914  0.1414  0.2666  0.0109
 8462TIP3    H146801   3.241   3.225  10.900  0.0383  0.0848  1.2789
 8462TIP3    H246802   3.216   3.366  10.850  1.1188 -0.6598 -1.5719
 8463TIP3   OH246803   3.022   0.795   4.120  0.1557 -0.0396  0.1727
 8463TIP3    H146804   3.043   0.714   4.072 -1.7592  0.1934 -1.1649
 8463TIP3    H246805   3.097   0.852   4.102  1.1133 -1.1828  0.3824
 8464TIP3   OH246806   3.262   2.317  12.979 -0.1863 -0.2469  0.0264
 8464TIP3    H146807   3.241   2.359  12.896  0.3605  2.0275  0.9585
 8464TIP3    H246808   3.352   2.343  12.997  0.1531 -1.7914  0.7323
 8465TIP3   OH246809   6.598   5.792   1.469  0.0996 -0.8055  0.4719
 8465TIP3    H146810   6.551   5.862   1.423  0.8662 -0.7989 -0.3441
 8465TIP3    H246811   6.603   5.721   1.406  0.3114 -1.1784  0.9036
 8466TIP3   OH246812   2.293   3.539  12.655 -0.1751 -0.1065  0.1109
 8466TIP3    H146813   2.222   3.518  12.716 -0.1000 -0.8144 -0.0353
 8466TIP3    H246814   2.249   3.549  12.570 -0.1222 -0.4145  0.0449
 8467TIP3   OH246815   1.677   6.687   3.634  0.5620 -0.1805 -0.2210
 8467TIP3    H146816   1.687   6.738   3.715 -0.7135 -1.2614  0.6771
 8467TIP3    H246817   1.765   6.655   3.615  0.8614 -0.0444  0.8567
 8468TIP3   OH246818   4.206   1.381  15.023 -0.9064  0.5222 -0.3796
 8468TIP3    H146819   4.231   1.315  15.088 -0.4798  1.8053  0.8251
 8468TIP3    H246820   4.131   1.343  14.978  0.0866 -1.3151 -0.6204
 8469TIP3   OH246821   0.061   1.712  11.186  0.1020  0.6876  0.3151
 8469TIP3    H146822   0.057   1.769  11.262  1.0505  2.6747 -1.0184
 8469TIP3    H246823   0.075   1.771  11.112  0.0216 -1.2026 -1.3241
 8470TIP3   OH246824   5.032   4.979   3.859 -0.2644 -0.0917 -0.2821
 8470TIP3    H146825   5.076   4.903   3.820  0.1877  0.8169 -1.5978
 8470TIP3    H246826   5.003   5.031   3.785 -3.3963 -0.4993  0.5343
 8471TIP3   OH246827   2.299   0.781  11.167 -0.5476 -0.4579  0.1932
 8471TIP3    H146828   2.336   0.801  11.081 -1.6547 -0.4838 -0.3021
 8471TIP3    H246829   2.209   0.753  11.149 -0.9222 -0.0861  1.3896
 8472TIP3   OH246830   2.403   1.704  12.108 -0.1922  0.2591 -0.5174
 8472TIP3    H146831   2.485   1.749  12.089 -0.7108  1.0889 -0.8697
 8472TIP3    H246832   2.339   1.775  12.116 -1.2241 -0.4588 -2.0210
 8473TIP3   OH246833   3.884   4.124   2.096 -0.3080 -0.1403  0.3453
 8473TIP3    H146834   3.963   4.110   2.043 -0.4454 -0.8833  0.3179
 8473TIP3    H246835   3.911   4.187   2.163  0.0882  0.2079 -0.1417
 8474TIP3   OH246836   0.047   1.542   4.039 -0.2613  0.0396  0.2728
 8474TIP3    H146837   0.110   1.549   3.968 -0.7795  0.3637 -0.1670
 8474TIP3    H246838  -0.026   1.599   4.012 -0.2764  0.5190  1.2644
 8475TIP3   OH246839   4.944   5.608  16.854 -0.0473 -0.0398 -0.4009
 8475TIP3    H146840   5.023   5.659  16.870 -0.7942  1.0168 -0.0392
 8475TIP3    H246841   4.875   5.652  16.903 -0.6886 -1.5037  0.0898
 8476TIP3   OH246842   1.106   2.780  14.537  0.1280  0.6767  0.4796
 8476TIP3    H146843   1.029   2.731  14.509 -1.1097  1.8039  1.7924
 8476TIP3    H246844   1.072   2.853  14.588  1.9241  2.9958 -1.4387
 8477TIP3   OH246845   0.696   3.511  11.768  0.5679 -0.5343  0.4618
 8477TIP3    H146846   0.688   3.573  11.840  1.6402 -0.5268  0.5889
 8477TIP3    H246847   0.703   3.425  11.810  1.5694 -0.4940  0.3885
 8478TIP3   OH246848   0.606   4.343   5.249 -0.5081  0.3019  0.2166
 8478TIP3    H146849   0.519   4.382   5.245  0.8224  3.5965  0.0226
 8478TIP3    H246850   0.623   4.311   5.161 -1.5686 -0.5987  0.3188
 8479TIP3   OH246851   1.899   6.693   2.995  0.3049 -0.3995  0.0361
 8479TIP3    H146852   1.824   6.641   3.023  0.2449 -0.9543 -1.0906
 8479TIP3    H246853   1.967   6.629   2.975  0.4824 -0.0120 -0.6398
 8480TIP3   OH246854   5.503   6.588  15.357  0.2868  0.5489  0.0344
 8480TIP3    H146855   5.576   6.649  15.348 -0.4298  1.3299 -0.5643
 8480TIP3    H246856   5.437   6.637  15.407 -0.5029  0.4723 -0.8998
 8481TIP3   OH246857   6.468   0.864  16.506  0.1515  0.4435  0.0554
 8481TIP3    H146858   6.405   0.857  16.577 -1.2328  1.8613 -0.9625
 8481TIP3    H246859   6.416   0.852  16.427  1.6009 -0.7562 -0.7606
 8482TIP3   OH246860   6.134   2.722  15.913 -0.2179 -0.0234 -0.4022
 8482TIP3    H146861   6.111   2.713  16.006 -1.3876  1.9475 -0.4528
 8482TIP3    H246862   6.112   2.637  15.875  0.4676 -0.9426  1.1234
 8483TIP3   OH246863   3.258   5.781   2.223  0.1773 -0.6056  0.4204
 8483TIP3    H146864   3.197   5.855   2.226  1.0028  0.0944  0.3635
 8483TIP3    H246865   3.343   5.819   2.244  0.2922 -1.9283  2.7232
 8484TIP3   OH246866   0.824   1.876   3.722 -0.0754 -0.3020  0.1071
 8484TIP3    H146867   0.766   1.917   3.786  2.0332  0.4184  1.6826
 8484TIP3    H246868   0.823   1.783   3.746 -0.2373 -0.2264  0.4031
 8485TIP3   OH246869   5.700   3.889  15.367 -0.1090  0.1745 -0.3279
 8485TIP3    H146870   5.727   3.963  15.313  0.1075 -1.0963 -2.0601
 8485TIP3    H246871   5.644   3.837  15.310  0.5130 -1.4813  0.4943
 8486TIP3   OH246872   1.579   4.826  15.144 -0.1583 -0.7814  0.2033
 8486TIP3    H146873   1.558   4.758  15.080 -1.0386 -0.4054  0.0828
 8486TIP3    H246874   1.555   4.787  15.228 -1.5840 -0.2926  0.0543
 8487TIP3   OH246875   4.257   0.240  11.742 -0.3156 -0.2478 -0.7492
 8487TIP3    H146876   4.299   0.208  11.822  0.4992  0.7330 -0.7607
 8487TIP3    H246877   4.330   0.267  11.686 -0.9497  1.3162 -0.8654
 8488TIP3   OH246878   1.322   4.331  13.607 -0.0948 -0.0182  0.0486
 8488TIP3    H146879   1.402   4.344  13.658 -0.1553 -1.7730  0.6614
 8488TIP3    H246880   1.252   4.331  13.672 -0.4497  0.0883 -0.3278
 8489TIP3   OH246881   2.949   0.951   0.695 -0.0654 -0.1012 -0.3930
 8489TIP3    H146882   2.905   1.028   0.731  0.5737  0.6542 -1.1970
 8489TIP3    H246883   2.878   0.890   0.676 -0.6425  0.5611 -0.4134
 8490TIP3   OH246884   6.316   6.714  12.939  0.0013  0.2785  0.4505
 8490TIP3    H146885   6.310   6.808  12.957 -2.3211 -0.0648  1.8248
 8490TIP3    H246886   6.389   6.684  12.994  0.5701  1.1858  0.2247
 8491TIP3   OH246887   2.102   1.968  11.919  0.3893  0.6115 -0.2836
 8491TIP3    H146888   2.169   1.971  11.987 -1.2522 -0.0542  1.4295
 8491TIP3    H246889   2.031   1.916  11.956  0.2292 -1.5777 -3.2876
 8492TIP3   OH246890   3.106   2.568  12.394  0.3757  0.1158 -0.0099
 8492TIP3    H146891   3.055   2.606  12.322  1.3133  1.7866  0.1521
 8492TIP3    H246892   3.040   2.528  12.451 -0.5938  0.7643 -0.6444
 8493TIP3   OH246893   1.867   6.286  16.492  0.0496  0.0603  0.5791
 8493TIP3    H146894   1.946   6.304  16.543 -0.6173  0.6905  1.4154
 8493TIP3    H246895   1.851   6.367  16.443 -1.0060  0.5852  1.7122
 8494TIP3   OH246896   0.604   2.080   2.396 -0.6682 -0.4044  0.0353
 8494TIP3    H146897   0.646   2.131   2.327  0.2254 -1.1697 -0.0025
 8494TIP3    H246898   0.673   2.064   2.460 -1.8953  1.9219  2.1361
 8495TIP3   OH246899   3.936   5.430   5.305 -0.0727 -0.0754 -0.6369
 8495TIP3    H146900   4.012   5.454   5.252 -0.6787  0.0053 -1.4808
 8495TIP3    H246901   3.863   5.427   5.243 -1.0993  1.4684  0.4320
 8496TIP3   OH246902   5.343   4.047  13.618  0.2924  0.3720  0.2305
 8496TIP3    H146903   5.306   4.134  13.629 -0.5235  0.6467 -3.4312
 8496TIP3    H246904   5.271   3.995  13.581  1.4481 -1.1986  0.0775
 8497TIP3   OH246905   3.578   1.881   6.191  0.3073 -0.2127  0.5344
 8497TIP3    H146906   3.606   1.964   6.229 -1.7061  0.1629  1.3040
 8497TIP3    H246907   3.519   1.843   6.256 -1.3576 -0.6901 -1.1553
 8498TIP3   OH246908   4.235   3.721  15.145 -0.0093 -0.6905  0.1031
 8498TIP3    H146909   4.321   3.760  15.162 -0.0209 -0.4433 -0.3909
 8498TIP3    H246910   4.194   3.715  15.231 -0.9186  2.4812 -0.0184
 8499TIP3   OH246911   5.545   0.267   4.543  0.0459  0.5841  0.7975
 8499TIP3    H146912   5.605   0.339   4.523 -2.9212  2.6294 -1.7897
 8499TIP3    H246913   5.590   0.188   4.513  1.3162  2.0610 -1.4428
 8500TIP3   OH246914   4.969   0.062  11.302  0.7618 -0.0941  0.2181
 8500TIP3    H146915   4.960   0.097  11.391  0.2225 -0.6727  0.4012
 8500TIP3    H246916   4.990   0.138  11.248 -1.7139  0.7795  0.3540
 8501TIP3   OH246917   6.528   6.760   0.529  0.5073  0.4444  0.8408
 8501TIP3    H146918   6.474   6.692   0.569  3.0055 -2.1172  0.2243
 8501TIP3    H246919   6.486   6.779   0.446 -0.2601 -0.3813  1.0245
 8502TIP3   OH246920   1.096   2.305   0.885  0.0466 -0.1590 -0.3301
 8502TIP3    H146921   1.110   2.311   0.979 -1.0082  0.7036 -0.2074
 8502TIP3    H246922   1.057   2.218   0.872  1.3237 -0.7760 -0.1418
 8503TIP3   OH246923   1.280   5.850  12.983 -0.0966 -0.0292  0.4036
 8503TIP3    H146924   1.272   5.788  13.056 -1.3039  0.9627  1.1535
 8503TIP3    H246925   1.372   5.845  12.957  0.0458 -1.4205  1.0742
 8504TIP3   OH246926   6.230   0.434  15.978 -0.1225 -0.0319 -0.2107
 8504TIP3    H146927   6.267   0.516  16.011 -1.2099  0.2577  0.3307
 8504TIP3    H246928   6.171   0.460  15.908 -0.5919 -0.3378  0.0647
 8505TIP3   OH246929   5.822   6.149  13.475  0.9892 -0.0723 -0.0166
 8505TIP3    H146930   5.770   6.097  13.537  0.2181 -0.3661 -0.8822
 8505TIP3    H246931   5.819   6.238  13.510 -1.7776  0.3213 -1.0292
 8506TIP3   OH246932   0.577   3.792   6.041 -0.1483  0.4934  0.5722
 8506TIP3    H146933   0.662   3.764   6.077  0.1545  0.6729  0.0194
 8506TIP3    H246934   0.600   3.840   5.961 -0.8605 -1.3095 -0.7902
 8507TIP3   OH246935   2.568   6.145  16.430 -0.2841  0.1420 -0.1635
 8507TIP3    H146936   2.603   6.057  16.417 -0.0032  0.2642 -0.2445
 8507TIP3    H246937   2.497   6.134  16.493 -0.3091 -0.1551 -0.2441
 8508TIP3   OH246938   2.490   3.359  14.810 -0.5011  0.0356 -0.0396
 8508TIP3    H146939   2.516   3.268  14.822 -1.4282 -0.1714  0.5588
 8508TIP3    H246940   2.435   3.358  14.732 -1.4955 -0.1598  0.6296
 8509TIP3   OH246941   2.090   2.699  11.549  0.0563  0.0092  0.0413
 8509TIP3    H146942   2.103   2.619  11.498  0.7100  0.5376 -0.6468
 8509TIP3    H246943   2.075   2.767  11.483  0.8668  0.6991  0.5459
 8510TIP3   OH246944   5.238   2.523   2.202  0.0143  0.0728 -0.3615
 8510TIP3    H146945   5.300   2.588   2.169 -0.0756 -0.0574 -0.7930
 8510TIP3    H246946   5.260   2.515   2.295 -0.0343  0.7780 -0.2836
 8511TIP3   OH246947   0.487   2.980   2.124  0.2299 -0.5772  0.0591
 8511TIP3    H146948   0.505   2.904   2.178  1.8334  0.2192  0.7273
 8511TIP3    H246949   0.484   3.053   2.186 -0.0888  0.0645 -0.6970
 8512TIP3   OH246950   2.363   3.918  14.329 -0.3474  0.1675 -0.2339
 8512TIP3    H146951   2.272   3.943  14.341 -0.1886  1.3899 -1.3261
 8512TIP3    H246952   2.385   3.949  14.241  1.5923  1.4221  0.6134
 8513TIP3   OH246953   1.616   0.055  15.847 -0.5599  0.1968 -0.3378
 8513TIP3    H146954   1.657   0.132  15.807 -0.9752  1.0331  0.7726
 8513TIP3    H246955   1.615  -0.011  15.778 -0.9205  1.4519 -1.5732
 8514TIP3   OH246956   6.446   2.787   3.385  0.6316 -0.0238  0.8750
 8514TIP3    H146957   6.456   2.777   3.291  1.5106 -0.2327  0.9836
 8514TIP3    H246958   6.534   2.807   3.417  0.3944 -0.2119  1.6795
 8515TIP3   OH246959   5.103   1.387  14.603  0.2602 -0.8106 -0.1507
 8515TIP3    H146960   5.105   1.293  14.587 -1.0218 -0.7043 -1.2230
 8515TIP3    H246961   5.010   1.411  14.593  0.3931  0.3927  1.1912
 8516TIP3   OH246962   0.405   1.500   3.024 -0.1567 -0.0577  0.0394
 8516TIP3    H146963   0.323   1.520   2.980 -1.6618 -0.6871  2.3885
 8516TIP3    H246964   0.403   1.552   3.105  2.4204  0.9601 -0.4280
 8517TIP3   OH246965   0.865   5.004  15.712  0.4153  0.1493  0.1725
 8517TIP3    H146966   0.935   5.029  15.652 -0.0278  0.0231 -0.4067
 8517TIP3    H246967   0.880   5.058  15.790  2.3683 -1.3221  0.8957
 8518TIP3   OH246968   0.649   2.174   1.876 -0.6968  0.3197 -0.2028
 8518TIP3    H146969   0.726   2.208   1.831 -0.3535 -0.0024  0.1281
 8518TIP3    H246970   0.641   2.084   1.844 -1.1917  0.4847 -0.5575
 8519TIP3   OH246971   3.431   4.701   4.783 -0.3121 -0.4357 -1.1159
 8519TIP3    H146972   3.336   4.695   4.771 -0.4193 -0.6741 -0.2097
 8519TIP3    H246973   3.454   4.787   4.747 -1.4002  1.1819  1.7074
 8520TIP3   OH246974   3.764   4.055   4.055  0.0805  0.1369  0.2558
 8520TIP3    H146975   3.733   4.056   4.146 -1.4621 -0.0385 -0.2475
 8520TIP3    H246976   3.834   4.120   4.053  0.5081 -0.2374  1.6867
 8521TIP3   OH246977   3.388   1.092   3.553  0.4061 -0.5201  0.0344
 8521TIP3    H146978   3.298   1.124   3.567  0.2361 -0.3767 -1.2615
 8521TIP3    H246979   3.379   0.997   3.552 -0.0602 -0.5065 -1.8060
 8522TIP3   OH246980   4.817   1.084   2.991 -0.3148  0.1857 -0.1596
 8522TIP3    H146981   4.826   1.077   3.086 -0.3327  0.4720 -0.1349
 8522TIP3    H246982   4.724   1.065   2.975 -0.6791  1.5964  0.0408
 8523TIP3   OH246983   2.183   4.607   2.685  0.0850  0.4064  0.3904
 8523TIP3    H146984   2.240   4.608   2.762  2.2072  0.5172 -1.0982
 8523TIP3    H246985   2.159   4.515   2.675  1.1000  0.1378  0.3013
 8524TIP3   OH246986   4.704   2.302   4.916  0.9134 -0.5547 -0.2025
 8524TIP3    H146987   4.780   2.353   4.887 -0.4304  0.6035 -1.8917
 8524TIP3    H246988   4.643   2.306   4.842 -0.8359 -1.3938  1.1241
 8525TIP3   OH246989   0.671   1.841   2.625  0.0924  0.8083  0.1994
 8525TIP3    H146990   0.661   1.843   2.720  0.0601 -0.5472  0.2340
 8525TIP3    H246991   0.604   1.780   2.594  1.2983 -0.1915 -0.5189
 8526TIP3   OH246992   3.389   6.712   0.750  0.1171 -0.4123 -0.2741
 8526TIP3    H146993   3.451   6.785   0.746  1.7253 -1.7566 -2.9627
 8526TIP3    H246994   3.307   6.752   0.779  1.3500  2.1201  0.0054
 8527TIP3   OH246995   6.121   3.640  16.958  0.2603 -0.5391 -0.4024
 8527TIP3    H146996   6.195   3.665  17.013  1.2201 -0.5219 -1.6571
 8527TIP3    H246997   6.120   3.544  16.962  1.3847 -0.6376 -1.6259
 8528TIP3   OH246998   1.284   2.186  11.854 -0.1671 -0.0598 -0.5047
 8528TIP3    H146999   1.230   2.155  11.781 -0.5807 -1.6188  0.4292
 8528TIP3    H247000   1.232   2.257  11.892  0.0333  0.7450 -1.6639
 8529TIP3   OH247001   6.113   1.036   0.544 -0.2727  0.3075  0.3229
 8529TIP3    H147002   6.042   1.047   0.608 -0.7874  1.9381 -0.4774
 8529TIP3    H247003   6.078   0.974   0.480 -0.3846 -0.0502  0.7210
 8530TIP3   OH247004   1.012   4.531  11.669 -0.1378 -0.1437 -0.2502
 8530TIP3    H147005   1.058   4.612  11.645 -1.1813  0.6550  0.3629
 8530TIP3    H247006   0.998   4.486  11.586  0.2748  0.3985 -0.6246
 8531TIP3   OH247007   2.122   3.622  10.598  0.5960  0.1042  0.4097
 8531TIP3    H147008   2.200   3.605  10.546 -0.3501  0.2603 -1.1336
 8531TIP3    H247009   2.066   3.674  10.541 -1.9973 -2.6378  0.1819
 8532TIP3   OH247010   3.542   2.529   5.630  0.2276  0.2410  0.2047
 8532TIP3    H147011   3.533   2.444   5.586 -1.0068 -0.2077  1.2284
 8532TIP3    H247012   3.517   2.510   5.721  1.3157  1.4239  0.7793
 8533TIP3   OH247013   5.933   6.300  11.950  0.6742 -0.0449 -0.3132
 8533TIP3    H147014   5.961   6.225  12.002 -0.7569  0.1119  0.7195
 8533TIP3    H247015   5.973   6.375  11.992  1.1647 -0.1001 -0.6657
 8534TIP3   OH247016   0.189   1.605   3.809 -0.2749  0.1729 -0.5364
 8534TIP3    H147017   0.217   1.523   3.769 -2.3193 -1.4674  1.1546
 8534TIP3    H247018   0.122   1.639   3.749 -1.3769 -0.8535  0.0831
 8535TIP3   OH247019   1.558   0.747  13.753 -0.3316  0.2511 -0.6608
 8535TIP3    H147020   1.474   0.763  13.797  1.2328  1.0538  2.2925
 8535TIP3    H247021   1.607   0.693  13.815  2.0675  1.5124 -1.3423
 8536TIP3   OH247022   5.999   1.152   4.260  0.3878  0.5498  0.1096
 8536TIP3    H147023   6.057   1.146   4.184  0.8032  1.5325  0.3373
 8536TIP3    H247024   6.049   1.200   4.325 -0.3820  0.6987  0.6089
 8537TIP3   OH247025   5.159   5.899  12.622  0.0504 -0.1573  0.3119
 8537TIP3    H147026   5.070   5.932  12.635  0.1249  0.1164  0.1287
 8537TIP3    H247027   5.203   5.915  12.705  0.5106  1.5438 -0.2291
 8538TIP3   OH247028   3.526   5.276   0.809  1.1246 -0.0490 -0.2047
 8538TIP3    H147029   3.564   5.191   0.835  0.2491  0.0379  1.4902
 8538TIP3    H247030   3.502   5.264   0.717  2.4399 -1.1089 -0.4485
 8539TIP3   OH247031   3.299   1.282   5.618  0.7371 -0.7390 -0.1753
 8539TIP3    H147032   3.306   1.230   5.537 -2.4351 -1.7341  0.0562
 8539TIP3    H247033   3.322   1.371   5.591  0.9642 -1.2805 -1.8876
 8540TIP3   OH247034   5.128   2.256  13.308 -0.2676  0.4018 -0.1350
 8540TIP3    H147035   5.144   2.214  13.392 -0.6439 -1.1652 -0.8023
 8540TIP3    H247036   5.140   2.186  13.243 -1.3174  1.2272 -1.2785
 8541TIP3   OH247037   2.796   4.933  11.354  0.0634 -0.5092 -0.1585
 8541TIP3    H147038   2.801   5.003  11.288  0.6467 -0.3460  0.0459
 8541TIP3    H247039   2.859   4.960  11.421  0.0863 -1.0901  0.0588
 8542TIP3   OH247040   3.331   0.614  10.540  0.2656 -0.2521  0.1387
 8542TIP3    H147041   3.389   0.576  10.606  2.1424  1.4535 -0.4196
 8542TIP3    H247042   3.390   0.658  10.478 -1.5713  0.5035 -1.1838
 8543TIP3   OH247043   5.273   0.986  11.734 -0.2495  0.5852  0.0636
 8543TIP3    H147044   5.204   0.972  11.799 -0.8807 -0.3012 -0.7591
 8543TIP3    H247045   5.272   1.081  11.718  0.7291  1.0192  2.1619
 8544TIP3   OH247046   1.512   2.920  11.285 -0.0401 -1.3084 -0.1441
 8544TIP3    H147047   1.446   2.980  11.251  1.5731  0.8912  0.3451
 8544TIP3    H247048   1.574   2.910  11.212  1.6176  0.6631  0.8950
 8545TIP3   OH247049   0.618   6.648   5.329  0.4399 -0.1360  0.6101
 8545TIP3    H147050   0.615   6.647   5.425 -2.0745  0.0688  0.5932
 8545TIP3    H247051   0.619   6.741   5.306 -1.7481 -0.1072  0.4628
 8546TIP3   OH247052   5.012   3.564  16.901 -0.0734  0.1209 -0.1802
 8546TIP3    H147053   5.064   3.593  16.826  0.2347  0.2249  0.0749
 8546TIP3    H247054   5.015   3.469  16.896 -0.1803  0.1265 -0.3863
 8547TIP3   OH247055   4.875   6.681   1.145  0.9294  0.6779  0.5930
 8547TIP3    H147056   4.848   6.754   1.200 -1.5685  0.4469 -0.1779
 8547TIP3    H247057   4.908   6.722   1.065 -1.3458  1.0688 -0.2302
 8548TIP3   OH247058   2.270   1.584  15.662 -0.2552 -0.3039  0.4969
 8548TIP3    H147059   2.296   1.544  15.745  0.7577  0.0293  0.3471
 8548TIP3    H247060   2.271   1.512  15.600 -0.6908 -0.4903  0.7029
 8549TIP3   OH247061   2.714   6.106  13.220  0.2943 -0.4744 -0.2222
 8549TIP3    H147062   2.662   6.065  13.151  0.5910  1.0605 -1.4206
 8549TIP3    H247063   2.758   6.180  13.177  1.7686 -0.4195  1.2421
 8550TIP3   OH247064   4.802   3.534  11.566  0.4775  0.3586 -0.0132
 8550TIP3    H147065   4.885   3.540  11.518 -0.1909  2.2999 -1.0494
 8550TIP3    H247066   4.805   3.608  11.628 -0.1261 -0.0732  0.5478
 8551TIP3   OH247067   4.021   5.965  15.956  0.3126 -0.1818  0.0800
 8551TIP3    H147068   4.076   6.005  16.024 -0.9250 -0.3178  1.2105
 8551TIP3    H247069   3.964   6.036  15.927 -1.1580 -0.7871  1.3236
 8552TIP3   OH247070   4.642   6.491  11.264  0.2334  0.4947  0.0934
 8552TIP3    H147071   4.716   6.509  11.321 -1.4213  1.8300  1.9453
 8552TIP3    H247072   4.614   6.577  11.233  0.0647 -0.0740 -1.4727
 8553TIP3   OH247073   3.880   2.268  16.610  0.4499  0.0555 -0.0490
 8553TIP3    H147074   3.831   2.214  16.548  0.2010  0.8925 -0.5937
 8553TIP3    H247075   3.886   2.354  16.568  3.9219 -0.4208 -0.8425
 8554TIP3   OH247076   2.769   2.054  10.375 -0.0717 -0.8001  0.6992
 8554TIP3    H147077   2.678   2.076  10.395  0.2217  2.0290 -0.5617
 8554TIP3    H247078   2.813   2.139  10.365  1.8933 -1.9729 -2.1802
 8555TIP3   OH247079   3.007   5.135  14.940 -0.3295  0.4127  0.3889
 8555TIP3    H147080   3.086   5.184  14.918  0.3472 -0.9231 -0.2950
 8555TIP3    H247081   2.940   5.169  14.881  0.3382 -0.0350 -0.6461
 8556TIP3   OH247082   5.777   0.877   4.481  0.0889  0.5350 -0.1884
 8556TIP3    H147083   5.699   0.856   4.533  0.5441 -0.4970  0.0931
 8556TIP3    H247084   5.742   0.897   4.394 -0.5708  1.0404  0.1786
 8557TIP3   OH247085   4.456   1.957   5.473 -0.0715  0.0808 -0.0083
 8557TIP3    H147086   4.382   1.918   5.426 -0.1689 -0.1811  0.3632
 8557TIP3    H247087   4.417   2.017   5.536  0.0746  0.7155 -0.5060
 8558TIP3   OH247088   4.973   0.332   0.550  0.3483  0.4235  0.4960
 8558TIP3    H147089   4.964   0.313   0.643  0.2872  2.1723  0.8749
 8558TIP3    H247090   5.048   0.390   0.544  1.2199 -0.7748 -0.7362
 8559TIP3   OH247091   6.641   0.306  13.177  0.3625  0.3980  0.3311
 8559TIP3    H147092   6.573   0.306  13.109  0.0760  0.0241  0.6136
 8559TIP3    H247093   6.619   0.381  13.233  0.5090  0.6135  0.0990
 8560TIP3   OH247094   4.086   0.287  12.707  0.4264  0.3017  0.6050
 8560TIP3    H147095   4.112   0.224  12.639  0.5454  0.2277  0.7175
 8560TIP3    H247096   4.039   0.234  12.772  0.5599  0.3217  0.7187
 8561TIP3   OH247097   4.105   2.795   6.939 -0.7656  0.7103  0.0084
 8561TIP3    H147098   4.021   2.750   6.927  0.5381 -1.6920 -0.9728
 8561TIP3    H247099   4.102   2.868   6.877 -1.5794 -0.2652 -1.1665
 8562TIP3   OH247100   0.936   3.579  13.001  0.0050  0.6337  0.0174
 8562TIP3    H147101   0.891   3.659  12.976  1.6644  1.1144 -1.6144
 8562TIP3    H247102   0.930   3.522  12.924 -1.7531 -1.1745  1.3654
 8563TIP3   OH247103   1.298   4.476   5.370 -0.1751  0.3074 -0.0325
 8563TIP3    H147104   1.206   4.451   5.364 -0.1967  0.1604  0.8019
 8563TIP3    H247105   1.338   4.410   5.426 -0.1546  1.8669  1.8974
 8564TIP3   OH247106   1.849   3.124   5.836 -0.2291 -0.2585 -0.2729
 8564TIP3    H147107   1.834   3.067   5.761  0.9016  0.3665 -1.0048
 8564TIP3    H247108   1.768   3.174   5.846 -0.0261  0.4336 -1.7866
 8565TIP3   OH247109   5.538   1.439  12.231  0.0995 -0.1402 -0.0288
 8565TIP3    H147110   5.460   1.399  12.192 -1.3162  0.9465  1.5509
 8565TIP3    H247111   5.557   1.514  12.175 -0.2947 -0.1123 -0.1294
 8566TIP3   OH247112   2.493   3.150   4.071 -0.0965  0.0769 -0.2774
 8566TIP3    H147113   2.555   3.100   4.019 -0.9602 -0.6209 -0.6566
 8566TIP3    H247114   2.485   3.102   4.154 -2.7928 -1.9110 -1.5458
 8567TIP3   OH247115   6.417   0.797   4.666 -0.4336 -0.3252 -0.3355
 8567TIP3    H147116   6.504   0.757   4.665  0.0596  0.6383  1.0425
 8567TIP3    H247117   6.412   0.846   4.583  0.2771 -0.4984 -0.4838
 8568TIP3   OH247118   6.644   2.207   0.756  0.4113 -0.3571  0.1827
 8568TIP3    H147119   6.641   2.111   0.755 -1.3075 -0.3268  0.6208
 8568TIP3    H247120   6.731   2.227   0.790  0.4772 -1.7657  0.9253
 8569TIP3   OH247121   0.096   3.093   2.184 -0.2226 -0.0507  0.0763
 8569TIP3    H147122   0.150   3.171   2.191  0.4446 -0.4646 -0.3162
 8569TIP3    H247123   0.013   3.124   2.147 -0.0164  0.4873  0.0611
 8570TIP3   OH247124   5.247   0.206   3.852  0.1956  0.3437 -0.3712
 8570TIP3    H147125   5.279   0.266   3.919 -2.1010  1.2552  0.0187
 8570TIP3    H247126   5.175   0.159   3.895 -0.4744  0.0025 -1.8027
 8571TIP3   OH247127   5.121   3.818  15.710  0.0325  0.3152  0.0241
 8571TIP3    H147128   5.208   3.817  15.670 -0.4517 -1.2344 -1.0494
 8571TIP3    H247129   5.135   3.785  15.799  0.4393 -0.7154 -0.4082
 8572TIP3   OH247130   1.265   2.400  16.120  0.0400 -0.1342  0.7062
 8572TIP3    H147131   1.286   2.409  16.027 -1.1798 -0.2471  0.3969
 8572TIP3    H247132   1.349   2.410  16.165  0.5303  0.7084 -0.3549
 8573TIP3   OH247133   6.689   2.631  11.666  0.4962  0.1354 -0.5487
 8573TIP3    H147134   6.766   2.606  11.615 -0.8115 -2.2261 -1.4994
 8573TIP3    H247135   6.717   2.618  11.757  0.6258 -2.9685 -0.9175
 8574TIP3   OH247136   5.748   4.137  10.991  0.7406 -0.6074  0.0759
 8574TIP3    H147137   5.837   4.105  10.981  1.4123  1.3361 -0.7536
 8574TIP3    H247138   5.693   4.058  10.993  2.3913 -1.8071 -0.2578
 8575TIP3   OH247139   1.459   3.618   0.306 -0.1141  0.3281  0.7361
 8575TIP3    H147140   1.457   3.674   0.228 -0.0131 -0.1156  0.4074
 8575TIP3    H247141   1.449   3.678   0.379 -1.4543  0.6511  0.3279
 8576TIP3   OH247142   1.870   2.767   4.697 -0.3962 -0.0473  0.8239
 8576TIP3    H147143   1.890   2.801   4.784  1.7604 -1.6399  1.0286
 8576TIP3    H247144   1.897   2.676   4.700 -1.6189 -0.5367 -1.1172
 8577TIP3   OH247145   2.270   3.385  12.417  0.5132  0.1164 -0.3436
 8577TIP3    H147146   2.351   3.366  12.465  1.6822  0.2374 -2.1535
 8577TIP3    H247147   2.289   3.357  12.327 -1.5190  0.0347 -0.7878
 8578TIP3   OH247148   0.760   6.207   6.429  0.0223  0.3476 -0.1172
 8578TIP3    H147149   0.747   6.196   6.524 -2.4991 -1.1294 -0.5226
 8578TIP3    H247150   0.816   6.134   6.404 -0.3548 -0.0183  0.0865
 8579TIP3   OH247151   3.366   2.664  15.646 -0.0142  0.6075 -0.3716
 8579TIP3    H147152   3.338   2.593  15.704  2.9971 -1.4897 -1.2255
 8579TIP3    H247153   3.342   2.635  15.558  1.1301  0.6356 -0.7178
 8580TIP3   OH247154   2.807   0.257  15.828  0.3463 -0.2824 -0.3069
 8580TIP3    H147155   2.900   0.274  15.816  0.4973 -1.7562 -1.4703
 8580TIP3    H247156   2.801   0.164  15.847 -0.9751 -0.5422 -1.7633
 8581TIP3   OH247157   0.906   0.910   1.976  0.1228 -0.1147 -0.3750
 8581TIP3    H147158   0.909   0.906   1.880  1.7770  1.4326 -0.4459
 8581TIP3    H247159   0.846   0.840   2.001  0.0910 -0.9287 -2.5064
 8582TIP3   OH247160   2.988   6.372  11.322 -0.7478 -0.3583  0.6446
 8582TIP3    H147161   3.069   6.371  11.374  0.1499 -0.2097 -0.7123
 8582TIP3    H247162   2.993   6.453  11.272 -0.8743 -1.2124 -0.7823
 8583TIP3   OH247163   1.091   3.687  13.208 -0.3816 -0.1466 -0.3743
 8583TIP3    H147164   1.052   3.627  13.145 -0.5576 -1.3178  0.8000
 8583TIP3    H247165   1.111   3.632  13.284  1.9565  0.7447 -0.2609
 8584TIP3   OH247166   1.061   0.958   3.276  0.2522 -0.1932 -0.4995
 8584TIP3    H147167   1.073   0.910   3.358  1.2488 -1.2936 -1.2687
 8584TIP3    H247168   1.090   0.897   3.208 -2.1258  0.0553 -1.8366
 8585TIP3   OH247169   0.284   4.986  16.597 -0.7571  0.4811 -0.2730
 8585TIP3    H147170   0.212   5.043  16.572 -1.2587  0.2713  0.6366
 8585TIP3    H247171   0.312   5.018  16.683  0.9461  1.2207 -1.0550
 8586TIP3   OH247172   3.238   1.064   0.898  0.0052 -0.5156  0.5523
 8586TIP3    H147173   3.155   1.113   0.898 -0.5685 -1.4497  1.2661
 8586TIP3    H247174   3.304   1.129   0.922 -0.6666  0.0371  0.9381
 8587TIP3   OH247175   3.724   2.441  15.156  0.0446  0.4251  0.0779
 8587TIP3    H147176   3.744   2.522  15.202  0.3943 -0.3588  1.3440
 8587TIP3    H247177   3.652   2.464  15.097  0.2975  1.6981  0.2378
 8588TIP3   OH247178   1.723   2.751  12.941 -0.4835  0.4747 -0.0946
 8588TIP3    H147179   1.691   2.774  12.853  1.1801  0.0280 -0.8587
 8588TIP3    H247180   1.754   2.661  12.932  1.3637  1.0167  0.4469
 8589TIP3   OH247181   3.101   4.111   4.623  0.1627  0.0127  0.7274
 8589TIP3    H147182   3.131   4.097   4.533 -2.7791 -1.2335 -0.1753
 8589TIP3    H247183   3.090   4.023   4.659 -2.4845  0.3449  0.8743
 8590TIP3   OH247184   1.358   5.519  16.030 -0.0855 -0.2990 -0.2054
 8590TIP3    H147185   1.323   5.608  16.030  0.5796 -0.0197  0.3274
 8590TIP3    H247186   1.287   5.464  15.996 -0.1788  0.5510 -1.4456
 8591TIP3   OH247187   5.599   4.061   1.275 -0.2388  0.1798 -0.6705
 8591TIP3    H147188   5.638   4.072   1.188 -1.4190 -1.3530 -1.4263
 8591TIP3    H247189   5.628   3.975   1.304  1.0556  1.0895  0.9996
 8592TIP3   OH247190   2.887   3.077   5.391 -0.3894  0.7834  0.3375
 8592TIP3    H147191   2.850   3.000   5.434  1.1343  1.6909  3.6231
 8592TIP3    H247192   2.969   3.047   5.352 -0.4005  0.4947  0.5347
 8593TIP3   OH247193   6.657   1.675   2.476 -0.1044  0.0296  0.6109
 8593TIP3    H147194   6.687   1.713   2.393 -0.8736  0.9561  0.7339
 8593TIP3    H247195   6.600   1.603   2.450 -0.9703  0.8007  0.2975
 8594TIP3   OH247196   6.581   2.619   1.336  0.1173 -0.3086  0.2865
 8594TIP3    H147197   6.533   2.622   1.254 -1.1383 -0.7883  0.9670
 8594TIP3    H247198   6.655   2.679   1.324  0.1021 -0.5859 -1.2638
 8595TIP3   OH247199   3.812   4.570   2.582  0.0153  0.4720  0.4720
 8595TIP3    H147200   3.722   4.598   2.602 -0.4833 -1.1603  0.7029
 8595TIP3    H247201   3.835   4.513   2.655  0.5839 -0.5152 -0.4599
 8596TIP3   OH247202   0.632   3.306  14.379  0.2871 -0.0808 -0.1154
 8596TIP3    H147203   0.723   3.276  14.370  0.0971 -0.5419 -0.5363
 8596TIP3    H247204   0.640   3.401  14.385  0.6662  0.1340 -2.7045
 8597TIP3   OH247205   4.858   3.333   4.286 -0.5405  0.0187  0.0721
 8597TIP3    H147206   4.881   3.250   4.244 -1.8288 -0.1642 -0.3140
 8597TIP3    H247207   4.880   3.400   4.222 -0.2478 -0.0744  0.0718
 8598TIP3   OH247208   4.916   0.828   5.313 -0.3377 -0.5905 -0.1463
 8598TIP3    H147209   4.853   0.758   5.295  0.1027 -1.3076  0.9924
 8598TIP3    H247210   4.897   0.854   5.403 -0.7365  1.0381 -0.6693
 8599TIP3   OH247211   3.525   6.042   5.811 -0.3942 -0.3505 -0.0596
 8599TIP3    H147212   3.607   5.993   5.822 -1.1334 -1.5389  0.2919
 8599TIP3    H247213   3.465   6.004   5.875 -1.1848  0.6127 -0.1997
 8600TIP3   OH247214   1.090   0.397   4.172  0.0765  0.4374  0.6037
 8600TIP3    H147215   1.123   0.310   4.196  2.5828  0.8947 -0.7992
 8600TIP3    H247216   1.105   0.451   4.250  1.1577  0.2327  0.5525
 8601TIP3   OH247217   2.315   6.211  14.331  0.2464  0.3031  0.2992
 8601TIP3    H147218   2.260   6.209  14.409 -1.1869 -0.7960 -0.6720
 8601TIP3    H247219   2.401   6.185  14.362 -0.6431 -1.7090  1.3208
 8602TIP3   OH247220   1.102   4.565   4.880  0.5130  0.0493 -0.0548
 8602TIP3    H147221   1.119   4.659   4.872 -0.2218  0.2320  0.3914
 8602TIP3    H247222   1.126   4.528   4.795  1.1131  0.5854 -0.1283
 8603TIP3   OH247223   5.419   2.032  14.957  0.1178 -0.5002  0.0099
 8603TIP3    H147224   5.467   1.962  15.002  2.8439  0.3770 -1.3456
 8603TIP3    H247225   5.353   1.985  14.905  0.3913 -1.8760  0.8373
 8604TIP3   OH247226   6.339   0.916   5.231  0.0719 -0.0835  0.2119
 8604TIP3    H147227   6.272   0.983   5.218  0.9190  0.9398  0.8601
 8604TIP3    H247228   6.420   0.959   5.202  0.6243 -0.8479  0.6139
 8605TIP3   OH247229   2.456   2.219   6.069  0.2303  0.1338 -0.2312
 8605TIP3    H147230   2.382   2.280   6.065  0.9361  1.0325 -0.0374
 8605TIP3    H247231   2.444   2.161   5.994 -0.9387 -0.0597  0.0897
 8606TIP3   OH247232   3.274   1.682  12.824  0.0638  0.0866  0.0415
 8606TIP3    H147233   3.233   1.762  12.792  0.1726  0.2379  0.2704
 8606TIP3    H247234   3.207   1.614  12.815 -0.9140  0.6833  2.0931
 8607TIP3   OH247235   4.749   0.070   3.330  0.1067 -1.3269  0.0211
 8607TIP3    H147236   4.667   0.100   3.292 -0.0799 -0.2582  1.1946
 8607TIP3    H247237   4.810   0.068   3.257 -0.5834 -0.6600 -0.5957
 8608TIP3   OH247238   1.845   4.665   6.408 -0.0876 -0.1009  0.3255
 8608TIP3    H147239   1.774   4.657   6.472  1.3973  2.3123  2.4769
 8608TIP3    H247240   1.923   4.634   6.454  0.9572  1.2856 -0.4398
 8609TIP3   OH247241   3.881   0.436   2.198 -0.7187 -0.3120  0.1723
 8609TIP3    H147242   3.823   0.360   2.194 -1.4076  0.1793  0.5974
 8609TIP3    H247243   3.836   0.497   2.257 -0.0120  0.2830  0.1037
 8610TIP3   OH247244   5.997   3.823  15.174  0.0016 -0.2637  0.5844
 8610TIP3    H147245   6.020   3.742  15.220 -0.1742 -0.3734  0.4804
 8610TIP3    H247246   5.913   3.803  15.131 -0.3366  0.1624  1.0431
 8611TIP3   OH247247   1.131   1.664   5.358 -0.1687  0.1443 -1.0379
 8611TIP3    H147248   1.041   1.643   5.335 -0.6139  1.6444 -0.7722
 8611TIP3    H247249   1.181   1.587   5.331 -1.7174 -1.4257  0.3058
 8612TIP3   OH247250   5.163   0.717  16.207  0.5641 -0.1328  0.1714
 8612TIP3    H147251   5.180   0.734  16.300 -0.9493  0.0096  0.4460
 8612TIP3    H247252   5.072   0.688  16.205  0.1143  1.2852 -1.4527
 8613TIP3   OH247253   1.485   4.251  12.416  0.5903 -0.4304  0.1863
 8613TIP3    H147254   1.470   4.302  12.337  0.0641  0.3659  0.7972
 8613TIP3    H247255   1.540   4.178  12.386  1.8725  0.7913 -0.5909
 8614TIP3   OH247256   4.292   5.981   1.167  0.4406  0.5599  0.3992
 8614TIP3    H147257   4.358   6.031   1.216  2.9580 -2.0586 -0.0953
 8614TIP3    H247258   4.302   5.891   1.198 -1.9085 -0.1816 -0.8103
 8615TIP3   OH247259   2.712   4.402  10.946 -0.5360 -0.3608 -0.1258
 8615TIP3    H147260   2.694   4.333  10.881 -2.4944 -0.7409  0.7243
 8615TIP3    H247261   2.687   4.483  10.902  0.0239 -0.3973 -0.5134
 8616TIP3   OH247262   1.674   4.498   1.127  0.3609 -0.1954 -0.7081
 8616TIP3    H147263   1.639   4.411   1.143 -0.2824  0.2378  0.2818
 8616TIP3    H247264   1.736   4.513   1.198 -1.6519  1.2715  0.8454
 8617TIP3   OH247265   5.972   0.625  16.136 -0.3042  0.1393 -0.3600
 8617TIP3    H147266   5.998   0.692  16.199 -0.2533  0.1240 -0.3654
 8617TIP3    H247267   5.948   0.675  16.058 -3.0455  0.3614  0.5443
 8618TIP3   OH247268   4.955   1.123  13.506 -0.0410 -0.6017  0.2724
 8618TIP3    H147269   4.981   1.160  13.590  0.3935  0.5474 -0.3386
 8618TIP3    H247270   4.869   1.085  13.522  0.0884 -0.5075  1.2661
 8619TIP3   OH247271   3.641   0.447  12.664  0.2075 -0.2163 -0.9350
 8619TIP3    H147272   3.668   0.419  12.751  1.9726  0.0092 -1.3744
 8619TIP3    H247273   3.547   0.464  12.672  0.0876 -1.3790  0.5997
 8620TIP3   OH247274   2.284   3.706  16.316  0.0277  0.6951 -0.2640
 8620TIP3    H147275   2.225   3.654  16.371 -0.0835  0.3934 -0.6608
 8620TIP3    H247276   2.368   3.704  16.362  0.1954 -0.3776 -0.5865
 8621TIP3   OH247277   3.948   5.179   5.620  0.5446  1.2071 -0.2650
 8621TIP3    H147278   3.968   5.182   5.527 -0.2981  0.6054 -0.4852
 8621TIP3    H247279   3.868   5.231   5.629 -2.2835 -2.5542 -0.7745
 8622TIP3   OH247280   5.632   5.519  16.060 -0.1478  0.3275 -0.1337
 8622TIP3    H147281   5.723   5.506  16.088 -0.3069 -0.9080 -0.1228
 8622TIP3    H247282   5.585   5.443  16.095 -0.7377 -0.2370 -2.0069
 8623TIP3   OH247283   3.228   3.920   2.762  0.4018  0.4437 -0.0591
 8623TIP3    H147284   3.153   3.862   2.771 -0.7854  2.0470  0.9796
 8623TIP3    H247285   3.207   3.976   2.687  1.7294 -0.6884 -1.3270
 8624TIP3   OH247286   3.503   3.277   5.354 -0.2106  0.1120 -0.7957
 8624TIP3    H147287   3.526   3.185   5.336  0.0771  0.3516 -1.6747
 8624TIP3    H247288   3.463   3.274   5.441  2.2282 -0.4856  0.4271
 8625TIP3   OH247289   6.392   0.309  16.613  0.5971 -0.2676 -0.2316
 8625TIP3    H147290   6.359   0.376  16.554  0.0569 -0.1854  0.1527
 8625TIP3    H247291   6.371   0.341  16.701  1.3970 -0.3831  0.0087
 8626TIP3   OH247292   2.361   5.912  14.375 -0.5312  0.1825  0.0727
 8626TIP3    H147293   2.393   6.001  14.391 -0.7913  0.1277  0.9805
 8626TIP3    H247294   2.415   5.857  14.431 -1.3473 -0.0529  0.6447
 8627TIP3   OH247295   6.365   1.794  13.024  0.5527 -0.0309  0.0753
 8627TIP3    H147296   6.301   1.801  12.954  1.1142  0.7312 -0.3687
 8627TIP3    H247297   6.450   1.789  12.980  0.7649 -1.9396  0.6226
 8628TIP3   OH247298   5.056   5.853  16.535  0.2535  0.7642 -0.0825
 8628TIP3    H147299   4.980   5.836  16.479 -0.0369 -0.4120  0.6377
 8628TIP3    H247300   5.019   5.861  16.623  1.1726 -2.9482  0.8122
 8629TIP3   OH247301   5.000   6.273  15.049 -0.4208  0.4800 -0.3454
 8629TIP3    H147302   4.907   6.286  15.065 -0.1751  1.6559  0.1848
 8629TIP3    H247303   5.043   6.343  15.096  0.8268 -0.7009  0.3477
 8630TIP3   OH247304   3.063   5.560  13.400 -0.2148  0.2417  0.8882
 8630TIP3    H147305   3.146   5.535  13.440  0.2389  1.8371  1.0217
 8630TIP3    H247306   3.078   5.649  13.366 -1.2423 -0.2211 -0.9242
 8631TIP3   OH247307   0.699   5.145  10.946 -0.7230 -0.3436  0.3083
 8631TIP3    H147308   0.718   5.126  10.854 -1.0419  0.1416  0.1366
 8631TIP3    H247309   0.702   5.240  10.952 -0.7942 -0.3678  0.7841
 8632TIP3   OH247310   5.470   5.316   6.350 -0.5245 -0.2337  0.0424
 8632TIP3    H147311   5.481   5.221   6.355  0.4288 -0.1460 -0.1760
 8632TIP3    H247312   5.389   5.328   6.300  0.7278 -0.9443 -2.3171
 8633TIP3   OH247313   3.225   2.264  12.647 -0.1465  0.1246 -0.3138
 8633TIP3    H147314   3.298   2.267  12.585  0.4219 -1.1270  0.2698
 8633TIP3    H247315   3.202   2.356  12.662  1.0507  0.5159 -0.8132
 8634TIP3   OH247316   5.159   5.127  11.889  0.0222  0.3329 -0.3983
 8634TIP3    H147317   5.117   5.168  11.814  1.0873  0.5504 -0.8904
 8634TIP3    H247318   5.208   5.198  11.931  1.3173 -0.2653 -0.8535
 8635TIP3   OH247319   6.346   4.760  11.617  0.3495 -0.2777 -0.5189
 8635TIP3    H147320   6.312   4.704  11.686  1.8189  0.3738  0.8093
 8635TIP3    H247321   6.272   4.776  11.559 -0.9980 -0.6100  1.0629
 8636TIP3   OH247322   2.850   5.561   5.176  0.4131  0.1277  0.8053
 8636TIP3    H147323   2.830   5.625   5.107  1.7746  2.0969  2.1135
 8636TIP3    H247324   2.775   5.566   5.235 -0.1198 -0.5534  0.2114
 8637TIP3   OH247325   0.211   5.193  12.209 -0.0762  0.1170  0.1618
 8637TIP3    H147326   0.119   5.174  12.187 -0.0857  0.3243  0.0220
 8637TIP3    H247327   0.206   5.256  12.281 -0.0435  0.3164 -0.0103
 8638TIP3   OH247328   4.200   1.668   0.388  0.2983 -0.0221  0.4348
 8638TIP3    H147329   4.154   1.683   0.305  1.9884  0.8640 -0.3884
 8638TIP3    H247330   4.282   1.625   0.362  1.5220  1.5816  1.4702
 8639TIP3   OH247331   4.749   4.627   1.909  0.5545 -0.0327 -0.1077
 8639TIP3    H147332   4.728   4.562   1.842 -0.5511  0.1912  0.0016
 8639TIP3    H247333   4.686   4.698   1.895 -0.0287 -0.1949  1.4463
 8640TIP3   OH247334   1.159   4.029  13.221  0.3654 -0.4849 -0.1955
 8640TIP3    H147335   1.125   4.119  13.213  1.5832 -0.0765 -1.0927
 8640TIP3    H247336   1.094   3.975  13.177 -0.0524  0.0352 -0.2323
 8641TIP3   OH247337   4.301   1.745  14.474 -0.5129  0.3648  0.5113
 8641TIP3    H147338   4.220   1.777  14.435 -0.9097 -0.9589  0.2128
 8641TIP3    H247339   4.337   1.685  14.409 -0.6430 -1.0646  1.7087
 8642TIP3   OH247340   4.731   4.636  12.857  0.0480  0.1576 -0.4161
 8642TIP3    H147341   4.682   4.711  12.892 -0.5711 -0.6602  0.5427
 8642TIP3    H247342   4.785   4.673  12.787 -0.2745  1.4837  0.0033
 8643TIP3   OH247343   5.857   4.212   3.946 -0.7491 -0.0240 -0.1232
 8643TIP3    H147344   5.901   4.210   4.031 -0.7437 -1.2324 -0.1374
 8643TIP3    H247345   5.920   4.174   3.885 -1.2777 -0.4838 -0.3983
 8644TIP3   OH247346   4.827   5.811  17.009  0.1280  0.1045 -0.4252
 8644TIP3    H147347   4.850   5.904  17.006  0.3508  0.1256  0.9507
 8644TIP3    H247348   4.790   5.799  17.097  1.3220 -1.3554 -0.0802
 8645TIP3   OH247349   3.016   2.063   5.155 -0.2579  0.1768 -0.4638
 8645TIP3    H147350   3.067   2.049   5.075  0.9237  0.3133  0.2585
 8645TIP3    H247351   2.995   2.156   5.154  1.1714  0.5245  0.1992
 8646TIP3   OH247352   5.574   4.393  16.895  0.6325  0.4828  0.4062
 8646TIP3    H147353   5.566   4.485  16.870  1.0585  0.8933  1.6765
 8646TIP3    H247354   5.501   4.378  16.954  0.4739 -0.0487  0.0823
 8647TIP3   OH247355   1.665   4.691  12.167  0.1185  0.5982  0.3759
 8647TIP3    H147356   1.684   4.735  12.084  0.1604  2.0260  1.1187
 8647TIP3    H247357   1.610   4.753  12.215  0.9834  0.2685  1.8525
 8648TIP3   OH247358   3.960   1.671   1.823 -0.3746  0.1091 -0.3039
 8648TIP3    H147359   3.875   1.714   1.825 -0.1076  0.6445  1.6307
 8648TIP3    H247360   3.987   1.677   1.731 -2.3109  0.0882 -0.9255
 8649TIP3   OH247361   2.697   4.391   4.712  0.3417  0.1789 -0.1100
 8649TIP3    H147362   2.734   4.471   4.748  0.1083  0.2955 -0.1277
 8649TIP3    H247363   2.768   4.353   4.661  0.0859  1.0288 -1.1536
 8650TIP3   OH247364   4.343   0.222   0.650  0.5478 -0.2766  0.2227
 8650TIP3    H147365   4.301   0.136   0.660 -0.5476  0.3811  1.4076
 8650TIP3    H247366   4.390   0.215   0.566  0.9776 -2.2284  0.5607
 8651TIP3   OH247367   4.832   3.045   2.546  0.1601  0.6239 -0.3305
 8651TIP3    H147368   4.914   3.069   2.504  1.1268  0.3719  1.3211
 8651TIP3    H247369   4.819   3.113   2.613  0.1042 -0.4241  0.7632
 8652TIP3   OH247370   1.852   3.477  13.838  0.1124 -0.2163  0.4199
 8652TIP3    H147371   1.921   3.540  13.814  0.4808 -0.1622  1.5611
 8652TIP3    H247372   1.896   3.413  13.893 -0.3727 -1.2267 -0.3444
 8653TIP3   OH247373   2.585   3.091  12.793  0.7929  0.3336 -0.1684
 8653TIP3    H147374   2.591   3.064  12.701 -1.0587 -1.8379  0.2724
 8653TIP3    H247375   2.585   3.187  12.790  4.5386  0.4691 -2.0856
 8654TIP3   OH247376   5.583   3.203  17.036 -0.1662 -0.0110 -0.1734
 8654TIP3    H147377   5.617   3.160  16.958  0.3751 -0.2004  0.1605
 8654TIP3    H247378   5.552   3.131  17.091 -0.2799  0.1024 -0.0876
 8655TIP3   OH247379   0.076   0.556   2.064  0.4221  0.0303 -0.4221
 8655TIP3    H147380   0.071   0.462   2.082 -1.3468  0.3069  0.7739
 8655TIP3    H247381   0.147   0.588   2.119  1.8202 -0.7542 -1.7077
 8656TIP3   OH247382   4.293   2.866  13.855  0.3587 -0.1165  0.3073
 8656TIP3    H147383   4.246   2.916  13.922  0.5796  1.7737 -0.8724
 8656TIP3    H247384   4.366   2.826  13.901 -1.6096 -2.0844  1.9410
 8657TIP3   OH247385   0.469   6.131  12.860  0.3238 -0.3473  0.1566
 8657TIP3    H147386   0.394   6.176  12.820  2.2327  0.4490 -2.7779
 8657TIP3    H247387   0.469   6.044  12.821 -0.0415 -1.0040  1.5330
 8658TIP3   OH247388   4.616   0.859  13.662  0.0728  0.4045 -0.1319
 8658TIP3    H147389   4.632   0.818  13.747  1.4056 -1.9058 -1.3739
 8658TIP3    H247390   4.542   0.810  13.625  0.4331  0.4084 -0.8804
 8659TIP3   OH247391   0.890   2.499   3.901  0.7554 -0.0066 -0.2206
 8659TIP3    H147392   0.864   2.574   3.955  2.1542  1.0086 -0.8953
 8659TIP3    H247393   0.808   2.468   3.863  0.0470  0.6804  0.6832
 8660TIP3   OH247394   1.578   4.051   2.509 -0.7317  0.5719 -0.7507
 8660TIP3    H147395   1.667   4.084   2.520  0.2990 -1.6334 -1.9894
 8660TIP3    H247396   1.525   4.109   2.564  1.7401  0.6200  1.8377
 8661TIP3   OH247397   1.450   3.694  11.115  0.0982 -0.2295  0.3526
 8661TIP3    H147398   1.369   3.742  11.132 -0.7027 -1.5885  0.5500
 8661TIP3    H247399   1.439   3.658  11.027  1.5467  1.5583 -0.6266
 8662TIP3   OH247400   0.010   1.297  15.839  0.3540 -0.4736 -0.5474
 8662TIP3    H147401  -0.045   1.223  15.814 -0.2597 -0.0101 -0.6054
 8662TIP3    H247402   0.046   1.273  15.924  0.9371 -1.2461 -0.9994
 8663TIP3   OH247403   5.901   1.725  14.276  0.1102  0.1319 -0.8804
 8663TIP3    H147404   5.829   1.680  14.232 -0.1667 -0.4001  0.0810
 8663TIP3    H247405   5.895   1.696  14.367  1.1918  0.5284 -0.6676
 8664TIP3   OH247406   6.216   0.786   0.110 -0.0351  0.0145 -0.1446
 8664TIP3    H147407   6.263   0.867   0.089 -0.9479  0.2676 -1.2811
 8664TIP3    H247408   6.146   0.814   0.169 -0.2112  0.0282 -0.3574
 8665TIP3   OH247409   2.002   6.471  15.017  0.6255  0.4992 -0.5093
 8665TIP3    H147410   2.026   6.489  15.108  0.0273  0.3387 -0.3163
 8665TIP3    H247411   1.907   6.456  15.020  0.8579 -1.2708 -0.8539
 8666TIP3   OH247412   5.109   6.573   0.642  0.4458 -0.2563 -0.4496
 8666TIP3    H147413   5.155   6.514   0.582  2.0619  1.9860 -1.5512
 8666TIP3    H247414   5.177   6.603   0.703 -0.3129  0.5499  0.0246
 8667TIP3   OH247415   2.141   4.623  15.067 -0.2767  0.0618  0.3699
 8667TIP3    H147416   2.051   4.627  15.099 -0.3075  1.9325  0.1980
 8667TIP3    H247417   2.189   4.684  15.123  0.6153 -0.0146 -0.2900
 8668TIP3   OH247418   6.711   6.446   4.926 -0.1950  0.3189  0.3636
 8668TIP3    H147419   6.623   6.483   4.937 -0.5264 -0.2241 -0.3756
 8668TIP3    H247420   6.766   6.498   4.985 -1.0227  0.6127  0.9023
 8669TIP3   OH247421   3.850   3.992   2.932  0.1730  0.0789  0.2816
 8669TIP3    H147422   3.778   3.931   2.947  0.1574  0.0460  0.0783
 8669TIP3    H247423   3.929   3.939   2.942  0.1942  0.2900  1.3096
 8670TIP3   OH247424   5.843   2.586   0.290  0.1517  0.4889  0.2307
 8670TIP3    H147425   5.764   2.531   0.293  0.2924  0.3246  2.5180
 8670TIP3    H247426   5.810   2.675   0.285 -0.2198  0.4177  1.1436
 8671TIP3   OH247427   4.761   1.434   1.059 -0.1889  0.0013  0.4493
 8671TIP3    H147428   4.852   1.463   1.055  0.8715 -2.9996  0.2294
 8671TIP3    H247429   4.729   1.465   1.144  0.3606  2.6574 -0.2187
 8672TIP3   OH247430   4.747   5.621  12.677  0.2228  0.4095  0.8349
 8672TIP3    H147431   4.769   5.552  12.739 -3.9998 -0.8984  1.1601
 8672TIP3    H247432   4.729   5.698  12.731 -0.3885  0.1736  0.9710
 8673TIP3   OH247433   3.338   0.099  13.728 -0.5894 -0.3520  0.1452
 8673TIP3    H147434   3.346   0.028  13.664 -1.5103 -1.1655  0.8907
 8673TIP3    H247435   3.311   0.175  13.677 -0.7204 -0.8283 -0.5162
 8674TIP3   OH247436   2.090   0.681   3.618  0.1587  0.4235 -0.3304
 8674TIP3    H147437   2.060   0.704   3.531 -1.0617 -0.8855 -0.2955
 8674TIP3    H247438   2.033   0.730   3.677 -1.5571 -1.5233 -0.2718
 8675TIP3   OH247439   2.631   1.029  12.280 -0.0164  0.5550 -0.3829
 8675TIP3    H147440   2.654   1.019  12.188  1.0348 -1.9465  0.0675
 8675TIP3    H247441   2.712   1.057  12.323 -0.3532  1.1669 -0.1312
 8676TIP3   OH247442   2.738   1.292   1.274 -0.6064  0.9318  0.2432
 8676TIP3    H147443   2.772   1.248   1.352 -2.2347  1.0244  1.0501
 8676TIP3    H247444   2.719   1.381   1.303 -2.4212  0.6167  0.1267
 8677TIP3   OH247445   6.707   5.175  12.266  0.2098  0.3066 -0.3642
 8677TIP3    H147446   6.707   5.083  12.241  2.9189  0.0600  0.2166
 8677TIP3    H247447   6.663   5.177  12.351 -0.6701 -0.2892 -0.7953
 8678TIP3   OH247448   5.752   6.735  14.072 -0.5174 -0.5382  0.0847
 8678TIP3    H147449   5.757   6.801  14.140  1.2295 -0.8410  0.2825
 8678TIP3    H247450   5.841   6.701  14.064 -1.4776 -3.5178  0.6438
 8679TIP3   OH247451   6.695   1.158  12.700  0.5222  0.8444 -0.1709
 8679TIP3    H147452   6.729   1.129  12.616 -1.9402  2.3255 -1.8106
 8679TIP3    H247453   6.631   1.091  12.725 -0.4283  1.5420 -0.6809
 8680TIP3   OH247454   6.693   1.774  16.800 -0.4143  0.2358 -0.2929
 8680TIP3    H147455   6.788   1.782  16.790 -0.5540  1.2075 -1.0751
 8680TIP3    H247456   6.658   1.800  16.715 -1.4319  1.3643  0.4369
 8681TIP3   OH247457   1.657   1.197  11.592 -0.0722  0.3198  0.1701
 8681TIP3    H147458   1.665   1.218  11.499 -0.0983  0.9260  0.2995
 8681TIP3    H247459   1.727   1.246  11.634 -0.8731  1.1127  0.6211
 8682TIP3   OH247460   3.212   5.075   0.417 -0.5466 -0.5570 -0.2608
 8682TIP3    H147461   3.190   5.159   0.377  0.0794 -0.4894 -0.4790
 8682TIP3    H247462   3.144   5.061   0.483 -1.7115 -0.7742 -1.4802
 8683TIP3   OH247463   0.071   4.060   2.357  0.3091  0.6126  0.4449
 8683TIP3    H147464   0.083   4.009   2.277  2.1634 -0.0276  1.0759
 8683TIP3    H247465  -0.007   4.023   2.398  0.1029  0.0795 -0.4076
 8684TIP3   OH247466   5.987   6.377   3.581  0.1981  0.0666  0.1082
 8684TIP3    H147467   6.078   6.400   3.596  0.0965  0.9953 -0.6305
 8684TIP3    H247468   5.971   6.401   3.490 -0.7866 -0.0743  0.2360
 8685TIP3   OH247469   3.539   3.950   6.010 -0.0486 -0.9974 -0.1932
 8685TIP3    H147470   3.555   4.006   6.086  0.2136  0.2358 -1.1340
 8685TIP3    H247471   3.613   3.888   6.011  1.4375  0.6750 -0.9040
 8686TIP3   OH247472   6.131   3.963  12.572  0.5089  0.0582 -0.0983
 8686TIP3    H147473   6.227   3.966  12.572  0.5206 -0.0435 -1.5425
 8686TIP3    H247474   6.108   3.900  12.505 -0.5903  0.1835  0.1292
 8687TIP3   OH247475   5.392   1.690  13.674 -0.3113  0.5923 -0.0609
 8687TIP3    H147476   5.408   1.607  13.719  0.6566 -0.5229 -2.3020
 8687TIP3    H247477   5.301   1.686  13.648  0.2235 -0.7407 -1.8946
 8688TIP3   OH247478   4.009   3.129  16.172  0.3488  0.2077 -0.0935
 8688TIP3    H147479   3.917   3.149  16.154  0.1418  0.5324  1.2063
 8688TIP3    H247480   4.013   3.118  16.267  1.4082 -1.1094 -0.2629
 8689TIP3   OH247481   2.019   4.209   2.419  0.2505  0.3713 -0.5277
 8689TIP3    H147482   2.109   4.184   2.441  0.4144  1.1573 -0.2541
 8689TIP3    H247483   2.012   4.192   2.325  0.7697  0.5331 -0.6041
 8690TIP3   OH247484   4.257   0.245  14.388 -0.2769 -0.5943  0.2998
 8690TIP3    H147485   4.163   0.264  14.391 -0.0389  0.7115  0.0590
 8690TIP3    H247486   4.296   0.321  14.346  0.9591 -0.8928  0.8462
 8691TIP3   OH247487   2.102   5.494   5.005 -0.6198  0.3389 -0.2502
 8691TIP3    H147488   2.136   5.406   4.989 -0.9118 -0.0068  0.9090
 8691TIP3    H247489   2.100   5.502   5.101  1.3098  2.3608 -0.3132
 8692TIP3   OH247490   2.224   2.255   4.953  0.1405 -0.2047 -0.6971
 8692TIP3    H147491   2.212   2.171   4.999  2.0966 -1.0294 -1.5582
 8692TIP3    H247492   2.311   2.248   4.914  0.0076  1.9290 -1.4939
 8693TIP3   OH247493   3.943   4.260   0.493 -0.5053 -0.3347  0.6047
 8693TIP3    H147494   3.936   4.165   0.496  2.6590 -0.6610  1.4196
 8693TIP3    H247495   4.019   4.277   0.437  0.2416  1.5745  2.0546
 8694TIP3   OH247496   5.407   6.084   5.427 -0.1680  0.1151  0.4410
 8694TIP3    H147497   5.479   6.089   5.491 -0.2471 -2.7616  0.8946
 8694TIP3    H247498   5.344   6.024   5.467 -1.3447  0.1262 -1.3076
 8695TIP3   OH247499   1.256   2.078   6.116 -0.3847 -0.0359  0.5981
 8695TIP3    H147500   1.160   2.072   6.117 -0.3206 -1.2093  0.5170
 8695TIP3    H247501   1.274   2.163   6.076 -1.3810 -0.4040 -0.6990
 8696TIP3   OH247502   2.071   4.002   5.456 -0.0188 -0.2311  0.7317
 8696TIP3    H147503   1.988   3.953   5.461  0.4928 -1.0123  2.9509
 8696TIP3    H247504   2.105   3.999   5.546  2.3145  0.2771 -0.0813
 8697TIP3   OH247505   3.805   2.109  11.171  0.0672  0.0161 -0.6056
 8697TIP3    H147506   3.886   2.150  11.140  0.4479 -1.9282 -2.3453
 8697TIP3    H247507   3.771   2.061  11.095 -0.8193 -2.1346  1.0515
 8698TIP3   OH247508   1.470   4.766   3.944  0.3611 -0.0753 -0.3667
 8698TIP3    H147509   1.412   4.827   3.899 -0.6162 -0.2791  0.5702
 8698TIP3    H247510   1.548   4.817   3.965  0.0733  0.4976 -0.6778
 8699TIP3   OH247511   4.705   6.052  10.628 -0.8554 -0.0795 -0.2789
 8699TIP3    H147512   4.636   5.985  10.619 -0.1432 -0.8199 -0.3452
 8699TIP3    H247513   4.771   6.027  10.564  0.3593 -0.4953  1.0844
 8700TIP3   OH247514   3.570   5.926   3.724 -0.0365 -0.0189 -0.1729
 8700TIP3    H147515   3.615   5.912   3.640  1.2430  1.1608  0.2821
 8700TIP3    H247516   3.587   5.846   3.774 -0.0751 -0.3724 -0.7192
 8701TIP3   OH247517   5.546   5.218   5.613 -0.5465  0.2140  0.0279
 8701TIP3    H147518   5.563   5.157   5.685 -0.5166  1.6276  1.2676
 8701TIP3    H247519   5.632   5.236   5.576 -0.5286 -0.3073 -0.1895
 8702TIP3   OH247520   4.431   2.808  14.141  0.1218 -0.5848 -0.1298
 8702TIP3    H147521   4.363   2.871  14.118  0.4095 -1.0799 -2.5376
 8702TIP3    H247522   4.404   2.726  14.101  1.0423 -1.3707  0.7710
 8703TIP3   OH247523   4.433   4.113   2.021 -0.0452 -0.1826  0.7493
 8703TIP3    H147524   4.419   4.171   1.946  1.0327 -0.4752  0.3024
 8703TIP3    H247525   4.513   4.145   2.062 -0.1630 -0.5450  1.2694
 8704TIP3   OH247526   2.404   2.025  16.743  0.0487 -0.5573  0.1254
 8704TIP3    H147527   2.386   1.995  16.832  1.4112 -0.8353  0.3271
 8704TIP3    H247528   2.361   1.962  16.686 -1.1873 -0.1447  0.5781
 8705TIP3   OH247529   3.953   6.452   4.795  0.8028  0.3105 -0.1229
 8705TIP3    H147530   4.008   6.455   4.716  2.4929  1.0576  1.0248
 8705TIP3    H247531   3.984   6.375   4.842  0.3774  0.3395  0.2066
 8706TIP3   OH247532   4.639   2.635  13.166  0.3601  0.2807  0.0594
 8706TIP3    H147533   4.582   2.563  13.138 -0.6018  0.7042  0.8906
 8706TIP3    H247534   4.588   2.714  13.148  1.7733  0.8607 -1.7317
 8707TIP3   OH247535   1.978   3.725   1.336  0.3547 -0.0422  0.5795
 8707TIP3    H147536   1.967   3.651   1.395  2.9469 -0.7486  0.2824
 8707TIP3    H247537   2.071   3.724   1.312 -0.2063  1.3406 -2.0377
 8708TIP3   OH247538   1.509   1.621  14.575 -0.1888 -0.1921 -0.1962
 8708TIP3    H147539   1.564   1.545  14.596  0.4041  0.8597  2.3944
 8708TIP3    H247540   1.555   1.663  14.502  1.2383 -0.5970  0.4159
 8709TIP3   OH247541   0.615   2.802   2.672 -0.0282 -1.1064  0.0215
 8709TIP3    H147542   0.545   2.859   2.640  0.6089 -0.6512 -0.5985
 8709TIP3    H247543   0.692   2.830   2.624  1.1636  0.0999  2.4824
 8710TIP3   OH247544   6.081   0.422   0.763  0.0418  0.0243  0.1112
 8710TIP3    H147545   6.128   0.473   0.697 -0.7458  0.5555 -0.0643
 8710TIP3    H247546   6.037   0.488   0.817  0.1439 -0.4304  0.7587
 8711TIP3   OH247547   3.092   6.422   3.830 -0.0090  0.1852 -0.4491
 8711TIP3    H147548   3.146   6.344   3.817 -0.3033 -0.2388  0.7421
 8711TIP3    H247549   3.023   6.415   3.765  1.0410  0.4429 -1.6159
 8712TIP3   OH247550   0.812   1.840  14.547  0.1143 -0.2157  0.2856
 8712TIP3    H147551   0.789   1.899  14.475 -1.3586 -0.8486  0.2025
 8712TIP3    H247552   0.811   1.752  14.507  0.4476 -0.4640  0.8136
 8713TIP3   OH247553   5.344   5.796  12.230 -0.5287 -0.0503 -0.2869
 8713TIP3    H147554   5.372   5.787  12.321  1.6978 -0.1842 -0.9256
 8713TIP3    H247555   5.353   5.708  12.193  2.2704  0.6324 -1.5299
 8714TIP3   OH247556   6.194   6.130  10.786 -0.2988 -0.3092 -0.4216
 8714TIP3    H147557   6.277   6.102  10.747 -0.0606 -0.8951  0.4686
 8714TIP3    H247558   6.220   6.181  10.863 -0.7597 -0.9213  0.1521
 8715TIP3   OH247559   2.265   6.350   5.432 -0.6115 -0.2118  0.2079
 8715TIP3    H147560   2.315   6.273   5.459 -0.8529 -0.6976 -0.6983
 8715TIP3    H247561   2.323   6.424   5.453 -0.9293 -0.5150  2.3437
 8716TIP3   OH247562   6.654   5.531   3.831 -0.0378  0.2735  0.1277
 8716TIP3    H147563   6.652   5.607   3.773 -3.0005 -0.5598 -0.9969
 8716TIP3    H247564   6.644   5.567   3.919 -2.1842  1.2152 -0.4495
 8717TIP3   OH247565   6.744   0.599  17.227 -0.1879  0.4494 -0.4665
 8717TIP3    H147566   6.810   0.655  17.267  1.3924 -2.2433  0.9915
 8717TIP3    H247567   6.749   0.618  17.134  3.2300 -0.0941 -0.5317
 8718TIP3   OH247568   4.677   5.090  15.794  0.1860 -0.0222 -0.0860
 8718TIP3    H147569   4.641   5.170  15.757 -0.8967 -0.3705  0.1850
 8718TIP3    H247570   4.742   5.120  15.859 -1.1206  0.6841  0.9363
 8719TIP3   OH247571   2.188   4.256   3.217 -0.4323  0.5338 -0.6170
 8719TIP3    H147572   2.100   4.294   3.217 -0.6154  0.1259 -0.5974
 8719TIP3    H247573   2.204   4.234   3.309 -0.8003 -0.4643 -0.7687
 8720TIP3   OH247574   3.454   1.064   1.458 -0.1202 -0.5034  0.2052
 8720TIP3    H147575   3.409   1.079   1.375  0.7601 -1.1600 -0.4050
 8720TIP3    H247576   3.434   0.974   1.481  1.7281 -1.1700 -0.6370
 8721TIP3   OH247577   2.059   3.405  13.148 -0.8105  0.4042  0.3931
 8721TIP3    H147578   2.048   3.312  13.166 -0.1732  0.2120 -0.1623
 8721TIP3    H247579   2.107   3.408  13.065  0.6221  1.2004  1.2135
 8722TIP3   OH247580   5.614   4.052  12.080 -0.6403  0.4755  0.1515
 8722TIP3    H147581   5.654   4.112  12.143  0.4397 -0.9961  0.9381
 8722TIP3    H247582   5.551   4.105  12.032 -0.7378  1.8945  1.7676
 8723TIP3   OH247583   3.790   6.087   2.587  0.0361 -0.1797 -0.4732
 8723TIP3    H147584   3.762   6.064   2.498 -0.7813 -0.8802 -0.0464
 8723TIP3    H247585   3.801   6.004   2.631  0.6038  0.1640  0.0441
 8724TIP3   OH247586   5.985   0.072   1.825 -0.2398  0.1492 -0.0783
 8724TIP3    H147587   6.046   0.047   1.755  0.4607 -0.5415  0.7585
 8724TIP3    H247588   5.965  -0.010   1.869  1.2556  0.8492  2.0610
 8725TIP3   OH247589   3.163   6.540  12.523 -0.0813  0.1677 -0.4421
 8725TIP3    H147590   3.079   6.512  12.561  0.3235  0.5932  0.8255
 8725TIP3    H247591   3.222   6.547  12.598  0.9610  0.3691 -1.2550
 8726TIP3   OH247592   5.421   1.419  17.222 -0.1780  0.0292 -0.0774
 8726TIP3    H147593   5.403   1.332  17.257  0.7340 -0.0508  0.2330
 8726TIP3    H247594   5.429   1.475  17.299 -0.8615  0.4096 -0.2803
 8727TIP3   OH247595   2.379   5.688   3.374  0.3283  0.3251  0.3806
 8727TIP3    H147596   2.311   5.660   3.436  0.5923 -0.7283  0.2187
 8727TIP3    H247597   2.366   5.633   3.297  0.1769  1.4358 -0.4121
 8728TIP3   OH247598   0.964   6.700   4.204  0.3166 -0.5717 -0.6197
 8728TIP3    H147599   0.870   6.697   4.221  0.6150 -1.2658  1.1135
 8728TIP3    H247600   0.988   6.610   4.182  0.5487 -0.3539 -1.2864
 8729TIP3   OH247601   3.145   3.643  13.192 -0.0326 -0.6941  0.1016
 8729TIP3    H147602   3.165   3.551  13.207  0.3992 -0.7195 -0.5589
 8729TIP3    H247603   3.074   3.642  13.128 -1.9492 -0.5934  2.0924
 8730TIP3   OH247604   2.676   0.056  12.912 -0.0134 -0.0384 -0.4511
 8730TIP3    H147605   2.626   0.138  12.907 -0.2964  0.1150  2.8487
 8730TIP3    H247606   2.616  -0.010  12.878 -1.0237  0.6866 -0.1519
 8731TIP3   OH247607   5.822   1.937  15.689  0.6174 -0.1588  0.3312
 8731TIP3    H147608   5.816   1.950  15.595 -0.1357 -0.0144  0.3943
 8731TIP3    H247609   5.881   1.862  15.699 -1.1550 -1.7252 -0.3819
 8732TIP3   OH247610   3.242   1.343  13.519  0.2659 -0.1090 -0.2330
 8732TIP3    H147611   3.332   1.314  13.503  0.1117 -0.2088 -0.9707
 8732TIP3    H247612   3.231   1.335  13.614  1.0678  0.0047 -0.1163
 8733TIP3   OH247613   2.418   1.987   2.463 -0.5179  0.2953 -0.0350
 8733TIP3    H147614   2.432   2.008   2.371  0.5093  2.1635  0.5001
 8733TIP3    H247615   2.496   1.938   2.489 -1.0933 -0.7939 -0.2753
 8734TIP3   OH247616   1.441   1.614   5.891 -0.0249 -0.6193 -0.5823
 8734TIP3    H147617   1.397   1.567   5.820 -1.1149  0.7774 -0.9060
 8734TIP3    H247618   1.372   1.628   5.956  0.5677 -0.5220  0.0302
 8735TIP3   OH247619   1.267   5.500  13.510  0.2345 -0.3634 -0.0455
 8735TIP3    H147620   1.229   5.544  13.433 -1.5075 -0.9205  0.4585
 8735TIP3    H247621   1.337   5.446  13.474 -0.3104 -0.3382 -1.2021
 8736TIP3   OH247622   4.907   2.698  12.832  0.2628  0.5416 -0.7219
 8736TIP3    H147623   4.841   2.672  12.767  1.4496 -0.3398 -1.6150
 8736TIP3    H247624   4.973   2.629  12.828  0.2349  0.3051  1.6682
 8737TIP3   OH247625   3.551   1.578  14.280  0.1478  0.2425 -0.2024
 8737TIP3    H147626   3.477   1.524  14.310  1.3049 -2.4486 -1.8383
 8737TIP3    H247627   3.518   1.622  14.201 -0.1594  0.2364 -0.0789
 8738TIP3   OH247628   5.404   4.794  15.321 -0.1553 -0.1128  0.3106
 8738TIP3    H147629   5.339   4.728  15.347 -0.2128 -1.2767 -2.4265
 8738TIP3    H247630   5.352   4.864  15.282  0.1160 -0.4874 -0.7618
 8739TIP3   OH247631   4.024   2.703   3.138  1.0653 -0.0544  0.2664
 8739TIP3    H147632   4.027   2.671   3.048  1.2001 -0.6999  0.4940
 8739TIP3    H247633   4.026   2.798   3.130 -0.8853 -0.0423 -0.4893
 8740TIP3   OH247634   6.297   2.094  15.337 -0.2303 -0.3267  0.0746
 8740TIP3    H147635   6.328   2.183  15.352 -1.1517  0.2944 -1.5014
 8740TIP3    H247636   6.202   2.103  15.331 -0.4032 -1.5532  0.6649
 8741TIP3   OH247637   5.063   2.135   3.098  0.0448 -0.1564 -0.3589
 8741TIP3    H147638   5.110   2.061   3.137  0.0753  0.0010 -0.0979
 8741TIP3    H247639   5.127   2.177   3.041  0.3720  0.3600  0.3860
 8742TIP3   OH247640   0.313   6.348   4.764  0.1500  0.2485 -0.4454
 8742TIP3    H147641   0.296   6.254   4.769 -0.6314  0.3609 -0.6983
 8742TIP3    H247642   0.365   6.368   4.842  0.1016 -0.3464 -0.2553
 8743TIP3   OH247643   1.686   5.927   5.318 -0.2367  0.2787  0.5105
 8743TIP3    H147644   1.641   5.983   5.381 -0.0231 -0.0348  0.9432
 8743TIP3    H247645   1.679   5.974   5.235  0.8053  1.4280  1.0451
 8744TIP3   OH247646   3.105   2.912  14.035 -0.4809 -0.2539  0.3328
 8744TIP3    H147647   3.009   2.907  14.039 -0.5442 -0.0687 -0.7017
 8744TIP3    H247648   3.128   2.987  14.090 -1.1425  1.2928 -1.3763
 8745TIP3   OH247649   1.998   5.877   2.938 -0.0287 -0.2054  0.0391
 8745TIP3    H147650   1.968   5.967   2.935  1.4499  0.2853 -1.1200
 8745TIP3    H247651   2.050   5.871   3.018  1.1370  0.4221 -0.6495
 8746TIP3   OH247652   2.602   6.376  16.218  0.3115  0.4911  0.1329
 8746TIP3    H147653   2.637   6.317  16.151 -0.0812  0.5812 -0.1562
 8746TIP3    H247654   2.557   6.318  16.280 -0.7766  0.5426 -0.5834
 8747TIP3   OH247655   0.340   1.712  11.814  0.4104  0.1875 -0.1141
 8747TIP3    H147656   0.422   1.687  11.856  0.4558  0.5853  0.0356
 8747TIP3    H247657   0.274   1.655  11.853  0.4685  0.4886  0.4207
 8748TIP3   OH247658   0.400   2.991  13.693  0.4569 -0.1240 -0.5553
 8748TIP3    H147659   0.371   2.950  13.612 -0.3938  0.1827 -0.4111
 8748TIP3    H247660   0.351   2.946  13.762  0.9346 -0.1638 -0.2334
 8749TIP3   OH247661   3.359   5.898   5.984 -0.2504 -0.1425 -0.0396
 8749TIP3    H147662   3.381   5.932   6.071  0.5529 -0.0707 -0.2659
 8749TIP3    H247663   3.318   5.813   6.002 -0.3814  0.0114  0.4180
 8750TIP3   OH247664   1.866   2.194  16.742  0.3083  0.1533 -0.3856
 8750TIP3    H147665   1.782   2.170  16.781  0.4636 -0.2582 -0.2932
 8750TIP3    H247666   1.918   2.227  16.815 -0.2760  1.8277 -0.7006
 8751TIP3   OH247667   2.682   2.073  11.637  0.1395  0.0498  0.3268
 8751TIP3    H147668   2.745   2.035  11.575 -0.1914  1.5948 -1.0295
 8751TIP3    H247669   2.687   2.016  11.714  0.1483 -2.2879 -1.3118
 8752TIP3   OH247670   4.638   6.461   1.706  0.0684 -0.0338  0.3992
 8752TIP3    H147671   4.600   6.492   1.624  0.7081  1.8274  0.7676
 8752TIP3    H247672   4.731   6.484   1.699  0.6536 -2.0658  0.6522
 8753TIP3   OH247673   6.321   6.568   2.419  0.0099  0.1591  0.0041
 8753TIP3    H147674   6.317   6.479   2.384  2.0535  0.2210 -0.5546
 8753TIP3    H247675   6.384   6.562   2.491 -0.7900  0.9233  0.7939
 8754TIP3   OH247676   3.348   6.378  17.145 -0.5115 -0.6310 -0.4208
 8754TIP3    H147677   3.281   6.437  17.113  0.2043 -0.0879 -0.9418
 8754TIP3    H247678   3.313   6.290  17.129 -1.9094 -0.3894  1.0486
 8755TIP3   OH247679   1.330   4.521  10.574 -0.2190  0.5496  0.2409
 8755TIP3    H147680   1.285   4.589  10.525  0.5746 -0.0944 -1.4691
 8755TIP3    H247681   1.272   4.445  10.569  0.0403  0.3695 -0.0243
 8756TIP3   OH247682   1.341   6.626   1.952  0.2715 -0.1379 -0.3186
 8756TIP3    H147683   1.318   6.706   2.000  1.8914  0.2412 -0.1142
 8756TIP3    H247684   1.432   6.639   1.928 -0.8892  0.6166 -5.3278
 8757TIP3   OH247685   4.543   0.721  13.314  0.0329  0.4113 -0.6928
 8757TIP3    H147686   4.484   0.685  13.380  0.2530  1.3090  0.0240
 8757TIP3    H247687   4.616   0.758  13.364  0.9057 -0.1189 -1.5251
 8758TIP3   OH247688   1.716   4.836   4.666 -0.2647 -0.0883 -0.8254
 8758TIP3    H147689   1.660   4.870   4.736  2.1819 -2.2203  2.4937
 8758TIP3    H247690   1.769   4.912   4.639 -0.2426  0.4949  0.7420
 8759TIP3   OH247691   2.879   0.711  13.663  0.8361  0.0179 -0.3214
 8759TIP3    H147692   2.908   0.794  13.702 -1.0540  0.6036 -0.0463
 8759TIP3    H247693   2.938   0.698  13.589  1.7743  1.1035  0.1913
 8760TIP3   OH247694   1.370   1.475   0.958  1.2825 -0.0177  0.3688
 8760TIP3    H147695   1.372   1.390   0.914 -0.9656  0.6544 -1.2527
 8760TIP3    H247696   1.312   1.462   1.033 -1.0548  0.5235 -1.2185
 8761TIP3   OH247697   6.079   2.614  14.183  0.3037 -0.4688  0.4403
 8761TIP3    H147698   6.030   2.613  14.101 -1.6026 -1.2035  1.5063
 8761TIP3    H247699   6.132   2.535  14.181  1.4345  0.2867 -0.6956
 8762TIP3   OH247700   6.517   6.619  13.989  0.0344  0.3214  0.5784
 8762TIP3    H147701   6.595   6.567  14.005 -0.3156  0.2917  2.3994
 8762TIP3    H247702   6.542   6.679  13.918  0.7196 -1.6629 -0.9309
 8763TIP3   OH247703   3.810   2.941   4.590 -1.0954 -0.5494 -0.1672
 8763TIP3    H147704   3.728   2.955   4.542 -1.7139 -0.1803  0.9456
 8763TIP3    H247705   3.868   3.011   4.559 -1.7874  0.2266  0.2617
 8764TIP3   OH247706   2.086   3.981  13.007  0.3602  0.1228 -0.5097
 8764TIP3    H147707   2.083   4.025  12.922  1.8762  1.0113 -0.1304
 8764TIP3    H247708   2.176   3.952  13.017 -0.3703 -2.2865 -0.3056
 8765TIP3   OH247709   6.395   5.878  15.429  0.4171  0.0053  0.1717
 8765TIP3    H147710   6.459   5.869  15.359 -0.5623  1.5057 -0.9819
 8765TIP3    H247711   6.423   5.956  15.477 -1.9326  2.4453 -2.0551
 8766TIP3   OH247712   2.700   4.800  14.019 -0.0115  0.0671  0.2799
 8766TIP3    H147713   2.735   4.862  14.083  0.1598 -1.5375  1.8231
 8766TIP3    H247714   2.776   4.748  13.992 -0.1486  0.4767 -0.9930
 8767TIP3   OH247715   6.147   0.842  15.225 -0.4680  0.3847 -0.4858
 8767TIP3    H147716   6.215   0.891  15.271  0.7393 -2.3408  0.8512
 8767TIP3    H247717   6.107   0.906  15.166  0.6681  3.0445  1.4212
 8768TIP3   OH247718   2.750   6.466  14.467  0.2413 -0.2286 -0.3683
 8768TIP3    H147719   2.707   6.437  14.548 -0.5444 -1.1069 -1.0691
 8768TIP3    H247720   2.796   6.546  14.491  2.4029 -1.9508  1.6413
 8769TIP3   OH247721   2.649   4.499  14.579 -0.4268  0.7954 -0.2467
 8769TIP3    H147722   2.704   4.479  14.655  1.4732  0.3749 -1.6502
 8769TIP3    H247723   2.625   4.413  14.545 -1.9454  0.9780  0.3042
 8770TIP3   OH247724   4.221   2.028   2.413 -0.0994 -0.5169  0.0135
 8770TIP3    H147725   4.247   2.117   2.434 -1.4632 -0.6648  2.8614
 8770TIP3    H247726   4.286   1.973   2.457 -0.5351 -0.9032  0.1808
 8771TIP3   OH247727   3.161   4.867   3.594  0.0381 -0.7143  0.3652
 8771TIP3    H147728   3.201   4.812   3.662  0.9221 -2.0801 -1.1762
 8771TIP3    H247729   3.071   4.837   3.589  0.0881 -0.9186  0.6240
 8772TIP3   OH247730   4.006   4.346  15.205  0.5808 -0.4307  0.2127
 8772TIP3    H147731   3.934   4.312  15.257 -0.5876  0.8299 -0.5084
 8772TIP3    H247732   4.084   4.304  15.241 -0.1516  0.3500  2.9391
 8773TIP3   OH247733   3.536   3.406  16.761 -0.7468 -0.3207 -0.4187
 8773TIP3    H147734   3.516   3.324  16.806  0.4066  0.0799  0.9239
 8773TIP3    H247735   3.460   3.462  16.779 -0.0247  0.0833  1.7826
 8774TIP3   OH247736   2.616   4.320   5.024  0.4488 -0.2494  0.3467
 8774TIP3    H147737   2.618   4.334   5.119 -1.6384  0.2166  0.3750
 8774TIP3    H247738   2.702   4.348   4.994  2.0460 -2.5566  2.3375
 8775TIP3   OH247739   5.323   5.327   2.598  0.0444 -0.3838 -0.3231
 8775TIP3    H147740   5.257   5.395   2.607  0.5461  0.2457 -1.2872
 8775TIP3    H247741   5.397   5.359   2.650  0.3223 -0.1331 -0.8695
 8776TIP3   OH247742   4.890   1.439   5.270 -0.3606 -0.5190 -0.0074
 8776TIP3    H147743   4.822   1.380   5.301  0.8144 -1.4782  0.8322
 8776TIP3    H247744   4.853   1.527   5.283 -0.7332 -0.9501  2.2391
 8777TIP3   OH247745   6.289   4.248  11.956  0.6785  0.3012 -0.1406
 8777TIP3    H147746   6.359   4.228  11.893 -0.0894  2.0707 -1.6428
 8777TIP3    H247747   6.297   4.342  11.972  0.5363 -0.0160  2.0852
 8778TIP3   OH247748   1.725   0.219   0.508 -0.6487  0.0785 -0.9214
 8778TIP3    H147749   1.678   0.256   0.432 -1.0559  0.4751 -0.4859
 8778TIP3    H247750   1.696   0.128   0.511  0.4156 -0.3220 -2.0459
 8779TIP3   OH247751   1.002   4.219  12.898  0.2996 -0.1922  0.1525
 8779TIP3    H147752   1.015   4.303  12.853 -0.2160  0.7986  1.7772
 8779TIP3    H247753   1.036   4.233  12.986  0.3540 -1.7619  0.4099
 8780TIP3   OH247754   5.476   4.729  12.405  0.3114  0.0075 -0.0968
 8780TIP3    H147755   5.473   4.809  12.456 -1.3037  0.2079 -0.4395
 8780TIP3    H247756   5.507   4.662  12.466  0.9838  0.7455  0.3854
 8781TIP3   OH247757   6.556   0.950  15.087 -0.4399 -0.1441  0.1534
 8781TIP3    H147758   6.529   1.022  15.030 -0.7213 -0.9535 -0.7524
 8781TIP3    H247759   6.529   0.871  15.041 -0.0655 -0.8454  1.0990
 8782TIP3   OH247760   3.654   1.338   6.649  0.5040  0.3060  0.0330
 8782TIP3    H147761   3.660   1.423   6.692  0.2799  0.4800 -0.2723
 8782TIP3    H247762   3.573   1.342   6.599  0.0412 -0.4174  0.7104
 8783TIP3   OH247763   1.659   2.381   1.893  0.2165  0.1493  0.1535
 8783TIP3    H147764   1.686   2.295   1.925  0.5460 -0.4697 -1.6821
 8783TIP3    H247765   1.624   2.425   1.971  0.7411 -1.3405  1.2949
 8784TIP3   OH247766   0.559   6.342  11.044  0.0696 -0.4062 -0.3860
 8784TIP3    H147767   0.628   6.393  11.088 -1.1216  0.4415  0.5760
 8784TIP3    H247768   0.598   6.256  11.031  0.9125 -0.3307  1.2935
 8785TIP3   OH247769   1.643   0.364   1.467  0.6468  0.0311  0.0065
 8785TIP3    H147770   1.667   0.456   1.454  1.5805 -0.0659  0.8557
 8785TIP3    H247771   1.713   0.329   1.523 -1.0767 -0.5048  1.9437
 8786TIP3   OH247772   2.523   0.107   5.691  0.5690 -0.4030 -0.0707
 8786TIP3    H147773   2.509   0.040   5.759  0.9932 -1.0387 -0.5912
 8786TIP3    H247774   2.597   0.158   5.723  2.2804 -2.1134 -1.0499
 8787TIP3   OH247775   2.223   6.060  13.058 -0.3717 -0.6117  0.3015
 8787TIP3    H147776   2.296   6.043  13.118 -1.5723 -2.5593  1.3274
 8787TIP3    H247777   2.229   5.989  12.994  1.1291  1.6488 -2.2757
 8788TIP3   OH247778   4.075   5.474  12.874  0.0297 -0.7780 -0.2483
 8788TIP3    H147779   4.106   5.392  12.836 -2.3834 -1.8732 -0.0907
 8788TIP3    H247780   4.138   5.495  12.942  2.0148 -1.1686 -1.8850
 8789TIP3   OH247781   1.620   3.987   2.249 -0.1313 -0.4535 -0.0406
 8789TIP3    H147782   1.572   4.043   2.189  1.0972 -1.9110 -2.5367
 8789TIP3    H247783   1.559   3.974   2.323 -2.6662 -0.4098 -1.9860
 8790TIP3   OH247784   0.384   2.826   4.017  0.0878  0.2976 -0.0666
 8790TIP3    H147785   0.428   2.849   4.098 -1.3743 -0.9834  1.1354
 8790TIP3    H247786   0.313   2.890   4.010  0.0917  0.2831 -0.2501
 8791TIP3   OH247787   2.558   6.261  12.138 -0.0330 -0.2680 -0.3510
 8791TIP3    H147788   2.550   6.247  12.043 -0.3072  0.6984 -0.4803
 8791TIP3    H247789   2.651   6.278  12.151  0.1080 -1.0147 -0.3556
 8792TIP3   OH247790   6.109   1.495   1.788  0.7737 -0.1406 -0.0140
 8792TIP3    H147791   6.061   1.536   1.716  1.2585  1.5657  0.5908
 8792TIP3    H247792   6.180   1.448   1.744  0.7947  0.5054 -0.7077
 8793TIP3   OH247793   3.633   6.661   2.430  0.1848 -0.2243 -0.2645
 8793TIP3    H147794   3.613   6.596   2.497  0.1733 -0.4631 -0.5001
 8793TIP3    H247795   3.547   6.687   2.396  0.2778 -2.8208 -2.7893
 8794TIP3   OH247796   2.686   0.826   6.748 -0.1358 -0.2742 -1.0200
 8794TIP3    H147797   2.606   0.850   6.794  0.6279  1.1056 -0.3473
 8794TIP3    H247798   2.690   0.887   6.674  0.1595 -0.5253 -1.2163
 8795TIP3   OH247799   5.203   4.925   5.296 -0.5122 -0.3081 -0.1676
 8795TIP3    H147800   5.160   4.967   5.222  0.5699 -0.5819 -0.9842
 8795TIP3    H247801   5.138   4.927   5.366 -0.7797  2.0040 -0.4049
 8796TIP3   OH247802   3.514   2.760  16.180  0.0457  0.0964  0.6830
 8796TIP3    H147803   3.544   2.689  16.238 -0.2979 -0.3316  0.3346
 8796TIP3    H247804   3.419   2.761  16.190  0.0318  0.3753  0.5291
 8797TIP3   OH247805   4.895   2.206   3.719 -0.5130  0.0953 -0.4853
 8797TIP3    H147806   4.838   2.250   3.656 -0.7489  1.8695  0.8473
 8797TIP3    H247807   4.956   2.275   3.747  0.5803 -1.0606  0.0572
 8798TIP3   OH247808   3.997   2.082  12.101  0.2985 -0.0732 -0.2116
 8798TIP3    H147809   3.988   2.148  12.032 -2.0630  0.5113  0.5777
 8798TIP3    H247810   4.003   2.132  12.182  1.2042 -0.8032  0.1928
 8799TIP3   OH247811   4.286   0.341  15.059 -0.2102  0.5221 -0.5503
 8799TIP3    H147812   4.311   0.365  15.148 -0.5005 -0.4248 -0.1973
 8799TIP3    H247813   4.204   0.293  15.070  0.5683 -1.0149 -1.1568
 8800TIP3   OH247814   0.248   0.522  13.525 -0.4750 -0.2246  0.5482
 8800TIP3    H147815   0.297   0.475  13.457  0.1577  1.2049 -0.0172
 8800TIP3    H247816   0.306   0.521  13.602  0.4425  1.3500 -0.0800
 8801TIP3   OH247817   1.251   5.035   1.765 -0.1360  0.7608  0.3605
 8801TIP3    H147818   1.249   4.984   1.845  0.0135  0.8843  0.4428
 8801TIP3    H247819   1.212   4.978   1.698  2.0018 -0.2973 -0.0524
 8802TIP3   OH247820   0.746   4.619  11.102  0.0545  0.8110 -0.4016
 8802TIP3    H147821   0.686   4.647  11.172  1.2866 -0.5603  1.2793
 8802TIP3    H247822   0.827   4.667  11.119  0.9811 -0.9379  0.2965
 8803TIP3   OH247823   4.037   5.087   0.402 -0.0682 -0.6185 -0.0511
 8803TIP3    H147824   4.030   5.169   0.450  2.0757  0.1677 -0.9276
 8803TIP3    H247825   3.986   5.101   0.322  1.3092  0.4309 -0.8087
 8804TIP3   OH247826   1.442   6.126  11.704  0.6642  0.3186  0.3190
 8804TIP3    H147827   1.484   6.049  11.665 -2.4056 -1.0742 -0.5057
 8804TIP3    H247828   1.418   6.181  11.629 -0.3908  0.2880  0.6233
 8805TIP3   OH247829   6.176   2.109  13.133  0.4364  0.3104 -0.2257
 8805TIP3    H147830   6.110   2.052  13.173  1.3072 -0.3893  0.2573
 8805TIP3    H247831   6.177   2.188  13.188  0.7953 -0.1573  0.4641
 8806TIP3   OH247832   5.456   4.264   3.292  0.7243  0.2699 -0.0280
 8806TIP3    H147833   5.397   4.336   3.313 -0.9574 -1.0052 -0.0812
 8806TIP3    H247834   5.413   4.220   3.218  2.2389 -0.1885 -0.6738
 8807TIP3   OH247835   4.599   2.614  15.942 -0.1420 -0.3069 -0.3593
 8807TIP3    H147836   4.558   2.632  15.858  0.0552  0.4717 -0.2958
 8807TIP3    H247837   4.554   2.671  16.004  0.0498 -0.5123 -0.0287
 8808TIP3   OH247838   4.167   2.105  13.087  0.0868 -0.0938 -0.2609
 8808TIP3    H147839   4.094   2.106  13.025 -0.5387 -1.4091  0.4028
 8808TIP3    H247840   4.132   2.147  13.165  0.2709 -0.1105 -0.1698
 8809TIP3   OH247841   4.469   1.089  15.605 -0.1637  0.0415 -0.4456
 8809TIP3    H147842   4.468   1.185  15.607  0.1089  0.0380  0.0967
 8809TIP3    H247843   4.419   1.066  15.527 -0.0969  0.6293 -0.6648
 8810TIP3   OH247844   4.488   1.207  14.673  0.7235 -0.4997  0.2415
 8810TIP3    H147845   4.524   1.189  14.760  0.9414 -0.4441  0.1637
 8810TIP3    H247846   4.467   1.121  14.637 -0.5869 -0.4568  0.8625
 8811TIP3   OH247847   3.834   4.308   2.315 -0.1136  0.2458 -0.2601
 8811TIP3    H147848   3.743   4.296   2.343  0.4005 -1.0376  0.9597
 8811TIP3    H247849   3.886   4.276   2.388  1.3226 -0.0359 -1.3647
 8812TIP3   OH247850   6.544   3.481  12.292  0.0323  0.0705  0.1151
 8812TIP3    H147851   6.493   3.432  12.356 -1.8051 -0.2129 -1.4707
 8812TIP3    H247852   6.531   3.573  12.316  0.6861 -0.0727  1.0719
 8813TIP3   OH247853   2.930   0.085   5.273 -0.6089  0.0385  0.2404
 8813TIP3    H147854   2.904   0.121   5.188  0.1986  3.2910  1.2521
 8813TIP3    H247855   2.859   0.108   5.332 -0.1885 -0.3208  0.9001
 8814TIP3   OH247856   4.201   0.883   5.061 -0.5433 -0.0463  0.2925
 8814TIP3    H147857   4.222   0.823   4.989 -1.3498  0.9718 -0.8430
 8814TIP3    H247858   4.219   0.833   5.140 -0.6478 -1.5830 -0.6154
 8815TIP3   OH247859   4.071   1.237   2.383  0.0340 -0.2642 -0.7700
 8815TIP3    H147860   4.134   1.294   2.339  0.2967  0.1567  0.1375
 8815TIP3    H247861   3.997   1.294   2.403  0.7006  0.0135  1.0148
 8816TIP3   OH247862   6.495   5.792   3.354  0.7406 -1.2249  0.3287
 8816TIP3    H147863   6.400   5.800   3.355  0.7515 -0.6514 -1.1629
 8816TIP3    H247864   6.514   5.730   3.284  1.4729 -1.1618  0.4583
 8817TIP3   OH247865   6.454   3.852  14.352 -0.0156 -0.4570  0.2133
 8817TIP3    H147866   6.389   3.783  14.338  0.7095 -0.7325 -2.1316
 8817TIP3    H247867   6.494   3.831  14.436 -1.2835 -1.6397  0.5522
 8818TIP3   OH247868   5.261   3.557   0.094 -0.2503 -0.4586  0.2336
 8818TIP3    H147869   5.335   3.497   0.083  1.5847  1.4456  1.6087
 8818TIP3    H247870   5.288   3.637   0.050 -2.2019 -0.2094 -0.6039
 8819TIP3   OH247871   6.036   3.641  12.151 -0.1198 -0.1893 -1.0106
 8819TIP3    H147872   6.022   3.724  12.104 -0.8513 -0.0112 -0.4886
 8819TIP3    H247873   5.950   3.598  12.150  0.4471 -1.3927 -2.0875
 8820TIP3   OH247874   1.915   2.367   4.519  0.3119 -0.0517 -0.6555
 8820TIP3    H147875   1.881   2.380   4.431 -1.7205  0.1411  0.1059
 8820TIP3    H247876   1.862   2.297   4.556  1.9963 -1.0476  0.0104
 8821TIP3   OH247877   1.086   6.497   4.047  0.5871 -0.0055  0.4772
 8821TIP3    H147878   1.181   6.488   4.060  0.4536  0.0069  1.5426
 8821TIP3    H247879   1.078   6.539   3.961  1.6110  1.2847  0.9642
 8822TIP3   OH247880   1.568   0.498  14.793 -0.3724  0.2966 -0.3581
 8822TIP3    H147881   1.561   0.570  14.731 -1.9683  1.6442  1.3142
 8822TIP3    H247882   1.531   0.423  14.746 -0.4601  0.9903 -1.4436
 8823TIP3   OH247883   6.597   5.983  13.952  0.6865  0.0907  0.4933
 8823TIP3    H147884   6.529   5.922  13.979  2.2217 -1.2591  1.4605
 8823TIP3    H247885   6.604   5.971  13.857  1.0619 -1.3724  0.6890
 8824TIP3   OH247886   1.403   6.353  12.660 -0.8671 -0.1714 -0.7899
 8824TIP3    H147887   1.402   6.430  12.603 -0.4038 -0.3001 -0.9785
 8824TIP3    H247888   1.490   6.315  12.648  0.3630  1.3846  2.1448
 8825TIP3   OH247889   1.800   4.263   3.598  0.0033 -0.1292 -0.0788
 8825TIP3    H147890   1.748   4.193   3.638  1.3032 -1.7545 -1.0863
 8825TIP3    H247891   1.823   4.228   3.512 -0.6879  2.2568 -1.3136
 8826TIP3   OH247892   6.540   1.700   1.828  0.7735  0.0808  0.6438
 8826TIP3    H147893   6.457   1.674   1.868  0.8460  0.9029  1.3644
 8826TIP3    H247894   6.568   1.624   1.778  1.1000 -1.3310  2.8462
 8827TIP3   OH247895   2.963   3.142  14.884 -0.0359  0.0649  0.1617
 8827TIP3    H147896   2.993   3.216  14.938 -1.6758  0.6122  0.3895
 8827TIP3    H247897   2.961   3.068  14.945  0.7939  0.0238  0.1481
 8828TIP3   OH247898   4.037   6.276   0.656 -0.2582  0.1451  0.2487
 8828TIP3    H147899   4.080   6.233   0.731  0.1600  0.5665  0.2583
 8828TIP3    H247900   4.047   6.214   0.584 -0.1495 -0.0175  0.4020
 8829TIP3   OH247901   4.206   6.258  14.191 -0.1408 -0.0343 -0.9107
 8829TIP3    H147902   4.295   6.226  14.173  0.9220  1.6785  0.8816
 8829TIP3    H247903   4.210   6.290  14.282 -3.0672 -1.4006 -0.1878
 8830TIP3   OH247904   2.735   0.803   0.087 -0.3623 -0.5000  0.5147
 8830TIP3    H147905   2.671   0.860   0.130 -0.8983 -0.6597 -0.0480
 8830TIP3    H247906   2.699   0.789  -0.001  0.7455 -0.1135 -0.0231
 8831TIP3   OH247907   1.044   2.124   6.502  0.0341  0.0735 -0.0852
 8831TIP3    H147908   0.969   2.112   6.561  1.1743 -1.9875  1.0671
 8831TIP3    H247909   1.116   2.079   6.546  0.8701 -1.8710 -3.1413
 8832TIP3   OH247910   5.660   3.310   4.148  0.0245  0.2157  0.2097
 8832TIP3    H147911   5.693   3.289   4.235  0.3523 -0.8271 -0.1511
 8832TIP3    H247912   5.695   3.241   4.091  0.9214  1.5846 -0.9962
 8833TIP3   OH247913   5.171   5.675  13.715 -0.1313  0.2794 -0.6322
 8833TIP3    H147914   5.237   5.743  13.714 -0.8994  1.1117  1.1227
 8833TIP3    H247915   5.202   5.611  13.780 -0.0109 -0.4368 -1.3771
 8834TIP3   OH247916   6.514   4.413  12.025 -0.6154 -0.1132  0.7779
 8834TIP3    H147917   6.579   4.419  11.955 -1.6132  0.6341 -0.1220
 8834TIP3    H247918   6.555   4.358  12.091  0.4367 -0.6994 -0.3161
 8835TIP3   OH247919   1.787   4.937   5.515 -0.3645  0.1493 -0.4034
 8835TIP3    H147920   1.783   4.879   5.591  0.8601 -0.4630 -0.7738
 8835TIP3    H247921   1.794   5.025   5.553 -0.0331 -0.1256  0.1962
 8836TIP3   OH247922   4.900   2.187  16.076 -0.5807  0.0103 -0.2343
 8836TIP3    H147923   4.898   2.282  16.063 -1.7339 -0.0211 -0.3365
 8836TIP3    H247924   4.978   2.159  16.027 -1.2946  0.6819 -1.8411
 8837TIP3   OH247925   3.010   4.516  11.853  0.5547 -0.2813  0.2629
 8837TIP3    H147926   2.990   4.489  11.942  1.0978 -0.5839  0.2977
 8837TIP3    H247927   3.098   4.552  11.857  0.9458 -1.1362 -0.3129
 8838TIP3   OH247928   0.777   1.760   5.364  0.4556  0.2154 -0.2972
 8838TIP3    H147929   0.738   1.706   5.433  1.5500  0.0941  0.2514
 8838TIP3    H247930   0.803   1.697   5.296 -0.6405  0.3369 -0.8502
 8839TIP3   OH247931   4.683   0.365  15.560  0.3374  1.0790 -0.1813
 8839TIP3    H147932   4.685   0.426  15.633 -1.8035  1.3441 -0.2931
 8839TIP3    H247933   4.676   0.420  15.482 -1.1246  0.7392 -0.3158
 8840TIP3   OH247934   0.973   3.243  12.218 -0.4415 -0.2354  0.5067
 8840TIP3    H147935   1.002   3.303  12.149 -0.0862 -0.3958  0.5109
 8840TIP3    H247936   0.903   3.289  12.263 -1.6524 -0.6833 -0.8383
 8841TIP3   OH247937   0.537   4.000   5.511  0.0889  0.1783 -0.1121
 8841TIP3    H147938   0.537   3.904   5.509 -0.8120  0.1671 -0.2499
 8841TIP3    H247939   0.551   4.026   5.420  0.2083  0.1757 -0.0946
 8842TIP3   OH247940   5.885   3.043  16.689  0.2436  0.2761  0.1106
 8842TIP3    H147941   5.980   3.044  16.699  0.1352  1.7233  1.4850
 8842TIP3    H247942   5.870   3.057  16.596  1.3928  1.5382  0.0862
 8843TIP3   OH247943   0.985   0.875  12.991 -0.5631 -0.1867 -0.1183
 8843TIP3    H147944   0.895   0.905  13.006 -0.5411 -0.1274 -0.1028
 8843TIP3    H247945   0.986   0.784  13.020 -0.4960 -0.0454  0.3342
 8844TIP3   OH247946   4.698   2.115   4.363 -0.3561 -0.5857 -0.1135
 8844TIP3    H147947   4.703   2.119   4.268  0.0839  1.3364 -0.0526
 8844TIP3    H247948   4.607   2.136   4.383 -0.8279 -2.4551 -0.1205
 8845TIP3   OH247949   1.753   5.843   4.056  0.2126  0.0523  0.0704
 8845TIP3    H147950   1.681   5.791   4.019  0.0141  0.4469 -0.0970
 8845TIP3    H247951   1.780   5.902   3.986 -1.1012  1.7883  0.9523
 8846TIP3   OH247952   3.006   6.168  11.773  0.0457  0.5733  0.1022
 8846TIP3    H147953   3.009   6.142  11.681 -0.5496 -0.2461  0.3088
 8846TIP3    H247954   3.097   6.190  11.794  0.7539 -1.9867  0.0922
 8847TIP3   OH247955   3.957   2.910   6.274  0.7886  0.3386 -0.0228
 8847TIP3    H147956   3.951   2.846   6.345  0.5010  1.1491  0.7034
 8847TIP3    H247957   3.980   2.858   6.197  0.9976 -0.5774  0.6346
 8848TIP3   OH247958   0.655   2.756   1.280  0.1539  0.5136 -0.0116
 8848TIP3    H147959   0.564   2.753   1.250 -0.7657  0.2549  2.4797
 8848TIP3    H247960   0.680   2.664   1.289 -0.0116  0.5506  0.9997
 8849TIP3   OH247961   4.076   2.464  14.054 -0.3676 -0.4163  0.2920
 8849TIP3    H147962   4.155   2.473  14.000 -0.2725 -2.1051  0.0926
 8849TIP3    H247963   4.106   2.416  14.131 -0.2961  2.6818  2.3959
 8850TIP3   OH247964   0.186   2.561  15.377 -0.0245 -0.2776  0.1049
 8850TIP3    H147965   0.112   2.574  15.436 -0.1623 -0.6467  0.0178
 8850TIP3    H247966   0.208   2.649  15.346  0.5291  0.0094  1.2749
 8851TIP3   OH247967   5.059   2.266  14.771 -0.4900  0.2908  0.0768
 8851TIP3    H147968   5.053   2.263  14.866  0.9724 -0.3730  0.1665
 8851TIP3    H247969   4.998   2.199  14.741 -0.6121  0.1814  0.5601
 8852TIP3   OH247970   3.554   4.888   3.990  0.2531 -0.0438  0.0715
 8852TIP3    H147971   3.589   4.892   4.079  0.7302 -0.4164 -0.0939
 8852TIP3    H247972   3.631   4.894   3.934 -0.1387  1.3468 -0.3427
 8853TIP3   OH247973   5.252   2.853   6.117  0.3588 -0.0249 -0.2661
 8853TIP3    H147974   5.226   2.818   6.032 -0.6944 -1.2641  0.5456
 8853TIP3    H247975   5.183   2.916   6.140 -1.2627 -2.1804  1.1744
 8854TIP3   OH247976   4.014   1.921   0.040  0.0367  0.2700 -0.0813
 8854TIP3    H147977   4.015   1.863  -0.036  1.0542  0.3220 -0.1177
 8854TIP3    H247978   4.020   1.863   0.115  2.0067  0.3257 -0.1413
 8855TIP3   OH247979   6.113   2.117   0.305  0.0707  0.0053 -0.2081
 8855TIP3    H147980   6.068   2.065   0.371 -1.0122 -0.3168 -1.1761
 8855TIP3    H247981   6.056   2.193   0.292  0.4729  0.2609 -0.5011
 8856TIP3   OH247982   2.807   5.011  14.141 -0.3936 -0.1697  0.6327
 8856TIP3    H147983   2.744   5.078  14.166  0.6236  1.7378 -1.5252
 8856TIP3    H247984   2.883   5.028  14.197 -0.0326  0.7288 -0.1006
 8857TIP3   OH247985   3.820   0.859  16.501 -0.2504 -0.3343 -0.5964
 8857TIP3    H147986   3.905   0.855  16.456 -0.5351  0.3014 -1.2158
 8857TIP3    H247987   3.841   0.848  16.593  0.8066  2.4121 -0.4254
 8858TIP3   OH247988   1.267   1.436  14.700  0.2290  0.6724  0.0738
 8858TIP3    H147989   1.297   1.374  14.766  0.6234 -1.2814 -1.8416
 8858TIP3    H247990   1.338   1.501  14.694  0.5733  0.3881  0.9259
 8859TIP3   OH247991   2.925   1.217  13.063 -0.0791  0.0149 -0.5380
 8859TIP3    H147992   2.830   1.227  13.054 -0.0163 -0.2708 -1.6047
 8859TIP3    H247993   2.937   1.183  13.152 -1.0684 -1.1028 -0.8085
 8860TIP3   OH247994   2.486   5.825  16.214 -0.1493  0.1411  0.2289
 8860TIP3    H147995   2.501   5.876  16.135 -0.4039 -0.1391 -0.0082
 8860TIP3    H247996   2.527   5.740  16.197  0.1834  0.2307  0.5748
 8861TIP3   OH247997   3.059   3.131  13.401 -0.2063 -0.4298  0.8755
 8861TIP3    H147998   3.061   3.195  13.472 -0.9320 -1.2472  1.6694
 8861TIP3    H247999   2.967   3.126  13.376  0.0024 -0.3568  0.0543
 8862TIP3   OH248000   1.672   1.327   2.624  0.0196  0.8081  0.2435
 8862TIP3    H148001   1.707   1.346   2.537 -0.9282  0.7149 -0.1631
 8862TIP3    H248002   1.598   1.269   2.609  1.2621 -1.1464  1.2897
 8863TIP3   OH248003   5.952   3.114  13.989  0.3320 -0.3284 -0.1136
 8863TIP3    H148004   5.901   3.194  14.002  0.9586  0.1483 -0.5238
 8863TIP3    H248005   6.035   3.144  13.953 -0.0475 -1.2834 -1.9440
 8864TIP3   OH248006   4.686   2.711   0.883 -0.2863  0.3210  0.0539
 8864TIP3    H148007   4.597   2.710   0.919 -0.1268  0.4468  0.4563
 8864TIP3    H248008   4.675   2.686   0.792 -0.5592 -1.2940  0.4918
 8865TIP3   OH248009   4.192   6.393   2.766 -0.6253 -0.3409  0.2100
 8865TIP3    H148010   4.108   6.359   2.736 -0.1181 -1.5159  0.0819
 8865TIP3    H248011   4.255   6.364   2.700 -0.0342  0.0722  0.5797
 8866TIP3   OH248012   3.889   0.347  16.929 -0.0938 -0.5089 -0.2512
 8866TIP3    H148013   3.856   0.422  16.879 -0.0940 -0.2040  0.2073
 8866TIP3    H248014   3.958   0.383  16.984 -1.1986 -0.4889  1.2049
 8867TIP3   OH248015   4.156   4.721   5.085  0.2122 -0.3439 -0.0516
 8867TIP3    H148016   4.064   4.748   5.087 -1.1033 -4.2144  1.7019
 8867TIP3    H248017   4.198   4.781   5.024 -3.0544  2.7130  0.3988
 8868TIP3   OH248018   3.802   1.825   2.100  0.6123 -0.1587  0.1069
 8868TIP3    H148019   3.725   1.874   2.071  0.2530 -0.2803  0.8453
 8868TIP3    H248020   3.876   1.880   2.074  0.1941  1.1663  1.6027
 8869TIP3   OH248021   6.216   0.537   2.380 -0.0095 -0.2215 -0.0233
 8869TIP3    H148022   6.274   0.575   2.314  0.5749 -1.9174 -0.5246
 8869TIP3    H248023   6.151   0.606   2.397  1.1041  1.0509 -0.7448
 8870TIP3   OH248024   4.008   5.769   2.924  0.1078  0.0507 -0.1862
 8870TIP3    H148025   4.045   5.853   2.951 -1.0282  0.7434 -0.6989
 8870TIP3    H248026   3.919   5.791   2.896 -0.9074 -1.6122  1.5120
 8871TIP3   OH248027   6.669   0.523  12.778 -0.3430  0.0301  0.1111
 8871TIP3    H148028   6.597   0.463  12.757  0.8512 -1.4613  0.1208
 8871TIP3    H248029   6.748   0.475  12.754  0.6351  2.3028 -1.5936
 8872TIP3   OH248030   2.122   2.519   4.965 -0.1301 -0.2870  0.5973
 8872TIP3    H148031   2.142   2.426   4.976  0.1367 -0.3403 -0.2911
 8872TIP3    H248032   2.205   2.564   4.982 -0.1152 -0.2536  0.4360
 8873TIP3   OH248033   0.255   5.250  14.970 -0.5768 -0.2934 -0.2913
 8873TIP3    H148034   0.295   5.180  14.918  0.9549  0.0470  0.3824
 8873TIP3    H248035   0.237   5.209  15.055  2.2285  0.5707  0.8254
 8874TIP3   OH248036   3.474   2.049  15.160 -0.4756  0.1575 -0.4188
 8874TIP3    H148037   3.499   2.124  15.213 -0.3275  1.0550 -1.7250
 8874TIP3    H248038   3.382   2.064  15.138 -0.4844 -0.1091 -0.5725
 8875TIP3   OH248039   2.982   1.161   5.305 -0.6508  0.3188 -0.2288
 8875TIP3    H148040   2.979   1.069   5.277 -2.3921 -0.2797  1.6692
 8875TIP3    H248041   3.059   1.167   5.361 -0.2804  0.1633 -0.7056
 8876TIP3   OH248042   1.639   5.199   3.146 -0.2650 -0.2898  0.0772
 8876TIP3    H148043   1.696   5.174   3.073 -0.0266  1.1154 -0.2615
 8876TIP3    H248044   1.695   5.250   3.204 -0.6307 -0.8052  0.9093
 8877TIP3   OH248045   5.944   3.103  17.090  0.1322 -0.3862 -0.3762
 8877TIP3    H148046   6.011   3.050  17.046  1.4173 -0.0774  1.1288
 8877TIP3    H248047   5.912   3.163  17.022  2.0422  0.0667 -0.9250
 8878TIP3   OH248048   3.352   4.047   2.975 -0.3578  0.2090  0.4201
 8878TIP3    H148049   3.292   3.978   2.948  0.4181 -0.5024  0.4699
 8878TIP3    H248050   3.426   4.001   3.014  0.4048  1.0437  0.0076
 8879TIP3   OH248051   0.041   0.381  14.559  0.4345  0.1600 -0.0482
 8879TIP3    H148052  -0.044   0.348  14.589  0.9544 -0.5022  0.7472
 8879TIP3    H248053   0.030   0.393  14.465  0.1528 -2.1989 -0.3956
 8880TIP3   OH248054   2.905   6.318  12.874 -0.0166 -0.2416 -0.4340
 8880TIP3    H148055   2.952   6.236  12.888 -0.9684 -0.7749 -0.2647
 8880TIP3    H248056   2.886   6.350  12.963  1.4504  0.8399 -0.4709
 8881TIP3   OH248057   2.891   5.002  11.599 -0.4751 -0.0626 -0.3080
 8881TIP3    H148058   2.819   4.959  11.646 -1.5175  0.6481 -1.1874
 8881TIP3    H248059   2.970   4.971  11.642 -1.2802 -1.3294  0.3173
 8882TIP3   OH248060   6.753   0.453  14.279  0.0318  0.1352  0.2873
 8882TIP3    H148061   6.723   0.368  14.312 -1.0451  0.4141  0.0583
 8882TIP3    H248062   6.684   0.515  14.304  0.0869  0.6850 -0.8382
 8883TIP3   OH248063   3.784   0.338  13.768 -0.2792 -0.5376 -0.2320
 8883TIP3    H148064   3.805   0.268  13.706 -2.3298  0.3040 -2.0375
 8883TIP3    H248065   3.802   0.419  13.719 -1.2336  0.1599  0.5244
 8884TIP3   OH248066   1.445   2.911   4.719  0.1796  0.1312  0.9149
 8884TIP3    H148067   1.395   2.926   4.799  0.1154  1.2155  0.6844
 8884TIP3    H248068   1.411   2.828   4.684 -0.4638  0.1461  1.4933
 8885TIP3   OH248069   3.848   0.566   1.470  0.0065  0.6272  0.6459
 8885TIP3    H148070   3.787   0.509   1.517  0.1282 -1.2053 -1.2628
 8885TIP3    H248071   3.918   0.583   1.534  0.1212 -1.6607  1.2282
 8886TIP3   OH248072   1.204   0.043   2.846 -0.7239  0.1481  0.4546
 8886TIP3    H148073   1.181  -0.036   2.896  3.3926 -0.3980  1.9299
 8886TIP3    H248074   1.217   0.110   2.912  3.2831 -0.1556  0.2040
 8887TIP3   OH248075   2.846   6.280  13.902 -0.0851  0.1020  0.5368
 8887TIP3    H148076   2.911   6.336  13.945 -0.4586  1.2408 -0.3201
 8887TIP3    H248077   2.885   6.193  13.902  0.0781  0.1112  2.8322
 8888TIP3   OH248078   0.599   6.239  16.418 -0.0470  0.0354 -0.0860
 8888TIP3    H148079   0.525   6.267  16.363  0.2020  1.5887  0.3281
 8888TIP3    H248080   0.673   6.292  16.388  0.4665 -0.2270  0.6840
 8889TIP3   OH248081   1.622   3.107  12.320  0.2691 -0.9464  0.0853
 8889TIP3    H148082   1.707   3.062  12.330  1.2064  0.8314  0.5924
 8889TIP3    H248083   1.596   3.127  12.409  2.7918  4.5025  0.0115
 8890TIP3   OH248084   3.720   4.762   2.895  0.1290  0.3439  0.2050
 8890TIP3    H148085   3.635   4.806   2.895  0.4489  0.9836  0.2848
 8890TIP3    H248086   3.779   4.824   2.851  0.2894 -0.6272 -0.9901
 8891TIP3   OH248087   4.040   6.007   5.134  0.1017  0.0828  0.4368
 8891TIP3    H148088   3.960   5.957   5.115 -0.2499  0.2772  1.3392
 8891TIP3    H248089   4.106   5.971   5.074 -0.9013  0.6003 -1.0330
 8892TIP3   OH248090   0.065   3.514   1.482 -0.1184 -0.1145  0.2953
 8892TIP3    H148091  -0.023   3.551   1.478 -0.2481 -0.4729 -0.4333
 8892TIP3    H248092   0.111   3.567   1.546 -0.4850  0.8917 -0.2593
 8893TIP3   OH248093   5.499   2.317  14.645  0.5210  0.2655  0.6971
 8893TIP3    H148094   5.555   2.284  14.574  0.6756  0.9196  0.5098
 8893TIP3    H248095   5.537   2.279  14.724  1.1336  0.5629  0.5535
 8894TIP3   OH248096   3.088   1.144  11.418 -0.2196 -0.0010  0.0675
 8894TIP3    H148097   3.171   1.147  11.465  0.0708 -2.4366 -0.1653
 8894TIP3    H248098   3.109   1.177  11.330 -0.0232  1.4208  0.6234
 8895TIP3   OH248099   0.103   5.845   6.246 -0.2355  0.4781  0.4495
 8895TIP3    H148100   0.155   5.776   6.288 -1.4252  0.0024  1.2110
 8895TIP3    H248101   0.119   5.923   6.300 -0.4545  0.2833  0.8018
 8896TIP3   OH248102   2.544   1.782  12.539  0.8463  0.3375  0.3032
 8896TIP3    H148103   2.573   1.755  12.627 -1.1062  0.6052  1.0603
 8896TIP3    H248104   2.548   1.701  12.488  0.4939 -0.1705  1.0559
 8897TIP3   OH248105   2.557   5.670   3.866  0.1346  0.4830 -0.2163
 8897TIP3    H148106   2.474   5.638   3.901  0.9079 -0.4766  0.8563
 8897TIP3    H248107   2.578   5.609   3.795  0.9316 -0.6185  0.9185
 8898TIP3   OH248108   5.757   6.041  17.165 -0.4233 -0.1107 -0.0754
 8898TIP3    H148109   5.849   6.049  17.138  0.0909  2.0583  1.9623
 8898TIP3    H248110   5.758   5.972  17.231 -0.9629 -2.4965 -2.3908
 8899TIP3   OH248111   5.216   2.581   1.142  0.3512  0.7273  0.6495
 8899TIP3    H148112   5.273   2.529   1.086 -1.2477  1.1491 -1.4759
 8899TIP3    H248113   5.129   2.573   1.103 -0.4609  2.7586  1.8616
 8900TIP3   OH248114   5.854   3.103   3.037  0.7444  0.2684  0.2955
 8900TIP3    H148115   5.943   3.074   3.057  0.3568 -1.3846 -0.2549
 8900TIP3    H248116   5.801   3.073   3.111  0.3538 -0.3536 -0.2253
 8901TIP3   OH248117   3.851   5.311   1.028 -0.6724  0.0653  0.4302
 8901TIP3    H148118   3.878   5.395   1.067  0.0601  1.0454 -2.0093
 8901TIP3    H248119   3.919   5.250   1.055  0.8466  1.1523 -0.7155
 8902TIP3   OH248120   1.764   4.227  16.433  0.7403  0.4517 -0.1645
 8902TIP3    H148121   1.729   4.315  16.415 -0.1119  0.0433 -0.5820
 8902TIP3    H248122   1.825   4.239  16.505  0.1432  1.2853  0.2113
 8903TIP3   OH248123   1.830   5.526   2.201 -0.8081 -0.2928  0.1330
 8903TIP3    H148124   1.759   5.486   2.252 -0.1733 -0.0371  1.2294
 8903TIP3    H248125   1.909   5.485   2.234 -0.4919 -1.6527 -2.0703
 8904TIP3   OH248126   1.889   3.615  13.171 -0.2057  0.1779 -0.5310
 8904TIP3    H148127   1.903   3.677  13.099  0.5641 -0.5390 -1.0144
 8904TIP3    H248128   1.968   3.561  13.172  0.8580  1.5933  2.3235
 8905TIP3   OH248129   3.754   3.130   3.815 -0.9613 -0.0584 -0.3196
 8905TIP3    H148130   3.704   3.183   3.877  0.1619  0.5031  0.1454
 8905TIP3    H248131   3.793   3.193   3.754 -0.6957 -0.4582 -0.5723
 8906TIP3   OH248132   5.051   0.092   4.243 -0.1449 -1.2279 -0.2826
 8906TIP3    H148133   5.076  -0.001   4.241 -0.3965 -1.2875 -0.9308
 8906TIP3    H248134   4.988   0.098   4.315 -0.7180 -1.7177 -0.7339
 8907TIP3   OH248135   0.652   5.360  11.371 -0.0474 -0.4106 -0.4110
 8907TIP3    H148136   0.592   5.285  11.369 -0.9968  0.3537 -1.1165
 8907TIP3    H248137   0.637   5.401  11.456 -0.9490  0.1059 -0.8120
 8908TIP3   OH248138   4.398   0.519   1.104  0.2180 -0.2251  0.5521
 8908TIP3    H148139   4.393   0.558   1.191  2.5725 -1.2591  1.2252
 8908TIP3    H248140   4.352   0.436   1.112 -2.0415  0.8700 -0.0422
 8909TIP3   OH248141   1.778   2.722  15.922 -0.1500 -0.0672 -0.7978
 8909TIP3    H148142   1.781   2.796  15.862  1.3174  2.3557  2.0007
 8909TIP3    H248143   1.686   2.700  15.929 -0.7151  1.9836 -1.1831
 8910TIP3   OH248144   0.935   0.292   2.595  0.6419  0.2926  0.2164
 8910TIP3    H148145   1.000   0.359   2.614 -0.7288  2.1038 -1.0679
 8910TIP3    H248146   0.957   0.260   2.508  0.0115  0.7425 -0.1242
 8911TIP3   OH248147   3.763   3.994  15.727 -0.6678 -0.6197 -0.2817
 8911TIP3    H148148   3.668   4.006  15.733 -0.7105  0.7386 -2.6579
 8911TIP3    H248149   3.799   4.078  15.754  0.0599 -1.6989  2.5265
 8912TIP3   OH248150   4.493   6.700  15.504  1.4420 -0.3248  0.3703
 8912TIP3    H148151   4.580   6.737  15.522  1.0605  1.7960 -1.7544
 8912TIP3    H248152   4.463   6.745  15.425 -1.9256 -0.4743  1.4182
 8913TIP3   OH248153   6.465   5.780  12.476 -1.0173 -0.3442  0.4496
 8913TIP3    H148154   6.436   5.829  12.552  0.5371 -1.0862  1.5676
 8913TIP3    H248155   6.549   5.818  12.453  0.4174 -2.6173  1.5826
 8914TIP3   OH248156   2.991   0.816   0.425  0.3993 -0.1595  0.1241
 8914TIP3    H148157   3.000   0.798   0.519  1.4584  1.4460  0.3593
 8914TIP3    H248158   2.898   0.838   0.415  0.1583 -0.8542  0.6768
 8915TIP3   OH248159   2.977   2.705  13.853 -0.0050  0.0810 -0.0128
 8915TIP3    H148160   2.943   2.638  13.913  1.7882 -1.3950 -0.5498
 8915TIP3    H248161   3.056   2.738  13.896  0.7201 -0.2513 -1.0399
 8916TIP3   OH248162   3.046   2.947  13.704 -0.1352  0.1647  0.6754
 8916TIP3    H148163   3.019   2.858  13.724 -0.5895  0.3347  0.8312
 8916TIP3    H248164   3.142   2.943  13.701 -0.1327 -1.2248 -3.3795
 8917TIP3   OH248165   0.704   2.288  11.579 -0.4518 -0.3488  0.2958
 8917TIP3    H148166   0.663   2.363  11.536  0.7636 -0.6798 -1.5188
 8917TIP3    H248167   0.790   2.280  11.538  0.5580 -1.0796  2.3966
 8918TIP3   OH248168   6.014   2.412  14.696 -0.0930 -0.0684 -0.7204
 8918TIP3    H148169   6.062   2.434  14.616  2.0313 -0.3483  0.3808
 8918TIP3    H248170   5.966   2.332  14.675  2.4604 -1.6410 -1.0722
 8919TIP3   OH248171   0.882   1.990  12.920  0.0423 -0.1957 -0.4183
 8919TIP3    H148172   0.953   2.040  12.879 -0.3620  1.6759  1.0253
 8919TIP3    H248173   0.827   1.963  12.846 -0.0099  2.0055 -1.2766
 8920TIP3   OH248174   0.572   5.775   2.577 -0.1393  0.2419 -0.3071
 8920TIP3    H148175   0.521   5.749   2.654  0.6450  0.2771  0.2370
 8920TIP3    H248176   0.579   5.870   2.584 -0.9290  0.3667 -0.9864
 8921TIP3   OH248177   0.101   5.373  17.107 -0.2465 -0.3240  0.0882
 8921TIP3    H148178   0.143   5.309  17.163 -0.3895 -0.8779 -0.4278
 8921TIP3    H248179   0.009   5.345  17.103 -0.5953  0.6409  0.8828
 8922TIP3   OH248180   3.123   5.361   0.135 -0.0810 -0.3300 -0.1693
 8922TIP3    H148181   3.215   5.350   0.112 -0.7358 -2.1266 -2.2487
 8922TIP3    H248182   3.091   5.425   0.071 -0.7183 -1.2988 -0.8439
 8923TIP3   OH248183   3.321   0.883  16.945  0.4089  0.2704  0.1766
 8923TIP3    H148184   3.262   0.929  16.886 -1.4254 -2.7309 -0.5725
 8923TIP3    H248185   3.403   0.874  16.896 -0.9385 -1.8022 -1.9014
 8924TIP3   OH248186   6.420   0.231  11.736 -0.3526  0.3741  0.0205
 8924TIP3    H148187   6.349   0.167  11.729 -0.2037  0.1004  0.8908
 8924TIP3    H248188   6.457   0.235  11.648 -0.2961 -0.8218 -0.0282
 8925TIP3   OH248189   1.607   6.385   0.129 -0.0310  0.2052  0.4426
 8925TIP3    H148190   1.621   6.416   0.040  0.1607 -0.7680  0.1164
 8925TIP3    H248191   1.514   6.362   0.132  0.3344 -1.4721 -0.0940
 8926TIP3   OH248192   6.351   6.384  11.183  0.2230 -0.0623 -0.1406
 8926TIP3    H148193   6.392   6.456  11.137  2.1138 -1.0252 -0.0569
 8926TIP3    H248194   6.374   6.306  11.132 -1.9855 -0.6263 -0.3812
 8927TIP3   OH248195   2.116   2.292   2.689  0.3284 -0.3196  0.0118
 8927TIP3    H148196   2.199   2.285   2.642  0.0105 -0.8813 -0.4706
 8927TIP3    H248197   2.074   2.206   2.677  0.4591 -0.6611  1.7175
 8928TIP3   OH248198   0.442   6.238   0.478  0.7720 -0.1035 -0.4444
 8928TIP3    H148199   0.534   6.246   0.505  0.5056  2.2540  0.0177
 8928TIP3    H248200   0.401   6.319   0.508 -1.4866 -1.0878 -0.6654
 8929TIP3   OH248201   1.830   4.560   3.458 -0.2581 -0.1506 -0.6257
 8929TIP3    H148202   1.910   4.516   3.489 -1.0732 -0.7952  0.6488
 8929TIP3    H248203   1.801   4.506   3.385 -0.0756 -0.5120 -0.4390
 8930TIP3   OH248204   1.033   5.109  14.868  0.4840  0.1051 -0.5728
 8930TIP3    H148205   1.058   5.034  14.922  0.3308  0.4867  0.0346
 8930TIP3    H248206   1.025   5.073  14.779 -2.6474 -1.3310  0.1472
 8931TIP3   OH248207   3.692   2.237   2.830  0.3345 -0.3383  0.1598
 8931TIP3    H148208   3.784   2.211   2.822  0.8408  1.6516 -1.2459
 8931TIP3    H248209   3.643   2.155   2.828  1.9467 -1.3240 -1.4105
 8932TIP3   OH248210   1.110   4.537  10.088 -0.1312 -0.1823  0.1638
 8932TIP3    H148211   1.106   4.585  10.170  0.4775 -1.2923  0.8689
 8932TIP3    H248212   1.136   4.602  10.023  2.0242  0.2188  1.3243
 8933TIP3   OH248213   0.485   6.720  11.699 -0.1894  0.2137 -0.4429
 8933TIP3    H148214   0.449   6.797  11.742 -0.5852  0.6875 -1.5756
 8933TIP3    H248215   0.469   6.648  11.760 -2.1147  0.5963 -0.4416
 8934TIP3   OH248216   2.130   5.460  11.494  0.5874  0.1200 -0.4776
 8934TIP3    H148217   2.187   5.484  11.567 -0.1686 -0.2832  0.2628
 8934TIP3    H248218   2.095   5.374  11.518 -1.2996  0.8854 -0.3055
 8935TIP3   OH248219   5.090   0.500   2.194  0.5527  0.1109  0.0735
 8935TIP3    H148220   5.060   0.484   2.104 -0.3086 -2.4164  0.7125
 8935TIP3    H248221   5.121   0.591   2.194  0.1699  0.3157 -2.6446
 8936TIP3   OH248222   3.385   1.814  11.828 -0.0873  0.4951  0.3583
 8936TIP3    H148223   3.325   1.789  11.898 -0.5089  0.7069  0.0777
 8936TIP3    H248224   3.447   1.874  11.869  0.5718 -0.5330  0.8955
 8937TIP3   OH248225   0.630   6.605   6.573 -0.1468 -0.4107 -0.5695
 8937TIP3    H148226   0.592   6.693   6.566  0.1465 -0.1667  0.7204
 8937TIP3    H248227   0.721   6.620   6.597 -0.8252 -1.0512  2.9384
 8938TIP3   OH248228   3.570   5.949  13.017  0.1632  0.3436  0.5641
 8938TIP3    H148229   3.493   5.900  13.046 -0.0215  0.7660  0.8021
 8938TIP3    H248230   3.555   5.962  12.923  0.7364 -0.9720  0.2697
 8939TIP3   OH248231   1.721   0.082  14.226  0.7750  0.4803 -0.2777
 8939TIP3    H148232   1.798   0.120  14.270  2.7048  1.1429 -3.8801
 8939TIP3    H248233   1.757   0.020  14.164 -1.8654 -1.0945 -0.3597
 8940TIP3   OH248234   4.926   5.852   0.811 -0.2331  0.3472 -0.1697
 8940TIP3    H148235   4.896   5.932   0.767  0.4488  0.8391  0.2354
 8940TIP3    H248236   4.888   5.781   0.760  1.2550  0.8713 -2.1395
 8941TIP3   OH248237   3.741   6.141  12.115  0.0741 -0.3042 -0.0972
 8941TIP3    H148238   3.687   6.128  12.037 -1.1442 -3.9185  1.1225
 8941TIP3    H248239   3.681   6.178  12.180 -0.2917 -1.8178  0.4692
 8942TIP3   OH248240   4.686   0.344  13.221 -0.1487 -0.0378  0.6094
 8942TIP3    H148241   4.606   0.388  13.194  1.4369  1.2086 -2.5237
 8942TIP3    H248242   4.685   0.261  13.173  1.0212  0.5649 -0.4829
 8943TIP3   OH248243   4.127   4.240  16.321 -0.5228 -0.6451 -0.4009
 8943TIP3    H148244   4.177   4.317  16.291 -1.3849  1.5530  3.2001
 8943TIP3    H248245   4.048   4.242  16.268 -0.8124  1.4410  0.0011
 8944TIP3   OH248246   5.190   2.965   1.761  0.0047 -0.5685  0.1320
 8944TIP3    H148247   5.206   2.882   1.805  1.6156  0.0446  0.7784
 8944TIP3    H248248   5.129   3.011   1.818 -0.5597 -1.1179 -0.0119
 8945TIP3   OH248249   4.345   1.838  14.954  0.5669 -0.7037  0.3284
 8945TIP3    H148250   4.409   1.908  14.967  0.0035 -0.2766  0.8823
 8945TIP3    H248251   4.341   1.826  14.859  0.0878  0.5721  0.1740
 8946TIP3   OH248252   1.705   5.798   1.818 -0.1723  0.2441  0.8078
 8946TIP3    H148253   1.705   5.876   1.762 -1.9794 -0.1137  0.2514
 8946TIP3    H248254   1.769   5.818   1.886  0.6140  1.5187 -0.2574
 8947TIP3   OH248255   0.175   0.502  15.781 -0.0294 -0.9409 -0.1598
 8947TIP3    H148256   0.105   0.534  15.838  1.0613 -0.5231  0.9728
 8947TIP3    H248257   0.222   0.581  15.754  3.1827 -1.4256  3.2884
 8948TIP3   OH248258   4.492   1.659   5.636 -0.0417 -0.1686 -0.1450
 8948TIP3    H148259   4.472   1.751   5.619 -0.9982 -0.5349 -1.0889
 8948TIP3    H248260   4.587   1.656   5.645  0.1606  0.6834 -1.6968
 8949TIP3   OH248261   0.602   3.503   0.300  0.2806 -0.3426  0.0719
 8949TIP3    H148262   0.580   3.414   0.271  3.7790 -1.1768 -0.4686
 8949TIP3    H248263   0.587   3.558   0.224 -0.7514 -0.6451  0.0380
 8950TIP3   OH248264   2.451   2.927  12.960 -0.6325 -0.8657  0.4114
 8950TIP3    H148265   2.481   2.994  12.899 -0.7135 -1.1534  0.0502
 8950TIP3    H248266   2.373   2.965  13.001  0.3771  0.0164  1.5904
 8951TIP3   OH248267   4.402   4.440  15.521 -0.1465  0.3869 -0.0438
 8951TIP3    H148268   4.458   4.364  15.538 -0.2191  0.3730  0.1460
 8951TIP3    H248269   4.414   4.495  15.598 -2.5004 -0.8975  1.3621
 8952TIP3   OH248270   4.659   2.308  15.560  0.4563 -0.0845 -0.5325
 8952TIP3    H148271   4.692   2.345  15.478  0.5947  1.0468  0.0102
 8952TIP3    H248272   4.736   2.296  15.615  0.1940  1.0410  0.1388
 8953TIP3   OH248273   2.832   3.729  16.464 -0.1719  0.3504  0.2722
 8953TIP3    H148274   2.843   3.782  16.543 -0.9562  0.4398  0.3270
 8953TIP3    H248275   2.921   3.720  16.429  0.1600  0.4543  1.0660
 8954TIP3   OH248276   4.974   6.537  15.490  0.2857  0.2825  0.1894
 8954TIP3    H148277   5.006   6.623  15.462 -1.2543  0.8565  0.0662
 8954TIP3    H248278   4.891   6.526  15.443  0.3676 -1.2059  0.3362
 8955TIP3   OH248279   0.015   1.572   6.413 -0.0872  0.2423  0.5478
 8955TIP3    H148280  -0.022   1.655   6.383  1.4567  1.1025  0.9199
 8955TIP3    H248281  -0.004   1.510   6.342 -0.5898  1.0926 -0.0802
 8956TIP3   OH248282   6.757   2.233  12.794  0.2833  1.1653 -0.5290
 8956TIP3    H148283   6.808   2.165  12.838 -0.3833  1.2307  0.3665
 8956TIP3    H248284   6.673   2.192  12.775 -0.1087  1.7024 -0.0224
 8957TIP3   OH248285   6.034   0.633   5.016 -0.6128 -0.3692 -0.0329
 8957TIP3    H148286   6.077   0.553   5.046  1.0330  0.5463  0.1668
 8957TIP3    H248287   5.984   0.663   5.092 -0.2191 -0.5457  0.3026
 8958TIP3   OH248288   1.673   3.603  14.032  1.0326  0.2761 -0.0075
 8958TIP3    H148289   1.703   3.541  13.966  0.3332 -0.2748  0.1777
 8958TIP3    H248290   1.742   3.669  14.036  1.2176  0.1666 -1.0818
 8959TIP3   OH248291   4.065   4.761  16.509 -0.4993  0.1243  0.5226
 8959TIP3    H148292   4.156   4.783  16.528  0.2605 -2.2669 -0.0309
 8959TIP3    H248293   4.067   4.726  16.420 -2.0586  0.5182  0.3068
 8960TIP3   OH248294   2.772   1.765   2.225 -0.0695  0.0306 -0.1212
 8960TIP3    H148295   2.703   1.757   2.160  1.3326  0.8081 -1.7785
 8960TIP3    H248296   2.819   1.845   2.202  2.2272 -1.1649  0.0644
 8961TIP3   OH248297   4.480   4.182   0.408  0.7501  0.2382 -0.0748
 8961TIP3    H148298   4.433   4.257   0.444 -0.1197 -0.2203 -0.2307
 8961TIP3    H248299   4.488   4.200   0.315  0.0841 -0.0973 -0.1992
 8962TIP3   OH248300   6.753   4.502   3.489  0.1051  0.3942 -0.1571
 8962TIP3    H148301   6.770   4.408   3.484  0.1620  0.3738  0.4000
 8962TIP3    H248302   6.738   4.519   3.582 -0.2486  0.8790 -0.3003
 8963TIP3   OH248303   6.475   3.571  17.129 -0.1321 -0.1936  0.0290
 8963TIP3    H148304   6.403   3.517  17.162 -0.3898 -0.2061 -0.5324
 8963TIP3    H248305   6.446   3.661  17.145  0.3792 -0.2066  1.1342
 8964TIP3   OH248306   6.334   6.072   3.947  0.4307  0.2827 -0.8077
 8964TIP3    H148307   6.380   6.039   4.025 -2.1782 -1.9146 -0.0483
 8964TIP3    H248308   6.338   6.000   3.884 -3.4051 -0.8885  0.0127
 8965TIP3   OH248309   1.960   4.832  12.571 -0.3462  0.4738  0.2275
 8965TIP3    H148310   2.027   4.886  12.528  0.9453 -1.6044 -0.5853
 8965TIP3    H248311   2.008   4.786  12.640 -0.8202 -1.2303 -0.5157
 8966TIP3   OH248312   2.747   2.073   2.102  0.2669 -0.2084 -0.5192
 8966TIP3    H148313   2.761   2.159   2.063  0.5631 -0.4841 -1.0325
 8966TIP3    H248314   2.780   2.011   2.037 -1.4422 -0.7910 -0.8911
 8967TIP3   OH248315   0.691   0.115   4.122 -0.4288  0.2317 -0.1631
 8967TIP3    H148316   0.748   0.173   4.173  0.5838  0.8930 -1.9657
 8967TIP3    H248317   0.674   0.163   4.041 -0.9659 -1.2900 -0.9922
 8968TIP3   OH248318   0.932   0.338  15.019 -0.0662 -0.2741 -0.1115
 8968TIP3    H148319   1.028   0.334  15.020  0.1312  2.4759  0.1214
 8968TIP3    H248320   0.911   0.360  14.928 -0.7679 -3.6062 -0.8898
 8969TIP3   OH248321   0.715   3.313  16.637 -0.1064 -0.1459 -0.0305
 8969TIP3    H148322   0.665   3.376  16.689 -0.7247 -0.8882  0.3050
 8969TIP3    H248323   0.718   3.352  16.550 -0.6144  0.2755  0.1283
 8970TIP3   OH248324   0.574   4.034   4.668  0.0454  0.0189  0.5303
 8970TIP3    H148325   0.481   4.010   4.665  0.3137 -0.9745 -0.6180
 8970TIP3    H248326   0.587   4.087   4.589  0.6606 -0.6734  0.1577
 8971TIP3   OH248327   0.315   3.469  15.322 -0.5435  0.5285  0.0525
 8971TIP3    H148328   0.354   3.468  15.409 -1.5803  1.7665  0.5721
 8971TIP3    H248329   0.369   3.410  15.270 -1.1219 -1.9014  2.0471
 8972TIP3   OH248330   0.388   4.265   0.145 -0.4177  0.0831  0.3111
 8972TIP3    H148331   0.348   4.293   0.228  0.8964  1.0003  0.6706
 8972TIP3    H248332   0.470   4.314   0.140 -0.3512 -0.1477 -1.4308
 8973TIP3   OH248333   1.008   1.587  15.271 -0.1224 -0.2362 -0.7488
 8973TIP3    H148334   1.005   1.680  15.291 -0.7747 -0.0115 -1.7684
 8973TIP3    H248335   0.919   1.566  15.241 -0.0298 -1.2232 -0.3817
 8974TIP3   OH248336   3.529   0.338  12.315  0.1173  0.3850  0.1146
 8974TIP3    H148337   3.594   0.360  12.248  0.3969 -1.0289 -0.1116
 8974TIP3    H248338   3.454   0.305  12.265  0.5566 -1.2462  0.5034
 8975TIP3   OH248339   2.871   4.642  14.299 -0.0714  0.2929  0.1245
 8975TIP3    H148340   2.917   4.563  14.273  0.6261  0.9364 -0.6694
 8975TIP3    H248341   2.783   4.613  14.322 -0.3539 -0.5054 -1.7726
 8976TIP3   OH248342   4.907   5.943   2.364 -0.1767  0.0111 -0.2363
 8976TIP3    H148343   4.864   6.014   2.317 -2.4492 -1.1716 -0.0663
 8976TIP3    H248344   4.915   5.976   2.454 -0.9980  0.1514 -0.2070
 8977TIP3   OH248345   0.990   2.155  12.337  0.4834 -0.3665  0.0512
 8977TIP3    H148346   1.015   2.069  12.371  2.9708 -1.0292 -2.9457
 8977TIP3    H248347   1.054   2.215  12.377  0.8105 -0.4736 -0.3027
 8978TIP3   OH248348   4.525   1.622   2.650 -0.1375  0.3925  0.4260
 8978TIP3    H148349   4.470   1.606   2.574 -0.3849  0.7116  0.5355
 8978TIP3    H248350   4.614   1.629   2.614 -0.3181  1.0808  0.0945
 8979TIP3   OH248351   1.566   6.574   4.322 -0.1039  0.0305 -0.9404
 8979TIP3    H148352   1.615   6.518   4.382 -0.0085  0.0832 -0.9691
 8979TIP3    H248353   1.595   6.662   4.342  0.3614  0.0035 -1.4592
 8980TIP3   OH248354   6.527   1.470   3.732  0.0059  0.4631  0.1745
 8980TIP3    H148355   6.539   1.564   3.718  0.8415  0.2536 -0.6092
 8980TIP3    H248356   6.615   1.433   3.724 -0.1079 -0.2474  1.7429
 8981TIP3   OH248357   1.614   1.217   4.394 -0.0500 -0.4771  0.2397
 8981TIP3    H148358   1.686   1.185   4.340  1.3886  0.9873  1.1759
 8981TIP3    H248359   1.629   1.176   4.480 -0.5033 -0.3610  0.3791
 8982TIP3   OH248360   6.283   5.164  14.939 -0.4297  0.9176 -0.0260
 8982TIP3    H148361   6.307   5.100  14.872 -0.0985  0.5326  0.4529
 8982TIP3    H248362   6.365   5.184  14.984 -0.6813  1.0109  0.3994
 8983TIP3   OH248363   4.952   5.432  11.439 -0.5684  0.1378 -0.0498
 8983TIP3    H148364   4.998   5.509  11.472 -0.3673 -0.4801  1.1515
 8983TIP3    H248365   4.868   5.466  11.407 -0.4545  0.8552  0.4026
 8984TIP3   OH248366   5.115   1.916  13.198 -0.2007 -0.3482 -1.1769
 8984TIP3    H148367   5.125   1.854  13.125  2.4102 -0.3256 -0.9597
 8984TIP3    H248368   5.131   2.002  13.159  0.4098 -0.2574 -0.7452
 8985TIP3   OH248369   3.646   3.838   0.076 -0.3538  0.4170 -0.1680
 8985TIP3    H148370   3.577   3.789   0.120 -0.5300  1.0370  0.2600
 8985TIP3    H248371   3.622   3.930   0.090 -0.7045  0.6435 -1.9963
 8986TIP3   OH248372   1.306   5.132   2.525  0.6929 -0.3340  0.1940
 8986TIP3    H148373   1.225   5.094   2.560  0.1077  1.4586  0.9010
 8986TIP3    H248374   1.276   5.198   2.462  1.6705 -1.0285 -1.0353
 8987TIP3   OH248375   0.276   6.690   3.087  0.4017  0.2393 -0.0764
 8987TIP3    H148376   0.330   6.630   3.138  0.2200  0.4819  0.4007
 8987TIP3    H248377   0.319   6.694   3.001  0.0849 -1.0493 -0.3187
 8988TIP3   OH248378   5.907   6.024   2.737  0.0603  0.0993 -0.2129
 8988TIP3    H148379   5.901   6.110   2.779  0.7805 -0.7518  1.8030
 8988TIP3    H248380   5.910   6.043   2.644  0.2081  2.2606  0.1694
 8989TIP3   OH248381   1.874   0.840  15.730 -0.0392  0.1368 -0.5111
 8989TIP3    H148382   1.938   0.858  15.662  0.8156  1.7089  0.6450
 8989TIP3    H248383   1.834   0.925  15.749 -1.5790 -0.6021 -0.3229
 8990TIP3   OH248384   3.800   1.072  11.390 -0.8258 -0.3117 -0.0614
 8990TIP3    H148385   3.884   1.115  11.409 -0.3352 -0.7201 -1.2179
 8990TIP3    H248386   3.739   1.110  11.454  0.8683 -2.2464  2.9308
 8991TIP3   OH248387   3.723   5.768   0.351  0.1423  0.0316  0.0138
 8991TIP3    H148388   3.632   5.799   0.346  0.0369 -0.4639 -1.3529
 8991TIP3    H248389   3.770   5.819   0.285  0.9194  0.4102  0.8314
 8992TIP3   OH248390   2.278   5.850  12.862 -0.0401  0.0270  0.4472
 8992TIP3    H148391   2.339   5.807  12.802 -0.4288  0.3247 -0.1806
 8992TIP3    H248392   2.199   5.862  12.810 -0.4387  0.1589  1.0765
 8993TIP3   OH248393   2.128   1.057  10.968 -0.1045  0.3620  0.1036
 8993TIP3    H148394   2.181   1.125  10.927  0.4101 -0.2676 -0.3089
 8993TIP3    H248395   2.184   0.979  10.966  0.0354  0.3432  2.1992
 8994TIP3   OH248396   2.572   2.268  14.894  0.1405 -0.3930  0.0127
 8994TIP3    H148397   2.643   2.318  14.936  1.2140 -1.1915 -0.8033
 8994TIP3    H248398   2.613   2.229  14.817 -1.5335  0.2330 -1.2542
 8995TIP3   OH248399   3.303   3.455  11.263  0.4675 -0.6509 -0.1140
 8995TIP3    H148400   3.358   3.454  11.185  1.4022 -0.0030  0.5129
 8995TIP3    H248401   3.296   3.364  11.290 -0.0980 -0.9106 -1.0977
 8996TIP3   OH248402   5.271   3.124  16.021 -0.5690 -0.1463 -0.5432
 8996TIP3    H148403   5.268   3.138  15.926  1.2139 -1.0033 -0.7531
 8996TIP3    H248404   5.301   3.034  16.032  2.0208  0.7923  0.8166
 8997TIP3   OH248405   0.515   3.071  14.609 -0.1955  0.5279  0.3080
 8997TIP3    H148406   0.533   3.077  14.703 -0.7484 -0.8625  0.5306
 8997TIP3    H248407   0.473   3.154  14.587  0.2747  1.0217  1.2021
 8998TIP3   OH248408   5.365   1.593   5.749  0.3772  0.0193  0.0041
 8998TIP3    H148409   5.363   1.505   5.710 -0.4312  0.1921 -0.3760
 8998TIP3    H248410   5.428   1.641   5.696 -1.2211  0.4522 -1.6093
 8999TIP3   OH248411   4.265   2.520   2.026 -1.0255  0.0223 -0.1895
 8999TIP3    H148412   4.234   2.465   2.098 -0.8388  0.4691  0.2392
 8999TIP3    H248413   4.346   2.559   2.058 -0.8147  0.0451 -0.7330
 9000TIP3   OH248414   1.809   5.888   3.166 -0.0777  0.5707  0.0077
 9000TIP3    H148415   1.777   5.827   3.099 -0.6018 -0.2158  0.9565
 9000TIP3    H248416   1.799   5.975   3.125 -0.7169  0.1325 -0.8025
 9001TIP3   OH248417   5.484   3.293  13.924 -0.1913  0.1697 -0.6381
 9001TIP3    H148418   5.462   3.201  13.933  1.0403 -0.0129  1.1807
 9001TIP3    H248419   5.561   3.295  13.868  2.4301 -0.4578  2.5916
 9002TIP3   OH248420   0.536   4.221  15.519  1.0162  0.0886 -0.4586
 9002TIP3    H148421   0.544   4.301  15.571 -0.8975  1.0565 -1.5227
 9002TIP3    H248422   0.621   4.178  15.528  1.0179  0.5005  2.9002
 9003TIP3   OH248423   5.648   5.595   5.932 -0.2590  0.1221 -0.2400
 9003TIP3    H148424   5.724   5.542   5.907 -0.4551 -0.8272  1.1183
 9003TIP3    H248425   5.636   5.578   6.025  0.3057  3.3796  0.5508
 9004TIP3   OH248426   3.089   5.299   1.276 -0.1184  0.8232 -0.8593
 9004TIP3    H148427   3.036   5.305   1.197 -0.0402 -2.9739 -1.3469
 9004TIP3    H248428   3.035   5.250   1.338  0.3622  2.5486  1.0653
 9005TIP3   OH248429   4.067   6.720   2.433 -0.3685  0.1311  0.1514
 9005TIP3    H148430   4.106   6.763   2.357 -0.2902 -0.2764 -0.0458
 9005TIP3    H248431   4.130   6.652   2.457 -0.7396 -0.2315  0.1154
 9006TIP3   OH248432   5.737   2.220  16.230 -0.3420  0.1401 -0.0543
 9006TIP3    H148433   5.808   2.208  16.293 -0.9507  0.4208  0.6945
 9006TIP3    H248434   5.752   2.307  16.193  0.6211 -0.4385 -1.0946
 9007TIP3   OH248435   1.293   1.094   1.961  0.1811 -0.3180 -0.1928
 9007TIP3    H148436   1.211   1.075   1.915  0.0936 -1.8143  0.4990
 9007TIP3    H248437   1.332   1.007   1.976  1.0721  0.2531  0.9483
 9008TIP3   OH248438   3.766   0.347  11.522  0.1336 -0.0109  0.1218
 9008TIP3    H148439   3.846   0.351  11.573 -0.4966 -1.7978  1.3432
 9008TIP3    H248440   3.774   0.267  11.470 -0.6731  0.0008 -0.0387
 9009TIP3   OH248441   0.742   6.010  10.614 -0.1450 -0.3477 -1.0140
 9009TIP3    H148442   0.675   5.991  10.548 -0.4401 -1.3748 -0.4349
 9009TIP3    H248443   0.807   5.941  10.604 -0.1741 -0.4934 -0.2600
 9010TIP3   OH248444   6.490   2.566  14.117  0.7929  0.8494 -0.6633
 9010TIP3    H148445   6.475   2.619  14.195  1.0267 -1.3036  0.9318
 9010TIP3    H248446   6.576   2.593  14.085  0.5708  1.9488 -0.3596
 9011TIP3   OH248447   4.007   5.942  14.071  0.7407  0.0916  0.3853
 9011TIP3    H148448   4.101   5.925  14.083  0.8549 -0.1703 -0.7376
 9011TIP3    H248449   4.005   6.029  14.031  0.6147 -0.5418 -1.0456
 9012TIP3   OH248450   4.244   2.131   4.119 -0.1626  0.4288 -0.1758
 9012TIP3    H148451   4.171   2.151   4.061 -0.9478 -2.8678 -0.5583
 9012TIP3    H248452   4.322   2.136   4.063 -0.5410  0.3683 -0.7117
 9013TIP3   OH248453   5.570   2.836  14.455  0.2490 -0.1583 -0.1775
 9013TIP3    H148454   5.658   2.836  14.492 -0.7485 -1.1324  2.4150
 9013TIP3    H248455   5.574   2.770  14.385  1.4425 -0.5461  0.2259
 9014TIP3   OH248456   1.219   4.063   4.862 -0.1492  0.0116 -0.4195
 9014TIP3    H148457   1.189   3.972   4.864  0.2352 -0.0975  0.5574
 9014TIP3    H248458   1.296   4.065   4.918 -0.2668  0.9862 -0.2748
 9015TIP3   OH248459   6.750   6.188   4.334  0.6103 -0.4223 -0.3794
 9015TIP3    H148460   6.680   6.217   4.394 -1.5609  0.3925 -3.1054
 9015TIP3    H248461   6.767   6.097   4.361 -0.6896 -0.2922  1.0879
 9016TIP3   OH248462   2.102   4.493  15.402 -1.0561 -0.5149  0.1597
 9016TIP3    H148463   2.078   4.414  15.353  0.1011 -1.3149  0.8265
 9016TIP3    H248464   2.044   4.561  15.368 -0.7362 -1.1777 -1.8566
 9017TIP3   OH248465   4.211   4.350   3.361 -0.1003 -0.0869  0.2249
 9017TIP3    H148466   4.254   4.382   3.282  0.0415  1.5713  0.9144
 9017TIP3    H248467   4.158   4.424   3.391  0.1866 -0.5151  1.9117
 9018TIP3   OH248468   4.691   6.375   5.129  0.3393 -0.3092 -0.0142
 9018TIP3    H148469   4.628   6.312   5.163  0.0688 -1.3416 -2.2514
 9018TIP3    H248470   4.678   6.373   5.034  2.2112  1.1219 -0.3586
 9019TIP3   OH248471   4.515   0.008   0.122  0.1270  0.0338  0.4853
 9019TIP3    H148472   4.454  -0.002   0.194 -1.1629 -0.6324 -0.6543
 9019TIP3    H248473   4.507   0.100   0.096 -0.9041 -0.1925 -0.0615
 9020TIP3   OH248474   6.683   3.547  11.692  0.3128  0.0589 -0.1142
 9020TIP3    H148475   6.632   3.560  11.772  0.7302 -0.1358  0.1920
 9020TIP3    H248476   6.676   3.630  11.645  0.8469  0.5085  0.5807
 9021TIP3   OH248477   2.452   2.139  11.881  0.2206 -0.0011  0.7121
 9021TIP3    H148478   2.419   2.153  11.969  0.8735 -0.6302  1.0693
 9021TIP3    H248479   2.540   2.176  11.882 -0.3286  1.3926 -0.1420
 9022TIP3   OH248480   2.175   2.397  14.247 -0.1521  0.4694  0.3189
 9022TIP3    H148481   2.212   2.360  14.327 -0.6030  3.5042  2.0840
 9022TIP3    H248482   2.090   2.354  14.238 -0.5042  0.7291  2.0570
 9023TIP3   OH248483   2.440   1.037   5.853  0.1771 -0.3811  0.0137
 9023TIP3    H148484   2.467   0.998   5.770 -0.8151 -0.7118 -0.1666
 9023TIP3    H248485   2.511   1.015   5.914  1.6798  1.1902 -1.0743
 9024TIP3   OH248486   1.870   1.242  16.722 -0.1698  0.7295  0.3397
 9024TIP3    H148487   1.798   1.260  16.663 -0.6655 -0.3777  0.5892
 9024TIP3    H248488   1.924   1.178  16.676 -1.8324 -2.0397  1.9500
 9025TIP3   OH248489   2.005   1.106   3.608 -0.3450  0.0687 -0.1164
 9025TIP3    H148490   2.023   1.093   3.515 -1.0065 -0.1175 -0.2278
 9025TIP3    H248491   2.061   1.179   3.634  1.0267 -0.8935 -0.2728
 9026TIP3   OH248492   0.416   4.397  13.285 -0.5652 -0.1256 -0.2761
 9026TIP3    H148493   0.382   4.483  13.259 -1.6959 -0.7188 -0.8590
 9026TIP3    H248494   0.344   4.359  13.336 -1.7965 -2.3069 -3.3708
 9027TIP3   OH248495   4.620   4.636   4.489  0.4114 -0.0084 -0.5830
 9027TIP3    H148496   4.684   4.566   4.504  0.3766  0.1873  0.5589
 9027TIP3    H248497   4.602   4.632   4.395  0.0327 -1.8447 -0.4614
 9028TIP3   OH248498   6.740   2.665  11.941 -0.1748  0.3501 -0.0552
 9028TIP3    H148499   6.771   2.586  11.985 -1.4508 -0.9351 -1.3279
 9028TIP3    H248500   6.694   2.714  12.009  1.0357  0.2420  0.8676
 9029TIP3   OH248501   4.903   0.982   4.155  0.1943 -0.7428 -0.1829
 9029TIP3    H148502   4.945   0.896   4.160  2.1423  0.2156  1.1518
 9029TIP3    H248503   4.819   0.971   4.200  0.9816 -1.6671  1.1224
 9030TIP3   OH248504   0.776   0.501   1.655 -0.2126 -0.2601  0.1413
 9030TIP3    H148505   0.786   0.433   1.587  0.0194  2.6826 -3.0710
 9030TIP3    H248506   0.682   0.508   1.668 -0.6499  1.5910 -2.9067
 9031TIP3   OH248507   3.206   1.765   3.365  0.1032 -0.2614  0.3500
 9031TIP3    H148508   3.183   1.754   3.458 -0.6939  0.0762  0.2070
 9031TIP3    H248509   3.260   1.689   3.344  1.2760  0.2624  1.3908
 9032TIP3   OH248510   4.419   3.971  15.002  0.3839 -0.1112  0.0007
 9032TIP3    H148511   4.379   4.057  14.989 -1.9441 -0.8794  1.3727
 9032TIP3    H248512   4.478   3.983  15.077 -0.2385  0.2443  0.4522
 9033TIP3   OH248513   6.279   2.366   3.132 -0.4842  0.1241  0.2675
 9033TIP3    H148514   6.207   2.421   3.162 -1.2997 -1.1317  0.6776
 9033TIP3    H248515   6.243   2.318   3.057  1.2289  2.5274 -2.3001
 9034TIP3   OH248516   0.210   5.782   0.058 -0.3082 -0.3642  0.7281
 9034TIP3    H148517   0.175   5.701   0.023  1.1907 -1.0064  0.6642
 9034TIP3    H248518   0.171   5.789   0.145 -0.8046 -0.9023  0.5560
 9035TIP3   OH248519   4.538   5.947   2.091 -0.2693 -0.1465 -0.1489
 9035TIP3    H148520   4.592   5.871   2.070 -0.4332 -0.3865  0.2871
 9035TIP3    H248521   4.553   6.008   2.019  0.7200 -0.1329  0.0559
 9036TIP3   OH248522   4.876   1.290   5.575  0.0185  0.0637  0.0990
 9036TIP3    H148523   4.968   1.297   5.548 -0.2011  1.5628 -0.3790
 9036TIP3    H248524   4.860   1.196   5.584  1.7211 -0.2104  0.6154
 9037TIP3   OH248525   3.746   5.726  17.062 -0.0352 -0.0089 -0.6498
 9037TIP3    H148526   3.818   5.663  17.067 -0.9106 -1.2345 -2.5617
 9037TIP3    H248527   3.764   5.788  17.133  0.2469 -3.0327  2.1579
 9038TIP3   OH248528   1.487   1.020  11.713  0.1226  0.2544  0.4141
 9038TIP3    H148529   1.508   1.050  11.802  1.4143 -1.5125  0.7812
 9038TIP3    H248530   1.550   1.065  11.657  2.5034 -2.0012  1.0363
 9039TIP3   OH248531   5.542   1.547   2.287  0.2445 -0.4112 -0.0535
 9039TIP3    H148532   5.623   1.498   2.303 -0.1499 -0.7039  1.1301
 9039TIP3    H248533   5.549   1.624   2.343 -1.0214 -1.2795  1.3445
 9040TIP3   OH248534   5.527   5.061  13.977 -0.3868 -0.1429 -0.1651
 9040TIP3    H148535   5.574   5.103  14.049 -0.5563  0.1773 -0.2416
 9040TIP3    H248536   5.593   5.006  13.935  0.8933  2.7229 -2.3044
 9041TIP3   OH248537   5.492   2.897   0.391  0.0729 -0.2050 -0.1045
 9041TIP3    H148538   5.492   2.837   0.465  1.1157  0.0988  0.1588
 9041TIP3    H248539   5.463   2.981   0.428  1.9520  0.3059  0.2973
 9042TIP3   OH248540   5.781   0.806  13.892 -0.1756 -0.1852  0.3205
 9042TIP3    H148541   5.830   0.882  13.924  0.7177 -0.3407 -0.6476
 9042TIP3    H248542   5.846   0.735  13.888 -0.8394 -0.8163  0.5233
 9043TIP3   OH248543   1.938   5.861   6.094 -0.2294 -0.0820 -0.5588
 9043TIP3    H148544   1.848   5.863   6.126 -0.4301 -0.6788 -1.0392
 9043TIP3    H248545   1.928   5.856   5.998  0.2860 -1.1209 -0.5698
 9044TIP3   OH248546   6.241   2.110  15.691 -0.1335  0.4897 -0.4109
 9044TIP3    H148547   6.288   2.129  15.610  2.3291  0.3998  0.8867
 9044TIP3    H248548   6.284   2.164  15.757 -1.7868  0.2500  0.9389
 9045TIP3   OH248549   0.232   2.652   2.490 -0.3356 -0.1870 -0.0959
 9045TIP3    H148550   0.219   2.565   2.452 -1.0174  0.0603 -0.4577
 9045TIP3    H248551   0.250   2.708   2.414 -1.0061  0.1852  0.0079
 9046TIP3   OH248552   1.891   3.366  16.167  0.5074  0.1401  0.2257
 9046TIP3    H148553   1.932   3.331  16.245  1.5630 -0.0484 -0.3922
 9046TIP3    H248554   1.950   3.342  16.095 -0.8968 -0.5248 -0.7609
 9047TIP3   OH248555   3.822   4.945  15.110 -0.2786 -0.2492  0.1230
 9047TIP3    H148556   3.839   4.998  15.188 -2.4172  3.0061 -1.4006
 9047TIP3    H248557   3.790   4.861  15.144  1.4203  0.0153  2.6593
 9048TIP3   OH248558   4.175   1.029   3.343  0.8885 -0.4408  0.2492
 9048TIP3    H148559   4.222   1.109   3.368  0.0880  0.3903 -0.7796
 9048TIP3    H248560   4.241   0.976   3.298  1.0318  0.4440 -0.6394
 9049TIP3   OH248561   2.033   0.360  14.956  0.5724 -0.0761 -0.3439
 9049TIP3    H148562   1.966   0.425  14.935 -0.5082 -0.3656  1.8956
 9049TIP3    H248563   1.986   0.276  14.953  1.4263 -0.5451 -1.0582
 9050TIP3   OH248564   0.232   5.545   6.057 -0.3500 -0.6833 -0.1459
 9050TIP3    H148565   0.307   5.567   6.113 -0.6236 -0.3886  0.1147
 9050TIP3    H248566   0.214   5.453   6.075 -0.7653 -0.4543  0.6579
 9051TIP3   OH248567   1.846   6.108  11.248 -0.8480  0.0467  0.1263
 9051TIP3    H148568   1.789   6.137  11.178  1.5473  0.0510 -1.9754
 9051TIP3    H248569   1.896   6.186  11.272  0.4384 -0.6085 -0.3260
 9052TIP3   OH248570   0.163   6.447  12.814 -0.0195  0.4306 -0.0659
 9052TIP3    H148571   0.074   6.421  12.839 -0.2746  2.4366  1.2892
 9052TIP3    H248572   0.204   6.476  12.895  1.2696  1.2405 -0.9717
 9053TIP3   OH248573   2.729   3.539   5.247 -0.7180 -0.5714  0.3190
 9053TIP3    H148574   2.770   3.543   5.333 -0.3718 -2.0734  0.2447
 9053TIP3    H248575   2.801   3.524   5.186 -0.9531  0.5441 -0.2663
 9054TIP3   OH248576   6.083   5.039  13.485 -0.0400 -0.3483  0.0768
 9054TIP3    H148577   6.155   5.058  13.546  0.0602  0.1005 -0.1754
 9054TIP3    H248578   6.051   5.125  13.458  0.0730 -0.5420 -0.6933
 9055TIP3   OH248579   4.292   0.496   5.588  0.6716 -0.3476 -0.0150
 9055TIP3    H148580   4.262   0.454   5.508 -0.8423 -0.6463  0.6780
 9055TIP3    H248581   4.363   0.554   5.560 -0.0614 -0.1880 -1.6090
 9056TIP3   OH248582   5.466   0.402  16.507 -0.6562 -0.4014  0.1538
 9056TIP3    H148583   5.455   0.462  16.434 -1.5017  1.1109  1.4554
 9056TIP3    H248584   5.465   0.458  16.585  1.4850 -1.7946  1.2918
 9057TIP3   OH248585   0.360   3.240   5.361 -0.3603 -0.3937 -0.0539
 9057TIP3    H148586   0.311   3.274   5.436 -0.1772  0.4143 -0.2892
 9057TIP3    H248587   0.293   3.214   5.298 -0.5050 -0.1102 -0.0202
 9058TIP3   OH248588   3.025   3.130   0.531  0.8144  0.5724  0.6150
 9058TIP3    H148589   3.062   3.178   0.458  1.3928  0.5010  0.8541
 9058TIP3    H248590   2.967   3.193   0.575 -0.6690  0.2045 -0.7124
 9059TIP3   OH248591   6.487   2.768   4.243 -0.4888  0.0147 -0.6235
 9059TIP3    H148592   6.567   2.801   4.203 -0.4074  0.9881  0.2977
 9059TIP3    H248593   6.427   2.843   4.244 -1.4073 -0.6911 -1.2688
 9060TIP3   OH248594   3.266   1.348   1.252  0.2562 -0.1451  0.2242
 9060TIP3    H148595   3.305   1.264   1.230  1.5823 -0.0390  1.9092
 9060TIP3    H248596   3.335   1.412   1.236 -0.8393  0.6975 -1.3485
 9061TIP3   OH248597   5.615   3.318   5.527  0.1582  0.5118  0.3369
 9061TIP3    H148598   5.687   3.297   5.468 -0.0398 -0.5255  0.4421
 9061TIP3    H248599   5.655   3.371   5.596  0.9200 -0.4564  0.6508
 9062TIP3   OH248600   2.058   3.767   4.655  0.1004  0.0992  0.2344
 9062TIP3    H148601   2.021   3.808   4.733  0.3939  1.4089 -0.2781
 9062TIP3    H248602   1.986   3.764   4.593  0.6144  1.9891 -0.5148
 9063TIP3   OH248603   3.632   2.100   5.984 -0.3183  0.5015  0.5969
 9063TIP3    H148604   3.723   2.125   6.003  0.2329 -0.3999 -0.6841
 9063TIP3    H248605   3.580   2.177   6.010  1.2952  3.4243 -3.6656
 9064TIP3   OH248606   2.139   1.356   3.577 -0.3661  0.1436 -0.1277
 9064TIP3    H148607   2.200   1.299   3.531  0.1024  1.1267 -0.7820
 9064TIP3    H248608   2.078   1.385   3.509  0.5923  1.9600 -0.2859
 9065TIP3   OH248609   2.693   5.663   4.386 -0.0960  0.6875  0.1437
 9065TIP3    H148610   2.679   5.694   4.297 -0.6126 -0.7232 -0.2907
 9065TIP3    H248611   2.654   5.730   4.442  0.9713  2.0024 -0.6329
 9066TIP3   OH248612   1.391   5.422   5.460 -0.0730  0.3913  0.1902
 9066TIP3    H148613   1.458   5.456   5.401  0.7178 -1.9708 -0.4009
 9066TIP3    H248614   1.419   5.450   5.547  1.3858 -0.0076 -0.1147
 9067TIP3   OH248615   2.361   2.893  12.573 -1.2458 -0.4921 -0.6917
 9067TIP3    H148616   2.443   2.924  12.535 -1.0368 -2.3777 -1.9334
 9067TIP3    H248617   2.388   2.837  12.646 -1.5407  0.4123  0.1422
 9068TIP3   OH248618   3.890   3.305  13.872 -0.9350 -0.2168  0.2364
 9068TIP3    H148619   3.805   3.348  13.877 -0.5736  0.5608 -0.1860
 9068TIP3    H248620   3.954   3.375  13.888 -0.3108 -0.4400 -1.1297
 9069TIP3   OH248621   5.537   3.688   1.519 -0.5099 -0.1383 -0.2133
 9069TIP3    H148622   5.569   3.718   1.433 -1.4769 -0.9459 -0.8875
 9069TIP3    H248623   5.578   3.603   1.532 -1.9892 -1.0099 -0.9118
 9070TIP3   OH248624   3.734   2.268   2.369 -0.1187  0.2873  0.4516
 9070TIP3    H148625   3.773   2.182   2.386  0.4692  0.2031 -1.1037
 9070TIP3    H248626   3.748   2.282   2.275 -1.7813  1.3092  0.3159
 9071TIP3   OH248627   5.761   3.244  16.492 -0.1521 -0.2041  0.0465
 9071TIP3    H148628   5.800   3.310  16.550  0.1681  0.1862 -0.5961
 9071TIP3    H248629   5.700   3.293  16.438 -1.7514 -0.8525  1.2016
 9072TIP3   OH248630   4.303   4.053   1.305 -0.2386 -0.0956 -0.0490
 9072TIP3    H148631   4.373   3.993   1.332 -1.7264 -2.7936 -1.7216
 9072TIP3    H248632   4.233   4.039   1.369 -0.4291  0.2232 -0.1827
 9073TIP3   OH248633   1.529   6.023   2.298 -0.2497 -0.0527 -0.5896
 9073TIP3    H148634   1.572   5.939   2.318  0.3143  0.1873 -0.7885
 9073TIP3    H248635   1.593   6.072   2.247 -0.8656  0.2107 -1.1185
 9074TIP3   OH248636   4.949   4.962  14.648 -0.2348 -0.2211  0.0430
 9074TIP3    H148637   5.036   4.924  14.658 -0.0968 -0.4998 -1.7533
 9074TIP3    H248638   4.929   5.001  14.733  2.1406  0.9303  0.1571
 9075TIP3   OH248639   2.881   4.632   3.847  0.2534  0.1955 -0.6127
 9075TIP3    H148640   2.847   4.718   3.874 -2.5111 -1.3208  1.1942
 9075TIP3    H248641   2.872   4.577   3.925  4.0768 -1.2890 -1.0135
 9076TIP3   OH248642   0.739   0.830   0.313  0.3709  0.5480  0.0797
 9076TIP3    H148643   0.644   0.827   0.324 -0.0234  0.4670 -2.6327
 9076TIP3    H248644   0.773   0.780   0.386 -1.6960  0.3196  0.9600
 9077TIP3   OH248645   2.924   3.882  17.192 -0.0873  0.0973  0.1863
 9077TIP3    H148646   3.006   3.841  17.164  0.1053 -0.2576  1.2255
 9077TIP3    H248647   2.915   3.857  17.284 -1.6938 -0.4126 -0.0702
 9078TIP3   OH248648   0.014   2.708  13.444  0.1827 -0.0861 -0.2088
 9078TIP3    H148649   0.093   2.674  13.403 -0.4312 -1.3815 -0.3370
 9078TIP3    H248650  -0.054   2.645  13.423 -0.7098  0.5655  0.6226
 9079TIP3   OH248651   2.028   0.568   1.071  0.0936 -0.3650 -0.2597
 9079TIP3    H148652   1.997   0.615   1.148 -0.7864  0.6598 -1.2171
 9079TIP3    H248653   1.954   0.566   1.011 -0.1214 -3.5604 -0.0479
 9080TIP3   OH248654   5.357   0.263   5.043  0.4319 -0.0902  0.2282
 9080TIP3    H148655   5.380   0.280   5.134  0.1284  0.0659  0.2797
 9080TIP3    H248656   5.303   0.184   5.045 -1.2960  1.0419  0.4405
 9081TIP3   OH248657   6.050   2.622  16.157  0.5547 -0.0248 -0.1081
 9081TIP3    H148658   6.078   2.656  16.242 -0.9619 -1.4241  1.0087
 9081TIP3    H248659   5.955   2.635  16.155  0.4733 -0.6234 -1.3067
 9082TIP3   OH248660   0.578   1.393   4.659 -0.3338  0.4074 -0.1378
 9082TIP3    H148661   0.509   1.346   4.613 -0.1787  0.9758 -0.9716
 9082TIP3    H248662   0.621   1.445   4.591  0.9861 -0.0097  0.3408
 9083TIP3   OH248663   2.634   2.189  10.851  0.1714  0.1900  0.0749
 9083TIP3    H148664   2.684   2.241  10.914  1.0117 -0.6028  0.0754
 9083TIP3    H248665   2.686   2.190  10.771 -1.4141  2.1425 -1.0549
 9084TIP3   OH248666   0.459   0.609  16.680  0.6232  0.1084  0.5659
 9084TIP3    H148667   0.443   0.579  16.590  0.6660 -0.1617  0.6459
 9084TIP3    H248668   0.403   0.554  16.734 -1.1639  1.7964  0.5381
 9085TIP3   OH248669   6.348   0.936   2.732  0.0627  0.0522  0.2061
 9085TIP3    H148670   6.287   0.988   2.785  0.1989 -0.3333  0.7512
 9085TIP3    H248671   6.305   0.851   2.724 -0.3330  0.3519 -1.0009
 9086TIP3   OH248672   1.524   2.606   2.871  0.5226  0.2228  0.0958
 9086TIP3    H148673   1.596   2.548   2.849  0.0264 -0.2415 -0.3443
 9086TIP3    H248674   1.463   2.598   2.798  0.5121  1.4323 -0.0558
 9087TIP3   OH248675   0.688   4.325  13.155  0.4575 -0.2809 -0.7288
 9087TIP3    H148676   0.637   4.362  13.228  1.5747 -3.1528  1.7267
 9087TIP3    H248677   0.628   4.265  13.111  0.1716  0.4738 -1.3968
 9088TIP3   OH248678   5.100   4.440  13.735  0.2317 -0.5669 -0.2010
 9088TIP3    H148679   5.068   4.526  13.705 -0.2969 -0.5361  0.4171
 9088TIP3    H248680   5.114   4.391  13.654 -0.8682 -0.3857 -0.5318
 9089TIP3   OH248681   3.822   1.915   0.743  0.2533 -0.0183 -0.0977
 9089TIP3    H148682   3.898   1.884   0.695  0.8013  0.9024  0.1513
 9089TIP3    H248683   3.854   1.990   0.793 -0.7164  0.1184  0.3450
 9090TIP3   OH248684   3.737   4.855  12.522  0.8022  0.4444 -0.5912
 9090TIP3    H148685   3.832   4.845  12.521  0.7812  0.2682 -1.2007
 9090TIP3    H248686   3.704   4.780  12.473  0.3009  0.0879  0.2684
 9091TIP3   OH248687   4.969   4.586   2.962 -0.4408 -0.6179  0.1324
 9091TIP3    H148688   4.879   4.587   2.995 -0.8385 -0.2862 -0.9240
 9091TIP3    H248689   4.962   4.618   2.872  0.6878 -0.9550 -0.0900
 9092TIP3   OH248690   5.337   0.689  13.615 -0.0208 -0.4354  0.1585
 9092TIP3    H148691   5.264   0.742  13.648 -0.6023 -0.9796 -0.2336
 9092TIP3    H248692   5.362   0.633  13.689  1.3774  1.1525  0.9731
 9093TIP3   OH248693   6.538   2.265  10.606  0.0514 -0.0965 -0.4815
 9093TIP3    H148694   6.538   2.315  10.687 -1.2352 -0.3796 -0.2910
 9093TIP3    H248695   6.549   2.331  10.537 -3.3966  0.7833 -0.3642
 9094TIP3   OH248696   2.631   1.094   3.887  0.4739  0.2627 -0.0676
 9094TIP3    H148697   2.576   1.171   3.902  1.1952  0.8644 -0.4743
 9094TIP3    H248698   2.699   1.100   3.954  0.4949 -0.0691 -0.0576
 9095TIP3   OH248699   0.068   3.258   1.581 -0.1109  0.2249 -0.2652
 9095TIP3    H148700   0.063   3.345   1.541  0.3664 -0.1191 -1.1008
 9095TIP3    H248701   0.138   3.265   1.646  0.8349  0.1449 -1.2279
 9096TIP3   OH248702   3.352   4.676  12.644  0.1058 -0.2601  0.3092
 9096TIP3    H148703   3.313   4.612  12.585  0.7095  1.2120 -1.7687
 9096TIP3    H248704   3.440   4.644  12.660  0.3814 -0.0194 -0.6652
 9097TIP3   OH248705   1.793   1.699  15.052 -0.0757  0.0571  0.4914
 9097TIP3    H148706   1.876   1.722  15.092 -0.5343  0.2057  1.3889
 9097TIP3    H248707   1.809   1.615  15.009  0.3699 -0.2291  1.2062
 9098TIP3   OH248708   0.685   1.950   1.134  0.2624 -0.4810  0.0765
 9098TIP3    H148709   0.777   1.958   1.161  0.5634 -0.2509 -0.9621
 9098TIP3    H248710   0.679   1.861   1.098 -0.1467 -0.8061  0.9328
 9099TIP3   OH248711   3.830   5.208  11.924 -0.5963  0.2781  0.2704
 9099TIP3    H148712   3.907   5.151  11.927 -0.2956  0.5816 -1.1313
 9099TIP3    H248713   3.792   5.201  12.012 -0.2677 -1.6589  0.3007
 9100TIP3   OH248714   0.729   6.472   0.222 -0.1914  0.3358  0.4468
 9100TIP3    H148715   0.651   6.490   0.275 -0.7093  2.5513 -0.9602
 9100TIP3    H248716   0.694   6.453   0.135  0.8257  1.1977 -0.1625
 9101TIP3   OH248717   2.772   3.389   4.165  0.1831 -0.2333 -0.6121
 9101TIP3    H148718   2.827   3.457   4.127 -0.7701 -0.0075 -1.6575
 9101TIP3    H248719   2.800   3.308   4.122 -1.0422  0.0533 -2.0528
 9102TIP3   OH248720   0.877   4.959  15.240  0.3422 -0.2345  0.2000
 9102TIP3    H148721   0.869   4.864  15.242 -0.2094 -0.1896  1.6128
 9102TIP3    H248722   0.817   4.986  15.170  0.8285 -0.9323 -0.5082
 9103TIP3   OH248723   0.621   0.410  15.153 -0.2575 -0.3399  0.8009
 9103TIP3    H148724   0.684   0.480  15.136 -3.2286  1.8802 -2.4595
 9103TIP3    H248725   0.648   0.373  15.237  3.2034  2.7837  1.2992
 9104TIP3   OH248726   1.921   6.497   0.524 -0.4365  0.2177  0.1412
 9104TIP3    H148727   1.895   6.581   0.486  0.7683  1.9669  2.9144
 9104TIP3    H248728   1.991   6.465   0.467 -1.2675  0.7994 -1.2468
 9105TIP3   OH248729   0.779   4.664   4.151 -0.0147 -0.1934  0.1381
 9105TIP3    H148730   0.823   4.578   4.148  2.7670  1.1050  0.0757
 9105TIP3    H248731   0.771   4.683   4.244 -1.1408 -0.7226  0.1628
 9106TIP3   OH248732   5.116   6.004  15.505 -0.0723 -0.8887  0.0750
 9106TIP3    H148733   5.081   5.929  15.457 -1.4693 -1.0491  1.2806
 9106TIP3    H248734   5.101   6.078  15.447  1.4615 -1.5085 -1.1988
 9107TIP3   OH248735   5.892   0.133   3.499  0.5309  0.7328 -0.1281
 9107TIP3    H148736   5.863   0.057   3.549  2.0205 -0.3445 -0.8266
 9107TIP3    H248737   5.971   0.164   3.544  0.0254  1.8079  0.0678
 9108TIP3   OH248738   4.135   6.361   6.094 -0.1010 -0.2822  0.2665
 9108TIP3    H148739   4.195   6.369   6.020  0.1880  1.3622  0.6503
 9108TIP3    H248740   4.064   6.423   6.074 -0.4162 -0.4013  1.0002
 9109TIP3   OH248741   2.854   3.595   2.163 -0.4230  0.2841 -0.3293
 9109TIP3    H148742   2.946   3.619   2.162  0.3138 -2.1255  1.0612
 9109TIP3    H248743   2.854   3.501   2.143 -2.7762  0.5800 -2.2409
 9110TIP3   OH248744   0.194   3.333   5.552 -0.1511 -0.3804  0.3770
 9110TIP3    H148745   0.106   3.371   5.557 -0.4087 -0.9842  0.5823
 9110TIP3    H248746   0.252   3.399   5.590 -0.0589  1.3581 -2.4866
 9111TIP3   OH248747   4.009   5.827   4.447 -0.7364 -0.2161 -0.0323
 9111TIP3    H148748   3.990   5.858   4.359 -0.9645 -0.3807 -0.0425
 9111TIP3    H248749   4.104   5.828   4.453 -0.7293  0.0379 -0.1920
 9112TIP3   OH248750   4.287   4.926  15.801 -0.1331  0.0989 -0.0764
 9112TIP3    H148751   4.228   4.858  15.770  0.7597 -0.7812  0.1035
 9112TIP3    H248752   4.262   5.004  15.752 -1.2172 -0.3269 -0.2391
 9113TIP3   OH248753   0.369   0.735   2.036 -0.0203  0.2472 -0.2993
 9113TIP3    H148754   0.345   0.718   2.127 -0.6980  2.2564 -0.0477
 9113TIP3    H248755   0.337   0.659   1.987  0.6402 -1.0086  1.1506
 9114TIP3   OH248756   2.442   3.116  13.452 -0.5386 -0.2722 -0.4820
 9114TIP3    H148757   2.480   3.204  13.442  0.4175 -0.5185  0.7332
 9114TIP3    H248758   2.394   3.101  13.370  0.6814  0.7151 -1.4217
 9115TIP3   OH248759   1.201   4.388  13.178 -0.3048  0.2115  0.6423
 9115TIP3    H148760   1.124   4.368  13.231 -0.0352 -1.4392  0.4599
 9115TIP3    H248761   1.235   4.470  13.215 -0.4953 -0.5427  2.6145
 9116TIP3   OH248762   6.422   2.488  12.400  0.0931 -0.2681 -0.3641
 9116TIP3    H148763   6.514   2.509  12.383  0.0444  0.2004 -0.0621
 9116TIP3    H248764   6.376   2.514  12.320 -0.0057  1.0596  0.1044
 9117TIP3   OH248765   3.174   0.763   3.168 -0.8891  0.5191  0.2295
 9117TIP3    H148766   3.175   0.693   3.234  2.8724 -0.2359 -0.3687
 9117TIP3    H248767   3.093   0.748   3.119 -1.1809 -2.2189  1.3415
 9118TIP3   OH248768   3.964   1.469   0.377  0.0439  0.6186  0.0607
 9118TIP3    H148769   3.896   1.424   0.327 -0.2731  1.9544 -0.7526
 9118TIP3    H248770   4.024   1.504   0.310  1.0930  0.1684  0.7325
 9119TIP3   OH248771   0.730   2.382  11.969  0.1139  0.1626 -0.0496
 9119TIP3    H148772   0.689   2.312  11.919  0.7396  0.1887 -0.6039
 9119TIP3    H248773   0.749   2.342  12.054  1.2326 -0.6160 -0.6347
 9120TIP3   OH248774   0.262   1.819  14.537 -0.1050  0.1930 -0.0345
 9120TIP3    H148775   0.241   1.911  14.525  2.9952  1.2423  1.5987
 9120TIP3    H248776   0.312   1.796  14.458  0.8411  0.5255  0.4555
 9121TIP3   OH248777   1.033   3.892   4.475  0.6860  0.0976 -0.4097
 9121TIP3    H148778   1.024   3.973   4.424  0.2618  0.0460 -0.4177
 9121TIP3    H248779   0.992   3.825   4.421 -0.5756  0.1967  0.3690
 9122TIP3   OH248780   5.494   1.259   2.615  0.2559 -0.2554  0.3285
 9122TIP3    H148781   5.557   1.329   2.633 -0.3813  0.2536  0.5851
 9122TIP3    H248782   5.545   1.194   2.566  1.0957 -0.0515  0.9015
 9123TIP3   OH248783   4.955   2.118   1.444 -0.6271  0.1145  0.4011
 9123TIP3    H148784   4.971   2.171   1.367 -0.8039 -1.1989 -0.5834
 9123TIP3    H248785   5.040   2.116   1.490  0.2670 -1.2482 -1.1903
 9124TIP3   OH248786   1.376   0.925  14.443 -0.8433 -0.0815  0.0995
 9124TIP3    H148787   1.334   0.943  14.527 -1.4755  0.0945 -0.2479
 9124TIP3    H248788   1.358   1.002  14.390 -0.5529 -0.2441 -0.2413
 9125TIP3   OH248789   4.911   6.516   1.759 -0.1144  0.0364  0.0539
 9125TIP3    H148790   4.970   6.500   1.686 -0.3686 -1.0756  0.0859
 9125TIP3    H248791   4.953   6.587   1.809 -0.2062  1.1841 -1.4296
 9126TIP3   OH248792   5.339   0.026   1.286 -0.0283 -0.3537  0.7553
 9126TIP3    H148793   5.304   0.017   1.374 -1.9968 -1.2407 -0.0536
 9126TIP3    H248794   5.300   0.106   1.252  0.4088 -0.2231  0.5591
 9127TIP3   OH248795   4.736   2.050   1.948 -0.0848  0.2980 -0.4839
 9127TIP3    H148796   4.713   2.042   2.041 -2.2992  2.5020 -0.7587
 9127TIP3    H248797   4.827   2.082   1.949 -0.5042  1.5433  0.9688
 9128TIP3   OH248798   5.219   2.735   5.857  0.1862  0.0822 -0.0230
 9128TIP3    H148799   5.241   2.642   5.857 -0.0952  0.0111 -0.2917
 9128TIP3    H248800   5.297   2.779   5.825 -0.2408 -0.2168 -1.5637
 9129TIP3   OH248801   2.263   3.855   2.398  0.6234 -0.1238  0.4049
 9129TIP3    H148802   2.231   3.785   2.455  0.9977 -1.1475 -0.6144
 9129TIP3    H248803   2.322   3.811   2.337  1.1273  1.1428 -0.0508
 9130TIP3   OH248804   5.076   0.773   3.864  0.4662  0.0608 -0.3649
 9130TIP3    H148805   5.094   0.717   3.788 -1.4312  0.4076 -1.1038
 9130TIP3    H248806   5.108   0.859   3.838  1.6591 -0.2398  0.0415
 9131TIP3   OH248807   5.882   5.858  16.945  0.1604 -0.4393 -0.0528
 9131TIP3    H148808   5.971   5.891  16.930 -0.1972  1.2089  1.1945
 9131TIP3    H248809   5.888   5.810  17.027  0.0385 -0.9665 -0.3485
 9132TIP3   OH248810   5.628   2.277  10.952 -0.0256  0.1511 -0.0752
 9132TIP3    H148811   5.582   2.328  10.884 -0.9237 -0.8416 -0.2310
 9132TIP3    H248812   5.660   2.199  10.906  1.5115  0.6264  0.1196
 9133TIP3   OH248813   0.423   0.389   3.683  0.6371  0.1146 -0.1374
 9133TIP3    H148814   0.405   0.305   3.642  0.4672 -0.4227  1.0009
 9133TIP3    H248815   0.337   0.423   3.708  0.8563 -0.6233  1.7638
 9134TIP3   OH248816   6.124   1.420  16.258 -0.1010 -0.1525  0.2803
 9134TIP3    H148817   6.036   1.385  16.248  0.2001 -0.4668 -1.7149
 9134TIP3    H248818   6.140   1.418  16.352 -1.2681 -2.4816  0.5029
 9135TIP3   OH248819   1.639   5.387   0.303 -0.1163  0.3694 -0.0190
 9135TIP3    H148820   1.676   5.469   0.335  0.2545  0.4482 -0.6287
 9135TIP3    H248821   1.713   5.340   0.265 -0.6927  0.7798 -1.7590
 9136TIP3   OH248822   6.073   4.572  11.542 -0.2402  0.1130 -0.0658
 9136TIP3    H148823   6.148   4.612  11.497  0.8589 -2.6852 -0.9791
 9136TIP3    H248824   6.013   4.548  11.472  0.5055 -2.3729  0.0427
 9137TIP3   OH248825   0.981   0.190  15.501  0.0016 -0.4812  0.1729
 9137TIP3    H148826   0.903   0.221  15.455 -0.1171 -0.1760  0.5714
 9137TIP3    H248827   0.982   0.240  15.582  2.6425  2.2847 -1.3757
 9138TIP3   OH248828   4.061   3.180   5.632 -0.2126 -0.4828  0.0095
 9138TIP3    H148829   3.992   3.158   5.695 -1.1033  0.4589 -0.6168
 9138TIP3    H248830   4.032   3.139   5.550 -0.3161  0.3652 -0.3886
 9139TIP3   OH248831   0.039   6.407  12.045 -0.1325  0.1310 -0.1696
 9139TIP3    H148832   0.093   6.407  11.967 -0.4305  0.3014 -0.3759
 9139TIP3    H248833   0.097   6.373  12.114 -0.2093 -1.0926 -0.6877
 9140TIP3   OH248834   1.995   1.917  16.719  0.9992  0.1639  0.2717
 9140TIP3    H148835   1.960   2.006  16.718  0.4875 -0.0130  1.2909
 9140TIP3    H248836   2.029   1.906  16.808  0.2037 -0.9801  0.4480
 9141TIP3   OH248837   3.347   3.756   1.370 -0.8512 -0.2197 -0.9583
 9141TIP3    H148838   3.329   3.662   1.358  1.4437 -0.7147 -0.9397
 9141TIP3    H248839   3.396   3.760   1.451 -0.1695  0.8987 -1.4127
 9142TIP3   OH248840   4.780   6.579   3.034 -0.2609  0.0133 -0.7466
 9142TIP3    H148841   4.856   6.577   3.092 -0.8745 -0.1619  0.0661
 9142TIP3    H248842   4.787   6.663   2.989 -1.5981  1.8120  2.1221
 9143TIP3   OH248843   4.342   2.729  16.469  0.3870  0.8190  0.0236
 9143TIP3    H148844   4.414   2.754  16.526  1.5008 -0.1861 -0.8907
 9143TIP3    H248845   4.373   2.747  16.380 -0.6064  0.6724 -0.3704
 9144TIP3   OH248846   0.986   1.310  13.116 -0.0563 -0.3908  0.2109
 9144TIP3    H148847   1.080   1.329  13.113  0.1239 -1.1587  0.7099
 9144TIP3    H248848   0.975   1.256  13.195 -0.8496 -0.6451 -0.0650
 9145TIP3   OH248849   1.785   5.402  16.737 -0.4913 -0.0007 -0.1532
 9145TIP3    H148850   1.848   5.365  16.674 -2.3526 -3.9668 -0.0344
 9145TIP3    H248851   1.827   5.390  16.822 -0.2552  0.0568 -0.2584
 9146TIP3   OH248852   3.608   2.524  17.000  0.1576  0.3198  0.4727
 9146TIP3    H148853   3.565   2.516  17.085  1.1650  1.9015  1.1772
 9146TIP3    H248854   3.543   2.492  16.937 -1.6410  1.5924  1.5921
 9147TIP3   OH248855   3.270   4.447  14.970 -0.0110  0.7855 -0.6305
 9147TIP3    H148856   3.206   4.514  14.994  0.5588  1.0525  0.1653
 9147TIP3    H248857   3.225   4.394  14.903 -2.4562 -1.2442  2.3641
 9148TIP3   OH248858   4.542   3.312  11.321 -0.4497 -0.5551 -0.0142
 9148TIP3    H148859   4.614   3.311  11.385  0.2938  0.6620 -0.7871
 9148TIP3    H248860   4.476   3.368  11.361 -0.3147 -0.4332  0.0416
 9149TIP3   OH248861   2.107   1.243  15.168  0.0329  0.1436 -0.3176
 9149TIP3    H148862   2.037   1.185  15.137 -0.6257 -0.4513  2.0749
 9149TIP3    H248863   2.067   1.330  15.170 -0.9427 -0.2777  1.5898
 9150TIP3   OH248864   5.909   0.327  15.205 -0.1855 -0.0165  0.1069
 9150TIP3    H148865   5.933   0.419  15.213 -0.3046  0.0219  0.0237
 9150TIP3    H248866   5.957   0.283  15.276  0.9372 -0.0921 -0.6586
 9151TIP3   OH248867   1.098   2.829   2.630 -0.2775  0.2781  0.3657
 9151TIP3    H148868   1.130   2.795   2.547 -2.0430 -0.9445  0.1089
 9151TIP3    H248869   1.172   2.822   2.690  0.2330 -1.4120 -0.4180
 9152TIP3   OH248870   1.852   6.428  10.984  0.1022  0.3980  0.4733
 9152TIP3    H148871   1.766   6.392  11.007  0.1145 -0.9211 -1.3538
 9152TIP3    H248872   1.832   6.501  10.926  0.1934  0.3583  0.3921
 9153TIP3   OH248873   5.001   5.437  13.418 -0.7125 -0.3792 -0.4008
 9153TIP3    H148874   4.994   5.342  13.405 -0.7216 -0.4295 -0.0448
 9153TIP3    H248875   5.063   5.447  13.490 -0.0576 -0.0756 -1.0056
 9154TIP3   OH248876   2.592   6.598   2.655 -0.0563 -0.1364 -0.4036
 9154TIP3    H148877   2.542   6.566   2.729 -0.3489  1.7416  0.2720
 9154TIP3    H248878   2.610   6.690   2.676  0.3921  0.2804 -2.3680
 9155TIP3   OH248879   6.358   3.899   6.804 -0.3009 -0.3425  0.7590
 9155TIP3    H148880   6.348   3.817   6.853 -0.4620 -1.3352 -0.8687
 9155TIP3    H248881   6.449   3.896   6.772 -0.7674 -0.6506 -0.5881
 9156TIP3   OH248882   5.829   5.268   5.530 -0.0561 -0.0785 -0.2086
 9156TIP3    H148883   5.847   5.266   5.436  0.0049  2.3285 -0.3297
 9156TIP3    H248884   5.915   5.254   5.571  0.0126 -0.5714 -0.5125
 9157TIP3   OH248885   1.637   6.760   0.445  0.9050 -0.5887  0.2697
 9157TIP3    H148886   1.569   6.698   0.473  3.4706 -2.9331  1.8219
 9157TIP3    H248887   1.701   6.705   0.398  2.4988  1.1906  0.2586
 9158TIP3   OH248888   0.652   2.891   2.942  0.1980 -0.1413 -0.1765
 9158TIP3    H148889   0.643   2.834   2.865  0.4265 -0.3650 -0.0379
 9158TIP3    H248890   0.614   2.841   3.014 -0.9091  0.4631 -0.3246
 9159TIP3   OH248891   3.485   3.588  12.612  0.0888  0.2939  0.0140
 9159TIP3    H148892   3.480   3.680  12.637  1.2808  0.0187  1.4557
 9159TIP3    H248893   3.446   3.583  12.525 -0.8601  1.9925  0.3154
 9160TIP3   OH248894   3.682   0.411   4.792  0.7347  0.1578  0.3964
 9160TIP3    H148895   3.777   0.408   4.806  0.6094  0.4430  1.3812
 9160TIP3    H248896   3.645   0.421   4.879 -0.3138 -1.9248  0.2509
 9161TIP3   OH248897   0.663   5.032   5.202  0.0874 -0.5506 -0.2211
 9161TIP3    H148898   0.590   5.023   5.264  0.4928 -2.3802  0.0462
 9161TIP3    H248899   0.739   5.000   5.250  1.2398  1.8650 -0.3069
 9162TIP3   OH248900   1.397   2.800  16.681 -0.2575  0.0674  0.2144
 9162TIP3    H148901   1.390   2.885  16.724  0.7518  0.0313  0.4730
 9162TIP3    H248902   1.367   2.815  16.591  2.0233  1.2369 -0.4166
 9163TIP3   OH248903   0.018   0.383   3.081 -0.4277  0.2940  0.3398
 9163TIP3    H148904   0.105   0.375   3.119 -0.3544 -0.4181  0.0371
 9163TIP3    H248905   0.020   0.466   3.032 -0.4021  1.0223  1.5397
 9164TIP3   OH248906   3.244   5.549  11.532  0.3520  0.6038 -0.3406
 9164TIP3    H148907   3.206   5.634  11.512 -1.1002  0.3180  0.9862
 9164TIP3    H248908   3.236   5.499  11.450 -1.5841  0.7901 -0.3124
 9165TIP3   OH248909   0.261   5.909   2.975  0.1832 -0.2400 -0.6308
 9165TIP3    H148910   0.283   5.863   3.056 -0.7492 -0.6937 -0.6249
 9165TIP3    H248911   0.289   5.850   2.905  0.1079 -0.2751 -0.6313
 9166TIP3   OH248912   3.559   0.413   0.201  0.4069 -0.4038 -0.1918
 9166TIP3    H148913   3.594   0.502   0.205 -0.0543 -0.2336  2.5091
 9166TIP3    H248914   3.480   0.420   0.147  0.8274  0.6511 -0.6810
 9167TIP3   OH248915   6.444   0.667   3.698  0.1485  0.4989  0.3722
 9167TIP3    H148916   6.503   0.640   3.768  0.4780  2.0799  0.7596
 9167TIP3    H248917   6.468   0.612   3.623  1.4986  0.4875  0.7828
 9168TIP3   OH248918   1.751   0.437  13.159  0.4151  0.0464 -0.6671
 9168TIP3    H148919   1.796   0.354  13.175 -0.8530 -0.5275  0.0571
 9168TIP3    H248920   1.789   0.469  13.078  2.7669  0.0473  0.3570
 9169TIP3   OH248921   5.889   0.094  15.665  0.6066 -0.4056  0.9295
 9169TIP3    H148922   5.793   0.093  15.663  0.6244 -0.5294  0.0208
 9169TIP3    H248923   5.910   0.169  15.721 -0.0314  1.1291 -0.7770
 9170TIP3   OH248924   0.217   4.847   1.650 -0.2040 -0.2716 -0.4251
 9170TIP3    H148925   0.215   4.869   1.743 -0.9785 -0.9940 -0.2593
 9170TIP3    H248926   0.212   4.752   1.648  0.8911 -0.3378 -1.1846
 9171TIP3   OH248927   3.911   3.455  14.435  0.2884 -0.5324  0.7387
 9171TIP3    H148928   3.933   3.479  14.345 -1.3604 -0.0358  0.4320
 9171TIP3    H248929   3.979   3.496  14.488  1.0612 -0.5095 -0.2434
 9172TIP3   OH248930   0.000   2.673   2.911 -0.2604  0.6178  0.0849
 9172TIP3    H148931   0.013   2.579   2.896  2.4587  1.1596 -1.7803
 9172TIP3    H248932  -0.010   2.710   2.823  1.9254  2.3690  0.4684
 9173TIP3   OH248933   6.606   0.420  16.213 -0.4137  0.1364  0.0304
 9173TIP3    H148934   6.660   0.390  16.286 -0.0001 -0.5740 -0.5578
 9173TIP3    H248935   6.520   0.382  16.229 -0.1224 -0.6599 -0.2456
 9174TIP3   OH248936   2.816   1.301  12.045 -0.2457 -0.2793 -0.5568
 9174TIP3    H148937   2.795   1.303  12.139  0.5043  1.3872 -0.3966
 9174TIP3    H248938   2.759   1.367  12.006  0.3882 -0.0208 -1.0658
 9175TIP3   OH248939   3.731   2.690   4.620  0.3895  0.2880 -0.1148
 9175TIP3    H148940   3.672   2.731   4.683 -1.0551 -1.6029 -0.1225
 9175TIP3    H248941   3.761   2.761   4.564  0.4061  1.7610  1.6707
 9176TIP3   OH248942   5.554   0.333  12.639  0.2844  0.3543 -0.2388
 9176TIP3    H148943   5.513   0.274  12.703  0.8018  1.1667  0.8767
 9176TIP3    H248944   5.632   0.365  12.684  0.4957  1.1724 -1.1851
 9177TIP3   OH248945   4.173   4.360   1.842  0.6712 -0.2133  0.3736
 9177TIP3    H148946   4.187   4.373   1.936  2.4253 -2.7529  0.5723
 9177TIP3    H248947   4.105   4.294   1.836 -0.7887  1.2643 -0.2747
 9178TIP3   OH248948   2.246   4.825   1.498 -0.3698  0.4716  0.4829
 9178TIP3    H148949   2.209   4.792   1.416  1.1228 -1.1030  0.4015
 9178TIP3    H248950   2.177   4.809   1.563 -1.0129  0.4467 -0.1870
 9179TIP3   OH248951   6.531   6.772   0.111 -0.6093 -0.0101  0.4332
 9179TIP3    H148952   6.613   6.743   0.072 -1.8060 -1.6354 -1.0205
 9179TIP3    H248953   6.514   6.857   0.072 -0.7430 -0.7006 -1.0924
 9180TIP3   OH248954   6.292   2.584   4.194  0.1341 -0.3255  1.0570
 9180TIP3    H148955   6.229   2.599   4.265  0.6502  1.0823  1.2537
 9180TIP3    H248956   6.367   2.639   4.217 -0.0482  0.8940 -1.0256
 9181TIP3   OH248957   4.106   4.164  16.786 -0.3775 -0.0113 -0.0586
 9181TIP3    H148958   4.142   4.099  16.847  0.3600  2.8859  2.8880
 9181TIP3    H248959   4.183   4.205  16.747 -0.7230  0.6978 -0.0107
 9182TIP3   OH248960   4.283   1.429  13.773  0.2367 -0.2879  0.0247
 9182TIP3    H148961   4.350   1.404  13.838  0.2581 -3.8088 -1.1770
 9182TIP3    H248962   4.227   1.352  13.765 -0.6155  0.5151 -3.0973
 9183TIP3   OH248963   6.466   6.533  12.711  0.3775 -0.3026 -0.5264
 9183TIP3    H148964   6.377   6.504  12.692  0.9116 -2.3850 -0.1522
 9183TIP3    H248965   6.481   6.606  12.651 -1.1790 -0.6539 -1.4076
 9184TIP3   OH248966   0.156   3.709  14.330  0.2268 -0.0959 -0.8483
 9184TIP3    H148967   0.166   3.665  14.245  0.6420  1.1265 -1.4499
 9184TIP3    H248968   0.116   3.793  14.309 -1.2483 -0.4541  0.3709
 9185TIP3   OH248969   4.205   4.165  14.592 -0.2332  0.2453 -0.3838
 9185TIP3    H148970   4.235   4.084  14.634  0.1987 -0.1105 -1.3422
 9185TIP3    H248971   4.112   4.170  14.613  0.1284  0.5316  1.3094
 9186TIP3   OH248972   6.767   0.614   0.696  0.1160  0.3508 -0.2076
 9186TIP3    H148973   6.791   0.541   0.753  0.7462  0.2299 -0.6161
 9186TIP3    H248974   6.711   0.669   0.751  1.0633  0.4663  0.6886
 9187TIP3   OH248975   4.183   1.187  14.694  0.2230  0.0659 -0.0073
 9187TIP3    H148976   4.200   1.281  14.697  1.2496 -0.1143  0.1071
 9187TIP3    H248977   4.199   1.162  14.603  0.5216 -0.1009  0.0907
 9188TIP3   OH248978   4.339   5.754  11.691 -0.3020 -0.9627 -0.3977
 9188TIP3    H148979   4.396   5.724  11.761  1.3177  0.5659 -0.9952
 9188TIP3    H248980   4.251   5.750  11.729  0.4439 -0.8895  1.4694
 9189TIP3   OH248981   4.567   3.529   3.102  0.0140 -0.1249 -0.2028
 9189TIP3    H148982   4.488   3.504   3.150 -1.7730  0.8102 -2.4604
 9189TIP3    H248983   4.572   3.467   3.030  0.2530  0.9168 -1.1212
 9190TIP3   OH248984   4.131   6.595  17.253  0.3996 -0.2492  0.1515
 9190TIP3    H148985   4.036   6.593  17.240  0.5052 -0.5503 -0.6140
 9190TIP3    H248986   4.143   6.571  17.345 -0.2005 -1.5794 -0.0894
 9191TIP3   OH248987   0.685   3.559  17.245  0.3988 -0.7265 -0.1641
 9191TIP3    H148988   0.662   3.621  17.176  1.1294 -2.0969 -1.7254
 9191TIP3    H248989   0.780   3.564  17.251  0.3999 -1.1358  0.2431
 9192TIP3   OH248990   3.188   2.679  14.180 -0.2373 -0.2871  0.0216
 9192TIP3    H148991   3.194   2.761  14.130  0.6863 -0.1119  0.3885
 9192TIP3    H248992   3.095   2.671  14.202 -1.2116 -1.7599 -3.9157
 9193TIP3   OH248993   6.242   1.005   3.243  0.6092  0.4707 -0.4277
 9193TIP3    H148994   6.322   0.953   3.235 -0.8056 -1.6146 -2.3538
 9193TIP3    H248995   6.216   1.022   3.152  0.0138  3.0488  0.1606
 9194TIP3   OH248996   2.444   5.601  16.483  0.2390  0.1861 -0.0525
 9194TIP3    H148997   2.372   5.657  16.511 -0.7128 -1.0732  0.0821
 9194TIP3    H248998   2.457   5.623  16.391 -0.5690  0.1761 -0.1746
 9195TIP3   OH248999   4.518   4.470   1.991  0.6836  0.0538  0.8438
 9195TIP3    H149000   4.561   4.536   1.936 -1.6406 -0.4572 -1.7987
 9195TIP3    H249001   4.588   4.408   2.012  1.7464  0.3340 -1.5300
 9196TIP3   OH249002   2.271   1.088  16.401  0.0114 -0.2719  0.1340
 9196TIP3    H149003   2.318   1.167  16.374  0.4887  0.1464  2.0386
 9196TIP3    H249004   2.180   1.104  16.375  0.3141  0.4074 -0.5301
 9197TIP3   OH249005   0.334   3.663   4.852  0.4247  0.0458 -0.2445
 9197TIP3    H149006   0.410   3.692   4.802  0.3024 -0.6887 -0.8654
 9197TIP3    H249007   0.370   3.631   4.934  0.7060  0.4883 -0.1943
 9198TIP3   OH249008   1.338   3.212   4.668  0.5090 -0.1064  0.0099
 9198TIP3    H149009   1.367   3.132   4.623  1.7214 -0.2124  0.9429
 9198TIP3    H249010   1.243   3.199   4.679  0.7368 -1.6185  0.4981
 9199TIP3   OH249011   4.075   0.804  11.889 -0.7583  0.4782 -0.0794
 9199TIP3    H149012   4.088   0.883  11.941  0.9681  0.5685 -0.5867
 9199TIP3    H249013   4.153   0.751  11.905 -1.0365 -0.2983 -1.1644
 9200TIP3   OH249014   1.370   2.215  12.161  0.0843 -0.4236  0.1349
 9200TIP3    H149015   1.276   2.213  12.145  0.4430  1.6802 -3.1453
 9200TIP3    H249016   1.406   2.152  12.099  0.9817  1.3260 -1.2233
 9201TIP3   OH249017   6.379   2.385   0.176  0.4664  0.5340  0.6099
 9201TIP3    H149018   6.354   2.462   0.227  1.7003 -0.3783  2.7236
 9201TIP3    H249019   6.426   2.421   0.101 -2.1715  1.9725 -0.4886
 9202TIP3   OH249020   3.809   6.763  16.240  0.4411  0.6754  0.0807
 9202TIP3    H149021   3.877   6.734  16.180 -0.0329  0.3531 -0.3014
 9202TIP3    H249022   3.775   6.843  16.200  0.5690  0.8208  0.2575
 9203TIP3   OH249023   0.175   3.008   1.945  0.0098 -0.2177  0.1675
 9203TIP3    H149024   0.231   2.930   1.944  1.1361  0.5652 -0.1486
 9203TIP3    H249025   0.176   3.037   2.036 -0.4538 -0.5838  0.2961
 9204TIP3   OH249026   4.375   2.518  14.096  0.3626 -0.6566  0.4418
 9204TIP3    H149027   4.408   2.436  14.058  1.1848 -0.9426  1.7114
 9204TIP3    H249028   4.418   2.524  14.181 -0.1647  0.7961  0.6346
 9205TIP3   OH249029   4.966   4.632  11.294 -0.0481 -0.3606 -0.4899
 9205TIP3    H149030   4.933   4.550  11.258 -1.6039  0.4833 -1.0675
 9205TIP3    H249031   4.996   4.682  11.219  0.0106 -0.0173 -0.2432
 9206TIP3   OH249032   3.677   4.293  15.602 -0.0728  0.1306  0.3290
 9206TIP3    H149033   3.628   4.274  15.682 -0.1980 -1.6075 -0.1219
 9206TIP3    H249034   3.616   4.340  15.547 -1.4567 -2.2844 -0.3558
 9207TIP3   OH249035   4.044   6.274   0.035  0.8055  0.8061 -0.0484
 9207TIP3    H149036   4.120   6.277  -0.024  0.0007 -0.0858 -1.1598
 9207TIP3    H249037   4.053   6.354   0.088  2.8924  0.3869  0.3561
 9208TIP3   OH249038   3.234   2.911  15.380 -0.3855 -0.3878 -0.7687
 9208TIP3    H149039   3.145   2.909  15.345 -0.0860 -1.2829 -1.5460
 9208TIP3    H249040   3.264   2.820  15.373 -0.7658 -0.9563  3.1678
 9209TIP3   OH249041   1.944   4.307   1.927 -0.0738 -0.6913  0.6236
 9209TIP3    H149042   1.916   4.392   1.961 -1.0907 -1.4069  1.6768
 9209TIP3    H249043   1.948   4.319   1.832 -1.1302  0.2700  0.6794
 9210TIP3   OH249044   3.752   3.208   2.324 -0.2478 -0.0209  0.2967
 9210TIP3    H149045   3.832   3.189   2.275  1.1527  2.4290  1.4359
 9210TIP3    H249046   3.686   3.225   2.257 -0.0451 -2.5865 -0.6665
 9211TIP3   OH249047   6.121   6.084   2.218  0.1741 -0.5411 -0.4985
 9211TIP3    H149048   6.031   6.099   2.189  0.8612  1.1640 -1.9465
 9211TIP3    H249049   6.161   6.032   2.148  0.0648 -2.2876  0.6657
 9212TIP3   OH249050   0.742   0.749  11.834  0.2328  0.0577  0.0918
 9212TIP3    H149051   0.773   0.660  11.846  0.1291  0.1024  0.7603
 9212TIP3    H249052   0.659   0.752  11.881  0.0014  0.3739 -0.3319
 9213TIP3   OH249053   6.227   5.454   0.623  0.6478 -0.0751 -0.1551
 9213TIP3    H149054   6.144   5.426   0.583 -0.5153  0.6576  1.6064
 9213TIP3    H249055   6.217   5.549   0.632  0.9091 -0.1820  1.6544
 9214TIP3   OH249056   1.233   4.159   5.210 -0.5269  0.5508 -0.1974
 9214TIP3    H149057   1.247   4.218   5.136  0.2233 -0.1899 -0.6548
 9214TIP3    H249058   1.207   4.076   5.170 -0.0932  0.1358  0.3712
 9215TIP3   OH249059   4.206   2.951  16.786 -0.1421  0.1988  0.1202
 9215TIP3    H149060   4.153   2.880  16.821 -1.5269  1.2142  0.1646
 9215TIP3    H249061   4.262   2.909  16.720  0.1434 -1.1629  1.1857
 9216TIP3   OH249062   1.597   3.315  15.065 -0.3580  0.1543 -0.1619
 9216TIP3    H149063   1.602   3.219  15.069 -0.9893  0.0403 -1.4636
 9216TIP3    H249064   1.555   3.340  15.147  0.6907 -0.5952  0.6332
 9217TIP3   OH249065   0.518   0.220   3.244 -0.2516  0.1937 -0.0832
 9217TIP3    H149066   0.492   0.306   3.277  1.2609  0.6332  0.0698
 9217TIP3    H249067   0.469   0.208   3.163 -1.3569  0.6700  0.5020
 9218TIP3   OH249068   3.940   5.935  13.566 -0.3937  0.3952  0.1235
 9218TIP3    H149069   3.969   6.027  13.568  1.0644 -0.0349  1.0107
 9218TIP3    H249070   3.998   5.893  13.503 -1.1580  0.1096 -0.3916
 9219TIP3   OH249071   1.230   2.817   1.306  0.3033  0.2153  0.5381
 9219TIP3    H149072   1.310   2.868   1.291  0.2884  0.2046  0.4243
 9219TIP3    H249073   1.262   2.733   1.339  0.2535  1.0418  2.8606
 9220TIP3   OH249074   6.190   4.247  16.349 -0.1493  0.6884  0.2045
 9220TIP3    H149075   6.278   4.209  16.352 -0.3435  0.2492  0.5455
 9220TIP3    H249076   6.139   4.184  16.299 -0.4411  0.5598  0.6550
 9221TIP3   OH249077   4.686   1.699   4.283  0.0803 -0.9039  0.5629
 9221TIP3    H149078   4.684   1.696   4.187  0.2842  1.6257  0.4292
 9221TIP3    H249079   4.598   1.729   4.308  0.7611  0.8590  0.9838
 9222TIP3   OH249080   6.142   1.529  14.548 -0.3199  0.1628 -0.2329
 9222TIP3    H149081   6.076   1.496  14.609 -0.1444 -1.0656 -0.6841
 9222TIP3    H249082   6.225   1.518  14.593 -0.0196 -2.1979 -1.2069
 9223TIP3   OH249083   3.433   5.917   0.192 -0.1683 -0.9561  0.4115
 9223TIP3    H149084   3.355   5.927   0.137 -0.0483 -4.5906 -0.7070
 9223TIP3    H249085   3.500   5.883   0.133  2.0252  1.0076  1.5956
 9224TIP3   OH249086   6.196   1.863  10.995  0.5046 -0.6993 -0.6620
 9224TIP3    H149087   6.164   1.794  11.053 -2.3759  1.0359  0.0253
 9224TIP3    H249088   6.131   1.868  10.925 -0.1951  2.1365  0.0506
 9225TIP3   OH249089   2.381   5.169  16.165  0.5176  0.4782 -0.0367
 9225TIP3    H149090   2.293   5.179  16.129  0.0960 -1.9041  0.1666
 9225TIP3    H249091   2.379   5.085  16.210  2.7569  0.6240  0.4554
 9226TIP3   OH249092   3.801   5.568   2.520  0.2472  0.7021  0.2279
 9226TIP3    H149093   3.883   5.617   2.517  0.0286  1.0485 -0.6657
 9226TIP3    H249094   3.738   5.630   2.557  0.7995 -0.2631  3.0302
 9227TIP3   OH249095   3.435   4.208  11.480 -0.4574 -0.2468  0.4027
 9227TIP3    H149096   3.413   4.160  11.560 -1.3740  0.2831  0.4861
 9227TIP3    H249097   3.350   4.237  11.446 -0.0703 -0.3719 -0.7048
 9228TIP3   OH249098   4.286   2.332  15.158 -0.0859  0.1211 -0.1141
 9228TIP3    H149099   4.304   2.397  15.226 -1.5833 -0.4410  0.8838
 9228TIP3    H249100   4.190   2.329  15.153 -0.1465 -2.8798  0.8019
 9229TIP3   OH249101   4.516   0.514  12.294 -0.0105 -0.1805  0.4642
 9229TIP3    H149102   4.521   0.465  12.212 -0.0860 -1.2645  1.0863
 9229TIP3    H249103   4.494   0.449  12.360 -0.0024  0.6793  1.3488
 9230TIP3   OH249104   1.458   3.599   4.814  0.2668 -0.0837  0.6932
 9230TIP3    H149105   1.453   3.615   4.720  0.7064  1.8501  0.9435
 9230TIP3    H249106   1.389   3.535   4.832 -2.0454  1.9145 -0.4879
 9231TIP3   OH249107   4.463   2.094  14.839 -0.1727 -0.1636 -0.2174
 9231TIP3    H149108   4.450   2.189  14.843  3.0563  0.4273 -1.0414
 9231TIP3    H249109   4.427   2.068  14.754 -0.5091  0.4187 -0.2545
 9232TIP3   OH249110   3.151   5.261  12.330 -0.0051 -0.1231  0.1551
 9232TIP3    H149111   3.109   5.338  12.368 -0.1035  1.0309 -2.0957
 9232TIP3    H249112   3.135   5.269  12.236  1.2580 -2.1308 -0.2978
 9233TIP3   OH249113   1.936   2.060   1.548  0.0018 -0.3600  0.3986
 9233TIP3    H149114   1.963   2.127   1.486 -0.2516 -0.4074  0.2359
 9233TIP3    H249115   1.880   2.001   1.498  0.5483 -0.9251  0.4411
 9234TIP3   OH249116   0.569   1.652  14.115  0.6390  1.2282 -0.4423
 9234TIP3    H149117   0.597   1.571  14.158  0.4247  0.7496 -1.1986
 9234TIP3    H249118   0.515   1.624  14.042 -0.0780  2.0858 -0.2585
 9235TIP3   OH249119   2.267   0.292  16.057 -0.0624  0.0467  0.1861
 9235TIP3    H149120   2.190   0.236  16.057  0.4556 -0.7415 -1.9386
 9235TIP3    H249121   2.240   0.370  16.008  1.1155 -1.3431 -2.9651
 9236TIP3   OH249122   2.389   2.555   0.235  0.1185  0.1500  0.0830
 9236TIP3    H149123   2.467   2.508   0.265 -1.1774 -2.9551 -0.9821
 9236TIP3    H249124   2.329   2.551   0.310  0.2941  0.9710  0.2844
 9237TIP3   OH249125   5.678   2.809   5.528 -0.6955 -0.1113 -0.2611
 9237TIP3    H149126   5.623   2.766   5.462 -1.3727  0.7628 -0.3010
 9237TIP3    H249127   5.737   2.864   5.477  0.4991 -1.3427 -0.2332
 9238TIP3   OH249128   5.527   3.578   5.084 -0.0832 -0.4871 -0.2430
 9238TIP3    H149129   5.601   3.560   5.142 -0.0357  2.9393  1.0061
 9238TIP3    H249130   5.565   3.575   4.996  0.9267 -1.2784  0.1925
 9239TIP3   OH249131   1.461   4.047  13.108  0.1205 -0.4033  0.3424
 9239TIP3    H149132   1.387   4.051  13.168 -1.0821 -2.2703 -0.9466
 9239TIP3    H249133   1.538   4.045  13.165 -0.9214 -0.8560  1.7693
 9240TIP3   OH249134   5.402   5.538   0.775  0.1363 -0.0510 -0.3440
 9240TIP3    H149135   5.377   5.450   0.748 -1.0971  0.9801 -2.8584
 9240TIP3    H249136   5.493   5.547   0.746  1.0154 -1.1394  1.8370
 9241TIP3   OH249137   1.440   3.028   4.428 -0.3968 -0.7065 -0.6587
 9241TIP3    H149138   1.494   2.983   4.363 -0.1910  0.9779 -1.7295
 9241TIP3    H249139   1.503   3.076   4.482 -0.7339  1.3726 -1.9955
 9242TIP3   OH249140   5.258   0.380  15.949  0.2724  0.1747 -0.3990
 9242TIP3    H149141   5.219   0.375  15.862 -0.5175  0.4261 -0.0721
 9242TIP3    H249142   5.285   0.472  15.957 -0.6088  0.4024  0.0146
 9243TIP3   OH249143   5.721   5.532  12.693  0.2260  0.1755 -0.0037
 9243TIP3    H149144   5.746   5.450  12.735 -2.2996 -0.3045  0.7597
 9243TIP3    H249145   5.708   5.594  12.765 -1.1377  0.2467 -0.2794
 9244TIP3   OH249146   2.804   4.797  17.022  0.0262 -0.2535 -0.4003
 9244TIP3    H149147   2.785   4.729  16.957 -2.0310  1.1601 -1.4017
 9244TIP3    H249148   2.717   4.825  17.053  0.9118 -0.8111  2.9721
 9245TIP3   OH249149   1.535   0.729   1.790  0.2669 -0.2499 -0.0904
 9245TIP3    H149150   1.517   0.751   1.882  0.8784  1.2200 -0.2924
 9245TIP3    H249151   1.468   0.665   1.767  0.8624 -1.6336  1.7459
 9246TIP3   OH249152   0.660   3.911  15.558  0.3094 -0.1387 -0.3965
 9246TIP3    H149153   0.581   3.860  15.542 -0.5490  1.3959 -1.3835
 9246TIP3    H249154   0.639   3.963  15.635 -0.1688  1.1580 -1.3550
 9247TIP3   OH249155   4.917   1.265  13.935  1.0848 -0.0499 -0.1303
 9247TIP3    H149156   4.943   1.272  14.026  1.4923  0.3750 -0.2750
 9247TIP3    H249157   4.885   1.175  13.926  0.0418  0.2238  0.6785
 9248TIP3   OH249158   3.205   1.763  14.481 -0.5469  0.0594  0.3727
 9248TIP3    H149159   3.196   1.744  14.387  0.4444 -2.2743  0.6806
 9248TIP3    H249160   3.133   1.823  14.501 -0.0804  1.5995 -2.0996
 9249TIP3   OH249161   6.496   3.057   4.828 -0.3865 -0.0661  0.5083
 9249TIP3    H149162   6.499   3.135   4.883 -2.8394  0.7228 -0.3239
 9249TIP3    H249163   6.415   3.013   4.855 -1.4801  0.1553 -2.1421
 9250TIP3   OH249164   1.763   6.497  15.159  0.5195  0.3193  0.0035
 9250TIP3    H149165   1.674   6.476  15.186  0.2649  1.9694  0.5882
 9250TIP3    H249166   1.818   6.472  15.233  0.0140  3.2160  1.5269
 9251TIP3   OH249167   5.107   3.435   0.267  0.4900  0.0287  0.4266
 9251TIP3    H149168   5.141   3.487   0.194  0.4991  0.9316  1.0537
 9251TIP3    H249169   5.061   3.499   0.321  1.4732 -0.4133  1.8236
 9252TIP3   OH249170   0.234   4.461   6.304 -0.2146 -0.3135  0.0126
 9252TIP3    H149171   0.226   4.533   6.366 -1.6407  0.7192 -1.2922
 9252TIP3    H249172   0.168   4.397   6.333 -0.9863  0.2353 -0.4983
 9253TIP3   OH249173   1.047   2.323  13.318 -0.2929  0.1816  0.5313
 9253TIP3    H149174   1.115   2.387  13.298 -0.4923 -0.0774 -1.1635
 9253TIP3    H249175   0.980   2.373  13.365  0.0758  0.9603  0.2523
 9254TIP3   OH249176   6.000   4.673   5.055  0.2769 -0.0314  0.4571
 9254TIP3    H149177   5.913   4.702   5.027  0.3203  0.1127  0.4722
 9254TIP3    H249178   5.983   4.593   5.104  0.3774 -1.4751 -1.7444
 9255TIP3   OH249179   2.530   3.370  11.712  0.5619  0.1339 -0.3971
 9255TIP3    H149180   2.523   3.284  11.672  0.2480  0.6639 -1.5135
 9255TIP3    H249181   2.456   3.375  11.772  0.8868 -0.5618  0.0871
 9256TIP3   OH249182   6.503   1.875  14.131 -0.9949  0.0559 -0.2881
 9256TIP3    H149183   6.426   1.850  14.080 -0.3134  0.3623 -1.4880
 9256TIP3    H249184   6.573   1.819  14.098 -0.3882  0.7261 -0.1624
 9257TIP3   OH249185   3.085   2.210   0.495 -0.0334 -0.0432  0.4265
 9257TIP3    H149186   3.018   2.150   0.529 -1.2957  1.1015  0.0647
 9257TIP3    H249187   3.092   2.278   0.562  1.8170 -0.8408  1.1139
 9258TIP3   OH249188   2.284   2.139  15.914 -0.2572 -0.8393 -0.1671
 9258TIP3    H149189   2.298   2.173  16.003 -3.3232  0.6884 -0.1537
 9258TIP3    H249190   2.367   2.156  15.869  0.2167  1.6380  1.4367
 9259TIP3   OH249191   3.927   2.592   0.476 -0.0021 -0.7741  0.0643
 9259TIP3    H149192   3.833   2.595   0.488 -0.0874  1.8095 -0.7496
 9259TIP3    H249193   3.940   2.546   0.393 -0.5037 -1.4087  0.3306
 9260TIP3   OH249194   4.334   2.160  11.220  0.2509  0.6212 -0.2737
 9260TIP3    H149195   4.340   2.066  11.208 -2.4805  0.2619  0.4914
 9260TIP3    H249196   4.415   2.195  11.183  0.6590 -1.8882 -1.9273
 9261TIP3   OH249197   1.690   5.547  11.803  0.6632  0.4732 -0.1416
 9261TIP3    H149198   1.751   5.509  11.740  0.7035  2.8963 -1.6760
 9261TIP3    H249199   1.740   5.614  11.848  0.1662 -0.1385  1.3850
 9262TIP3   OH249200   6.103   0.440  16.961 -0.0081  0.2478 -0.0347
 9262TIP3    H149201   6.030   0.381  16.940  0.6368  0.1812 -2.3988
 9262TIP3    H249202   6.061   0.525  16.974 -0.7596 -0.3305  1.5227
 9263TIP3   OH249203   3.239   2.466  14.392 -0.5649  0.3678 -0.6665
 9263TIP3    H149204   3.222   2.520  14.314 -2.3676  0.7030 -0.0895
 9263TIP3    H249205   3.162   2.410  14.399  1.2636 -2.4199 -1.2721
 9264TIP3   OH249206   5.482   1.137   0.293 -0.2979 -0.3516 -0.0433
 9264TIP3    H149207   5.465   1.231   0.295 -0.8845 -0.4304 -0.9562
 9264TIP3    H249208   5.549   1.124   0.361  0.3983  0.8406 -0.4682
 9265TIP3   OH249209   3.429   4.769  13.548 -0.8469  0.3639 -0.1383
 9265TIP3    H149210   3.464   4.725  13.625  0.7792 -0.7400 -1.4272
 9265TIP3    H249211   3.361   4.710  13.515  1.9669 -1.9521 -2.4106
 9266TIP3   OH249212   5.537   6.449   5.518  0.9514 -0.4040  0.2829
 9266TIP3    H149213   5.443   6.437   5.505  1.3572 -1.2729 -2.2569
 9266TIP3    H249214   5.546   6.541   5.543 -0.4422  0.1178 -1.0263
 9267TIP3   OH249215   2.348   5.423   5.902 -0.3732  0.0180 -0.0697
 9267TIP3    H149216   2.367   5.430   5.996  1.1598  0.0030 -0.3506
 9267TIP3    H249217   2.408   5.485   5.861 -1.3691  0.3726 -1.0134
 9268TIP3   OH249218   4.867   4.147   2.950 -0.3771  0.1006  0.3122
 9268TIP3    H149219   4.780   4.108   2.961  0.6938 -1.8412  2.8947
 9268TIP3    H249220   4.918   4.080   2.905  0.3555  0.3307  0.7841
 9269TIP3   OH249221   4.053   4.980  16.021  0.3314  0.3973 -0.1579
 9269TIP3    H149222   4.140   5.018  16.019 -0.1573  1.5147 -0.8246
 9269TIP3    H249223   4.035   4.955  15.931 -0.2512  0.6809 -0.1248
 9270TIP3   OH249224   3.820   0.391  14.561  1.0237  0.2623 -0.2773
 9270TIP3    H149225   3.847   0.353  14.478  0.0060  0.6134 -0.7948
 9270TIP3    H249226   3.744   0.340  14.587  0.3316  1.2021 -0.4138
 9271TIP3   OH249227   1.429   2.672  11.388  0.0474  0.3259  0.3422
 9271TIP3    H149228   1.448   2.757  11.348  1.2580  0.6316  1.4771
 9271TIP3    H249229   1.455   2.608  11.322  1.3543  0.8240  0.3277
 9272TIP3   OH249230   3.261   5.578   1.751  0.1701  0.0207 -0.3301
 9272TIP3    H149231   3.203   5.606   1.680  1.3088  2.3659 -0.4595
 9272TIP3    H249232   3.250   5.483   1.756 -3.8778  0.3124 -0.1021
 9273TIP3   OH249233   3.553   0.256  11.301 -0.0871  0.2531  0.5449
 9273TIP3    H149234   3.575   0.170  11.337 -0.9533 -1.0783 -1.9509
 9273TIP3    H249235   3.636   0.289  11.266  0.0755  0.0556  0.7400
 9274TIP3   OH249236   1.943   6.757   6.290 -0.4166 -0.0325 -0.8856
 9274TIP3    H149237   1.918   6.833   6.237  1.0424 -0.6522 -2.5772
 9274TIP3    H249238   1.902   6.683   6.246 -0.6449 -0.3818 -0.0957
 9275TIP3   OH249239   1.463   5.202   4.309 -0.0696  0.2691 -0.1374
 9275TIP3    H149240   1.559   5.201   4.314  0.0283 -1.0430 -1.6865
 9275TIP3    H249241   1.442   5.294   4.290  1.0494  0.1867 -1.9889
 9276TIP3   OH249242   0.752   4.935   5.997  0.3320  0.1688  0.3933
 9276TIP3    H149243   0.724   4.951   5.907  0.2166 -0.1112  0.3785
 9276TIP3    H249244   0.670   4.926   6.047  0.3805 -1.2048  0.2517
 9277TIP3   OH249245   5.806   4.008   2.420 -0.6930  0.5553 -0.3866
 9277TIP3    H149246   5.734   4.070   2.420 -2.1999 -1.1128  0.2233
 9277TIP3    H249247   5.852   4.025   2.502 -2.1135 -0.1858  0.6175
 9278TIP3   OH249248   6.338   3.778  10.980  0.6502  0.3236  0.1844
 9278TIP3    H149249   6.371   3.708  11.037  2.2087 -0.2459 -1.3225
 9278TIP3    H249250   6.269   3.736  10.929 -0.5298  0.7497  1.3813
 9279TIP3   OH249251   2.190   4.277  13.652 -0.7231  0.1423  0.1474
 9279TIP3    H149252   2.116   4.237  13.606 -2.2837  2.1509  0.7897
 9279TIP3    H249253   2.214   4.352  13.598  1.7445 -1.1416 -0.7038
 9280TIP3   OH249254   3.624   0.147   5.039  0.3730 -0.0925 -0.4209
 9280TIP3    H149255   3.536   0.171   5.070  0.8269  3.2322 -1.3188
 9280TIP3    H249256   3.683   0.193   5.099  1.5506 -1.9793 -0.0620
 9281TIP3   OH249257   1.527   6.215   3.841 -0.0580 -0.0466 -0.2317
 9281TIP3    H149258   1.456   6.157   3.813  0.0710  0.4793 -1.7594
 9281TIP3    H249259   1.490   6.303   3.830  0.4125  0.2007  0.1485
 9282TIP3   OH249260   0.536   4.797   1.378  0.3279 -0.3686  0.4595
 9282TIP3    H149261   0.524   4.703   1.365  1.9187 -0.3376 -1.9707
 9282TIP3    H249262   0.609   4.804   1.440 -1.2559 -0.6448  2.4486
 9283TIP3   OH249263   2.839   6.164   2.958 -0.0175  0.3448  0.2675
 9283TIP3    H149264   2.828   6.227   3.028  0.4832 -0.2585  0.9002
 9283TIP3    H249265   2.929   6.176   2.928  0.0165  0.0749  0.2563
 9284TIP3   OH249266   3.324   5.667  11.802  0.2686  0.2581 -0.1056
 9284TIP3    H149267   3.336   5.619  11.884  2.6636 -1.0042 -1.0709
 9284TIP3    H249268   3.310   5.599  11.736  0.2892  1.1165 -1.0244
 9285TIP3   OH249269   0.603   2.131   4.162  0.5852 -0.1890 -0.0271
 9285TIP3    H149270   0.624   2.151   4.253  1.1262 -1.8443  0.2358
 9285TIP3    H249271   0.553   2.207   4.132  0.7358  0.5593  1.5158
 9286TIP3   OH249272   6.595   1.164   1.021  0.6654 -0.5078 -0.0383
 9286TIP3    H149273   6.616   1.074   1.047  1.8685 -0.4627 -0.7841
 9286TIP3    H249274   6.676   1.197   0.981  0.4639  1.1348  0.8218
 9287TIP3   OH249275   4.735   3.688   4.462  0.7698 -0.2778 -0.2837
 9287TIP3    H149276   4.697   3.774   4.443 -0.0315 -0.7163 -0.6989
 9287TIP3    H249277   4.678   3.651   4.530  0.8234 -0.6752 -0.4515
 9288TIP3   OH249278   3.933   5.132   5.149  0.1162 -0.0232 -0.3685
 9288TIP3    H149279   3.988   5.207   5.172  0.8340 -1.2276  2.1098
 9288TIP3    H249280   3.931   5.133   5.053 -0.1277  3.2799 -0.4416
 9289TIP3   OH249281   3.850   6.742   1.950  0.2114  0.0498  0.7549
 9289TIP3    H149282   3.817   6.673   1.892  0.0120  1.8383 -1.3934
 9289TIP3    H249283   3.793   6.738   2.026 -1.4968 -0.4703 -0.4826
 9290TIP3   OH249284   4.093   1.939  14.478 -0.7784  0.1982  0.1340
 9290TIP3    H149285   4.094   2.018  14.425  0.3446 -0.7694 -1.3657
 9290TIP3    H249286   4.045   1.964  14.557  0.5509  2.7011  0.2513
 9291TIP3   OH249287   3.412   1.971   1.166 -0.1184 -0.0816 -0.4094
 9291TIP3    H149288   3.335   2.014   1.128  0.0292 -0.8784 -1.6664
 9291TIP3    H249289   3.467   1.949   1.090  1.8141  1.2932  0.5113
 9292TIP3   OH249290   2.031   6.709  11.062  0.0658  0.1767  0.2817
 9292TIP3    H149291   1.956   6.702  11.003  0.2080 -1.8114  0.2555
 9292TIP3    H249292   1.993   6.700  11.150  0.1820 -0.1649  0.3008
 9293TIP3   OH249293   1.233   0.052   1.468  0.2907 -0.2935  0.0068
 9293TIP3    H149294   1.259   0.059   1.560  2.5278 -3.2380 -0.2344
 9293TIP3    H249295   1.300   0.101   1.421  1.3331 -1.8204 -0.1849
 9294TIP3   OH249296   0.988   0.146  11.995  0.2441  0.1608  0.1382
 9294TIP3    H149297   1.046   0.208  12.040  0.2733 -0.6963  1.3412
 9294TIP3    H249298   0.992   0.067  12.049 -0.7768 -0.4609 -0.6698
 9295TIP3   OH249299   0.324   0.493   6.087 -0.0729 -0.0312  0.5313
 9295TIP3    H149300   0.279   0.492   6.002 -0.5167 -1.6617  0.7526
 9295TIP3    H249301   0.258   0.526   6.148  0.1630  0.8921  0.3039
 9296TIP3   OH249302   4.644   1.568   3.562  0.3857  0.2796 -0.5688
 9296TIP3    H149303   4.622   1.475   3.552 -1.3221  0.8543 -3.2617
 9296TIP3    H249304   4.723   1.568   3.615  0.4243 -2.7076 -0.4277
 9297TIP3   OH249305   2.393   4.603   1.756 -0.0090  0.3326  0.0835
 9297TIP3    H149306   2.357   4.636   1.838  0.0817  1.3545 -0.2770
 9297TIP3    H249307   2.319   4.600   1.696 -0.3259 -1.5294  0.5022
 9298TIP3   OH249308   2.607   2.109  13.715  0.1799  0.0184  0.0925
 9298TIP3    H149309   2.618   2.018  13.687  1.9206 -0.0142  0.7813
 9298TIP3    H249310   2.522   2.135  13.679 -0.6663 -2.0711  0.4454
 9299TIP3   OH249311   1.827   2.288  14.788  0.0498 -0.0404  0.0391
 9299TIP3    H149312   1.810   2.193  14.790 -0.0903 -0.0031  1.3206
 9299TIP3    H249313   1.900   2.298  14.726  1.0420 -1.1560  0.9774
 9300TIP3   OH249314   4.800   2.409  12.950  0.1141 -0.3731 -0.5934
 9300TIP3    H149315   4.712   2.412  12.988 -1.1159 -0.2332 -3.2276
 9300TIP3    H249316   4.811   2.496  12.910  1.2863 -0.5207 -0.5981
 9301TIP3   OH249317   2.004   3.012  10.841  0.2236  0.4628 -0.4432
 9301TIP3    H149318   2.033   2.976  10.757  0.9422 -0.3500  0.1299
 9301TIP3    H249319   1.978   3.102  10.821 -0.6797 -0.0669 -1.7303
 9302TIP3   OH249320   0.905   2.980   0.659  0.0575  0.4521  0.6020
 9302TIP3    H149321   0.895   3.075   0.658  1.5363  0.6314 -0.9395
 9302TIP3    H249322   0.817   2.947   0.678 -0.1369  2.1233  3.0048
 9303TIP3   OH249323   6.691   3.352  12.853  0.3996  0.1758  0.5186
 9303TIP3    H149324   6.649   3.322  12.933 -0.0206  1.1507  0.6840
 9303TIP3    H249325   6.729   3.273  12.814 -3.4943 -1.2945 -0.8234
 9304TIP3   OH249326   3.542   2.348  11.035  0.1642 -0.6389  0.3129
 9304TIP3    H149327   3.489   2.280  10.995 -1.3960  1.0025 -0.5626
 9304TIP3    H249328   3.579   2.397  10.961 -1.5654  1.5410  0.7819
 9305TIP3   OH249329   1.354   3.681  16.111 -0.3047  0.0780  0.3311
 9305TIP3    H149330   1.343   3.642  16.197  0.2395  0.0265  0.3846
 9305TIP3    H249331   1.423   3.746  16.123 -1.3350  1.2220  0.2915
 9306TIP3   OH249332   0.664   5.655  17.214  0.3305  0.4551  0.3835
 9306TIP3    H149333   0.591   5.620  17.162  1.2578  2.4495 -2.5451
 9306TIP3    H249334   0.718   5.579  17.234 -1.7028 -0.8464  1.3070
 9307TIP3   OH249335   5.627   5.338  15.809 -0.0296 -0.5433 -0.1441
 9307TIP3    H149336   5.563   5.409  15.811 -0.8589 -1.2276 -1.1683
 9307TIP3    H249337   5.632   5.308  15.899 -0.8060 -0.1644  0.0350
 9308TIP3   OH249338   1.554   0.223  11.525  0.1820  0.4770 -0.0764
 9308TIP3    H149339   1.557   0.132  11.555 -1.5256  0.1986 -0.6351
 9308TIP3    H249340   1.619   0.227  11.455  0.9439 -0.0575  0.5816
 9309TIP3   OH249341   3.400   4.834  13.926  0.1310 -0.0162 -0.2156
 9309TIP3    H149342   3.306   4.817  13.930  0.3397 -0.9085  1.6128
 9309TIP3    H249343   3.408   4.907  13.864 -1.7633  0.2019 -0.2672
 9310TIP3   OH249344   1.635   2.943   3.243 -0.3334 -0.7387 -0.0245
 9310TIP3    H149345   1.729   2.952   3.258 -0.2725  0.0093 -0.7935
 9310TIP3    H249346   1.610   2.867   3.295  0.8296 -1.3914 -0.3904
 9311TIP3   OH249347   3.396   4.966   0.047 -0.3323 -0.4668  0.0285
 9311TIP3    H149348   3.456   4.928   0.111 -1.3364 -0.4480  1.0113
 9311TIP3    H249349   3.374   5.052   0.084 -0.0222  0.0331 -0.9291
 9312TIP3   OH249350   1.761   5.246   2.056 -0.0745 -0.1261 -0.0688
 9312TIP3    H149351   1.814   5.307   2.006  1.3563 -0.2764  1.1764
 9312TIP3    H249352   1.793   5.255   2.146 -2.1293 -0.3010  0.7299
 9313TIP3   OH249353   1.186   1.242   2.921  0.2236 -0.2981  0.3288
 9313TIP3    H149354   1.181   1.191   2.840  0.3726  1.9265 -1.1795
 9313TIP3    H249355   1.251   1.310   2.903  0.3819  0.1754  2.3994
 9314TIP3   OH249356   4.155   2.455  16.268  0.3509 -0.9874  0.2085
 9314TIP3    H149357   4.183   2.396  16.198 -0.1534 -0.0466 -0.8224
 9314TIP3    H249358   4.236   2.483  16.311  0.9820  0.7858 -1.9692
 9315TIP3   OH249359   3.112   2.201  16.520 -0.4824  0.1348 -0.3455
 9315TIP3    H149360   3.108   2.202  16.616 -1.3641  1.1099 -0.3780
 9315TIP3    H249361   3.099   2.292  16.494 -1.5255 -0.3043 -1.4476
 9316TIP3   OH249362   0.826   1.026   5.835 -0.3808 -0.1704 -0.4604
 9316TIP3    H149363   0.900   1.086   5.837 -0.1283 -0.4752  1.5444
 9316TIP3    H249364   0.799   1.024   5.743  0.9723  1.2983 -0.9353
 9317TIP3   OH249365   4.666   3.104  15.361  0.6582 -0.0430 -0.1694
 9317TIP3    H149366   4.614   3.179  15.334  0.8792  0.1041 -0.1845
 9317TIP3    H249367   4.608   3.029  15.347  0.5439  0.0944 -0.4430
 9318TIP3   OH249368   3.668   3.498   5.114 -0.6783  0.6093 -0.3076
 9318TIP3    H149369   3.719   3.578   5.122  0.9626 -0.3232 -0.8544
 9318TIP3    H249370   3.704   3.440   5.181 -1.1375 -0.0252 -0.5974
 9319TIP3   OH249371   3.610   2.849   0.802 -0.0209  0.1344 -0.1273
 9319TIP3    H149372   3.630   2.924   0.858  3.0562 -0.9969  0.4596
 9319TIP3    H249373   3.651   2.775   0.845 -0.6467 -1.4257 -2.0649
 9320TIP3   OH249374   4.944   3.076   5.351 -0.1823  0.0610 -0.0764
 9320TIP3    H149375   4.867   3.092   5.296 -0.8867  3.6656  1.5916
 9320TIP3    H249376   4.908   3.062   5.438  0.9987 -0.3045  0.3714
 9321TIP3   OH249377   3.607   0.357   3.427  0.0974  0.4787  0.0942
 9321TIP3    H149378   3.608   0.446   3.391 -1.4072  0.6617  0.4571
 9321TIP3    H249379   3.588   0.369   3.520 -1.6132 -0.2761 -0.1282
 9322TIP3   OH249380   6.598   2.323   4.008  1.4334  0.3272  0.0005
 9322TIP3    H149381   6.639   2.392   3.956 -1.8636  1.6800 -1.0129
 9322TIP3    H249382   6.578   2.364   4.092 -0.0177  0.4858 -0.3974
 9323TIP3   OH249383   3.734   0.836  17.144  0.2368 -0.1512 -0.1207
 9323TIP3    H149384   3.757   0.916  17.097  0.0257  0.3136  0.5409
 9323TIP3    H249385   3.735   0.767  17.077 -0.6332  0.5837 -0.9299
 9324TIP3   OH249386   4.575   3.849  11.001  0.6253  0.1628 -0.4603
 9324TIP3    H149387   4.628   3.863  10.922  0.3105  1.6445 -0.4339
 9324TIP3    H249388   4.538   3.935  11.020 -0.4929 -0.5062  0.4576
 9325TIP3   OH249389   6.300   1.772  14.009  0.0329 -0.0569 -0.2136
 9325TIP3    H149390   6.226   1.758  14.068 -0.5956  0.6560 -0.8211
 9325TIP3    H249391   6.261   1.797  13.926  0.9597  0.5975 -0.4763
 9326TIP3   OH249392   3.696   2.605   3.532 -0.0790  0.2025 -0.1670
 9326TIP3    H149393   3.711   2.562   3.616 -2.4558 -0.0416  0.1953
 9326TIP3    H249394   3.717   2.697   3.547  2.5089 -0.2867 -0.2306
 9327TIP3   OH249395   0.569   4.660   0.248  0.4340  0.0948 -0.1291
 9327TIP3    H149396   0.597   4.725   0.184  0.0965  1.8040  1.3689
 9327TIP3    H249397   0.478   4.641   0.225  0.3883  0.5240 -0.3181
 9328TIP3   OH249398   2.622   0.455  12.940  0.0667 -0.1457  0.1770
 9328TIP3    H149399   2.568   0.471  12.862  1.6339  0.2766 -0.8763
 9328TIP3    H249400   2.698   0.511  12.928  1.9563 -2.5095  0.3460
 9329TIP3   OH249401   4.921   5.648  15.881 -0.4213  0.1825  0.0044
 9329TIP3    H149402   4.972   5.571  15.855 -1.1818  0.1750 -1.5693
 9329TIP3    H249403   4.975   5.690  15.948  0.6609 -0.9588 -0.1030
 9330TIP3   OH249404   3.141   4.939   1.847 -0.2135 -0.1326 -0.0293
 9330TIP3    H149405   3.054   4.933   1.885 -0.0855  0.3992  0.3661
 9330TIP3    H249406   3.195   4.976   1.917 -0.1473  1.6494 -0.9710
 9331TIP3   OH249407   3.339   2.800   4.934 -0.3259  0.2750 -0.3867
 9331TIP3    H149408   3.249   2.828   4.919 -0.8911  0.4466  2.7102
 9331TIP3    H249409   3.331   2.715   4.977  0.9412  0.5749  0.5116
 9332TIP3   OH249410   2.410   5.254  12.048 -0.1311 -0.5732  1.1274
 9332TIP3    H149411   2.480   5.316  12.068  0.8808 -1.9726  2.1617
 9332TIP3    H249412   2.443   5.203  11.975 -0.9430  0.0448  0.3073
 9333TIP3   OH249413   6.720   3.812   5.993 -0.0728 -0.4633  0.5377
 9333TIP3    H149414   6.652   3.872   5.964  0.2498  0.4086  1.5158
 9333TIP3    H249415   6.756   3.853   6.072 -0.9974 -2.7556  2.2759
 9334TIP3   OH249416   1.410   2.361   3.306 -0.0749  0.2305  0.6930
 9334TIP3    H149417   1.445   2.272   3.303  0.4781  0.4617  0.0011
 9334TIP3    H249418   1.369   2.374   3.221 -0.2536  0.5973  0.8314
 9335TIP3   OH249419   0.831   2.656  16.400 -0.2528  0.0950 -0.1083
 9335TIP3    H149420   0.785   2.702  16.470 -0.4994 -0.1034 -0.1368
 9335TIP3    H249421   0.924   2.674  16.415 -0.3652  0.7990 -0.2660
 9336TIP3   OH249422   0.858   3.480  13.544 -0.3168  0.0614  0.2408
 9336TIP3    H149423   0.820   3.406  13.497 -0.5578  0.1566  0.2814
 9336TIP3    H249424   0.848   3.554  13.484  0.0390  0.0357  0.1494
 9337TIP3   OH249425   0.809   0.208   1.153  0.4545  0.2636 -0.1680
 9337TIP3    H149426   0.767   0.218   1.067  0.5779  0.1769 -0.2393
 9337TIP3    H249427   0.758   0.139   1.196  0.1972  0.5251 -0.0477
 9338TIP3   OH249428   1.249   5.446   4.392 -0.0183  0.5913  0.4629
 9338TIP3    H149429   1.302   5.525   4.390 -0.1517  0.6687 -0.3392
 9338TIP3    H249430   1.290   5.391   4.458  0.2668  1.1952  0.7929
 9339TIP3   OH249431   4.430   0.662   5.937 -0.6138 -0.3977 -0.6009
 9339TIP3    H149432   4.506   0.713   5.906 -1.0627 -0.0314 -1.1135
 9339TIP3    H249433   4.386   0.720   5.998  0.4588 -1.2448  1.0503
 9340TIP3   OH249434   1.005   4.680   0.384 -0.0204 -0.0518  0.5205
 9340TIP3    H149435   0.951   4.754   0.356  0.3210 -0.4522 -1.3637
 9340TIP3    H249436   1.000   4.618   0.311  0.1496 -1.6633  1.8175
 9341TIP3   OH249437   5.667   3.834  14.168  0.8584 -0.2449 -0.4256
 9341TIP3    H149438   5.713   3.860  14.247  1.9126 -1.4959 -0.6033
 9341TIP3    H249439   5.596   3.898  14.160  2.5798  1.7950 -0.2051
 9342TIP3   OH249440   0.583   6.267  13.583  0.4496 -0.2586 -0.2608
 9342TIP3    H149441   0.590   6.185  13.533  0.0133 -0.2475 -0.3430
 9342TIP3    H249442   0.544   6.240  13.666 -1.9125  0.1681 -1.1321
 9343TIP3   OH249443   4.714   2.370   2.986  0.7184  0.3259  0.7585
 9343TIP3    H149444   4.727   2.314   3.062  0.1450 -0.8275  0.0470
 9343TIP3    H249445   4.636   2.421   3.006  0.5486 -0.0025  0.9407
 9344TIP3   OH249446   6.441   4.800   5.006  0.3647 -0.1650  0.1694
 9344TIP3    H149447   6.359   4.850   5.001 -0.1994 -0.8051  1.8752
 9344TIP3    H249448   6.415   4.710   4.983  0.9466 -0.0732 -0.8870
 9345TIP3   OH249449   4.590   5.493  16.736 -0.1502 -0.7813 -0.4423
 9345TIP3    H149450   4.627   5.577  16.711  2.0555 -0.7809  2.2868
 9345TIP3    H249451   4.614   5.433  16.665  0.1352  0.4389 -1.3935
 9346TIP3   OH249452   5.469   6.227   1.677  0.3682  0.3527  0.4027
 9346TIP3    H149453   5.536   6.201   1.613 -0.5032 -0.8842 -0.0472
 9346TIP3    H249454   5.479   6.164   1.748  0.7943  1.2234  1.1229
 9347TIP3   OH249455   3.765   6.073  14.383 -0.4869  0.1995 -0.0751
 9347TIP3    H149456   3.842   6.117  14.419  0.5130 -1.2937 -0.3319
 9347TIP3    H249457   3.740   6.126  14.308  0.6370  0.4048 -0.3245
 9348TIP3   OH249458   5.584   2.619  12.474  0.7575 -0.2407 -0.1427
 9348TIP3    H149459   5.574   2.698  12.527 -1.4578 -1.0739  0.8004
 9348TIP3    H249460   5.626   2.556  12.533  0.3842 -0.4764 -0.1261
 9349TIP3   OH249461   3.133   0.033   0.193  0.1405 -0.1118 -0.0899
 9349TIP3    H149462   3.079   0.051   0.270  0.9355 -0.5076  0.5734
 9349TIP3    H249463   3.223   0.047   0.223  0.5476 -1.6077 -0.5547
 9350TIP3   OH249464   2.251   6.624   4.497 -0.5377 -0.1370 -0.3022
 9350TIP3    H149465   2.168   6.606   4.540  0.3798 -0.1104  1.6088
 9350TIP3    H249466   2.234   6.698   4.439 -1.4138  1.2496  1.6172
 9351TIP3   OH249467   0.667   5.808   2.063  0.0238  0.4321  0.9081
 9351TIP3    H149468   0.677   5.806   2.159 -0.2313 -0.4808  0.9200
 9351TIP3    H249469   0.613   5.732   2.043  1.0510 -0.0699 -0.0804
 9352TIP3   OH249470   6.473   5.067   1.113 -0.3165 -0.0814  0.3265
 9352TIP3    H149471   6.477   5.163   1.116  2.8925  0.0598 -2.2537
 9352TIP3    H249472   6.548   5.039   1.166  0.6472 -0.9300 -1.3911
 9353TIP3   OH249473   4.532   2.900  16.938 -1.0691  0.0036  1.1963
 9353TIP3    H149474   4.547   2.813  16.901  0.5554  0.4853  0.6110
 9353TIP3    H249475   4.441   2.920  16.918 -0.8463 -0.6520 -0.6610
 9354TIP3   OH249476   5.614   4.270  15.100 -0.0916 -0.0959 -0.1924
 9354TIP3    H149477   5.523   4.284  15.075  0.1942  2.1277 -0.2025
 9354TIP3    H249478   5.660   4.348  15.067  1.7216 -0.9237  0.2655
 9355TIP3   OH249479   4.553   0.197  15.738  0.0435  0.0713 -0.3426
 9355TIP3    H149480   4.508   0.268  15.785  0.1101 -0.6100  0.7783
 9355TIP3    H249481   4.607   0.242  15.673  0.0226  1.0413  0.2935
 9356TIP3   OH249482   2.584   2.709   6.415 -0.2814  0.3115 -0.1703
 9356TIP3    H149483   2.553   2.795   6.442  1.5146  0.2849  2.2654
 9356TIP3    H249484   2.606   2.720   6.322 -1.3685  2.0585 -0.2711
 9357TIP3   OH249485   3.600   2.667   4.074 -0.1312  0.2609  0.3922
 9357TIP3    H149486   3.514   2.631   4.095  0.4751 -1.2221  0.4718
 9357TIP3    H249487   3.640   2.684   4.159 -0.0617  0.2475  0.3621
 9358TIP3   OH249488   4.929   5.865  11.670 -0.1342  0.4871 -0.4907
 9358TIP3    H149489   4.921   5.906  11.756  0.5091 -1.9924  0.8427
 9358TIP3    H249490   4.877   5.784  11.677  1.3581 -0.6455 -1.7955
 9359TIP3   OH249491   1.058   6.562   3.791  0.1590 -0.8000  0.1100
 9359TIP3    H149492   1.097   6.498   3.732 -0.1860  0.5344 -1.6338
 9359TIP3    H249493   1.083   6.647   3.755 -2.4160  0.0876  0.2272
 9360TIP3   OH249494   5.940   0.056  16.537  0.2012  0.4623  0.3945
 9360TIP3    H149495   5.979   0.081  16.453 -0.7779  2.2032  0.4189
 9360TIP3    H249496   6.015   0.029  16.591  0.8390 -0.6394 -0.9911
 9361TIP3   OH249497   0.280   2.225  11.958  0.0561 -0.1670  0.1395
 9361TIP3    H149498   0.256   2.148  11.907  0.1033 -0.7970  1.0597
 9361TIP3    H249499   0.364   2.203  11.998  0.3689  0.5997 -0.0615
 9362TIP3   OH249500   2.350   2.260  13.659 -0.8428  0.4049 -0.1099
 9362TIP3    H149501   2.294   2.310  13.600 -1.4514  0.9585  0.9114
 9362TIP3    H249502   2.351   2.311  13.740  0.7027  0.1217  0.0785
 9363TIP3   OH249503   5.153   2.206   5.784  0.2700 -0.3686  0.5329
 9363TIP3    H149504   5.087   2.164   5.838 -1.8810  0.9809 -0.8904
 9363TIP3    H249505   5.148   2.299   5.807  2.0845 -0.2763  0.7454
 9364TIP3   OH249506   1.308   4.622  13.402 -0.0292  0.0060 -0.0285
 9364TIP3    H149507   1.301   4.715  13.424  1.5148 -0.1036  1.1342
 9364TIP3    H249508   1.281   4.577  13.482  0.7399 -0.4999 -0.0383
 9365TIP3   OH249509   6.217   3.137  13.349 -0.6458  0.0523  0.2313
 9365TIP3    H149510   6.169   3.075  13.294 -0.5800  1.9581 -2.1136
 9365TIP3    H249511   6.265   3.081  13.410 -0.4415 -2.2394 -1.8444
 9366TIP3   OH249512   0.547   4.131   1.238  0.0652  0.0898 -0.0062
 9366TIP3    H149513   0.462   4.098   1.207 -1.2680  0.8697  2.4913
 9366TIP3    H249514   0.556   4.216   1.196 -0.1174 -0.2224 -0.6950
 9367TIP3   OH249515   0.658   4.070  12.257  0.3537  0.1899 -0.1225
 9367TIP3    H149516   0.648   4.042  12.167 -2.8041 -2.4345  0.8634
 9367TIP3    H249517   0.741   4.032  12.286  0.7922  0.0370 -1.5523
 9368TIP3   OH249518   2.064   5.425  10.337 -0.4328  0.2634 -0.6803
 9368TIP3    H149519   2.025   5.457  10.417  0.7810 -0.3361  0.1837
 9368TIP3    H249520   2.052   5.330  10.341 -1.5981  0.3228 -1.9053
 9369TIP3   OH249521   2.855   2.336  13.321  0.2233  0.3745 -0.3775
 9369TIP3    H149522   2.950   2.326  13.327  0.3406  1.7631  0.5445
 9369TIP3    H249523   2.826   2.260  13.271  1.8132 -0.0876 -0.6520
 9370TIP3   OH249524   0.656   5.765  15.074  0.9387 -0.2530 -0.4868
 9370TIP3    H149525   0.731   5.712  15.103  0.1553 -0.9169  0.3560
 9370TIP3    H249526   0.688   5.809  14.995  2.5153  0.1684  0.3280
 9371TIP3   OH249527   2.862   1.850   1.944  0.1446  0.4405 -0.4521
 9371TIP3    H149528   2.795   1.806   1.892 -0.2049 -3.4594  2.8430
 9371TIP3    H249529   2.938   1.792   1.941  1.1350  1.5766  0.9636
 9372TIP3   OH249530   3.462   0.572   4.358  0.1606 -0.2318  0.0928
 9372TIP3    H149531   3.482   0.528   4.441 -0.3009 -0.8514 -0.1158
 9372TIP3    H249532   3.542   0.562   4.307  0.3971  0.0239  0.4068
 9373TIP3   OH249533   5.329   6.526  13.641  0.0098 -0.2778 -0.1145
 9373TIP3    H149534   5.271   6.462  13.683  0.9172 -1.6468 -0.8677
 9373TIP3    H249535   5.415   6.484  13.641  0.6867  1.0461 -0.4535
 9374TIP3   OH249536   3.631   3.270  11.233 -0.7374 -0.6732 -0.0175
 9374TIP3    H149537   3.630   3.361  11.202 -2.4995 -0.6490  0.0071
 9374TIP3    H249538   3.721   3.242  11.221 -0.3575  0.7873 -0.8841
 9375TIP3   OH249539   6.643   0.470   3.581  0.8331  0.1043 -0.4751
 9375TIP3    H149540   6.677   0.523   3.654  0.4837 -0.4622  0.1020
 9375TIP3    H249541   6.722   0.436   3.538  1.0844 -2.0199  1.4508
 9376TIP3   OH249542   1.304   1.361  11.306 -0.0162  0.0121  0.3463
 9376TIP3    H149543   1.238   1.404  11.251  0.6924  1.8887  0.8867
 9376TIP3    H249544   1.255   1.331  11.383 -0.4954  0.0479  0.0589
 9377TIP3   OH249545   2.372   0.505   0.825  0.1568 -0.1023 -0.1122
 9377TIP3    H149546   2.286   0.465   0.820  0.6183 -1.2429  0.7832
 9377TIP3    H249547   2.433   0.432   0.818  1.0332  0.5786  0.2825
 9378TIP3   OH249548   1.017   6.713   0.842  0.2271 -0.0087 -0.3092
 9378TIP3    H149549   0.937   6.672   0.873 -1.9684  2.5431 -2.1445
 9378TIP3    H249550   1.066   6.733   0.923 -0.0536 -3.1435  0.7538
 9379TIP3   OH249551   6.378   2.957  14.100 -0.4431  0.2895  0.0057
 9379TIP3    H149552   6.357   3.033  14.156  0.1215  0.9545 -0.6637
 9379TIP3    H249553   6.429   2.899  14.157  1.3371  1.5976 -0.1667
 9380TIP3   OH249554   5.480   3.179  15.232 -0.1643  0.1541  0.2048
 9380TIP3    H149555   5.495   3.274  15.241 -1.3748  0.3890 -0.1301
 9380TIP3    H249556   5.391   3.172  15.200  0.5459 -1.0419 -1.6337
 9381TIP3   OH249557   5.158   5.392  16.237  0.0740 -0.3095 -0.1962
 9381TIP3    H149558   5.143   5.433  16.152 -1.5049 -0.1471  0.1352
 9381TIP3    H249559   5.086   5.330  16.247 -0.8861  1.0183  1.8195
 9382TIP3   OH249560   4.209   2.510  13.778 -0.2502  0.2345  0.4050
 9382TIP3    H149561   4.180   2.601  13.774  0.6074  0.4759 -2.3274
 9382TIP3    H249562   4.155   2.465  13.714  1.5809 -0.4432 -0.7346
 9383TIP3   OH249563   2.935   0.579  12.060 -0.1849 -0.2323 -0.0212
 9383TIP3    H149564   2.888   0.513  12.110 -0.4261 -0.6705 -0.8175
 9383TIP3    H249565   2.967   0.533  11.983 -1.0344  0.7475 -0.9882
 9384TIP3   OH249566   6.495   6.243  14.047  0.6384  0.0524 -0.2825
 9384TIP3    H149567   6.509   6.268  13.956 -0.0073  2.4242  0.1861
 9384TIP3    H249568   6.514   6.150  14.050  1.3884  0.0648 -2.6806
 9385TIP3   OH249569   2.302   5.441  13.640  0.4082  0.6796  0.0696
 9385TIP3    H149570   2.339   5.448  13.728  0.1873  0.0232  0.2201
 9385TIP3    H249571   2.280   5.531  13.616 -0.6273  0.7478  1.1643
 9386TIP3   OH249572   4.420   4.276   3.806  0.1665  0.0203 -0.0256
 9386TIP3    H149573   4.401   4.220   3.881  0.8201  1.0078  0.9107
 9386TIP3    H249574   4.479   4.224   3.751  0.3232 -0.4112  0.5481
 9387TIP3   OH249575   0.738   0.099   5.747 -0.3215  0.0822 -0.2177
 9387TIP3    H149576   0.767   0.051   5.669 -0.3064 -0.7129  0.2633
 9387TIP3    H249577   0.702   0.032   5.804  3.3518 -0.0872  2.2346
 9388TIP3   OH249578   0.272   3.841   5.452  0.4630 -0.3605  0.0932
 9388TIP3    H149579   0.217   3.787   5.509  0.1508 -0.3488 -0.1989
 9388TIP3    H249580   0.274   3.926   5.495 -3.2104  0.9722 -1.9611
 9389TIP3   OH249581   5.174   0.104  16.265  0.3952  0.1495 -0.5105
 9389TIP3    H149582   5.256   0.069  16.298  0.2545 -0.7843 -1.1164
 9389TIP3    H249583   5.106   0.058  16.313  0.2046 -0.5860 -1.4602
 9390TIP3   OH249584   6.533   5.549  14.106 -0.3670 -0.2510 -0.0072
 9390TIP3    H149585   6.583   5.499  14.171 -0.8509  0.7970  1.2206
 9390TIP3    H249586   6.444   5.549  14.141 -0.5293  0.7785 -0.3945
 9391TIP3   OH249587   1.540   0.950  12.073  0.3270  0.1343 -0.1464
 9391TIP3    H149588   1.630   0.974  12.054  0.0161  0.4626 -1.2354
 9391TIP3    H249589   1.487   1.016  12.029 -0.5053 -1.8004 -2.2288
 9392TIP3   OH249590   4.767   0.717  14.832  0.3990 -0.6110 -0.3140
 9392TIP3    H149591   4.828   0.645  14.816  2.6350  0.5941  1.9414
 9392TIP3    H249592   4.701   0.679  14.891  1.0200 -1.0832  0.0985
 9393TIP3   OH249593   4.804   0.764  13.470 -0.5376 -0.7116 -0.2886
 9393TIP3    H149594   4.765   0.792  13.553 -0.8742  0.2082 -0.7424
 9393TIP3    H249595   4.820   0.670  13.481 -2.1020 -0.9395  0.2172
 9394TIP3   OH249596   1.453   1.599   4.585  0.1675 -0.3404  0.1265
 9394TIP3    H149597   1.359   1.600   4.565 -0.1727  0.6113  1.5866
 9394TIP3    H249598   1.495   1.623   4.502 -1.0552  1.9361  0.0751
 9395TIP3   OH249599   0.656   5.510  16.452  0.5102 -0.2929  0.3820
 9395TIP3    H149600   0.670   5.605  16.459  0.2146 -0.1459 -0.8193
 9395TIP3    H249601   0.729   5.479  16.398 -0.5260 -0.4083 -0.9998
 9396TIP3   OH249602   6.083   0.590  16.486 -0.3470 -0.2467  0.1386
 9396TIP3    H149603   6.031   0.564  16.562  0.1020 -0.0106  0.5313
 9396TIP3    H249604   6.114   0.678  16.507 -1.1826  0.3082 -0.8248
 9397TIP3   OH249605   2.271   4.668   4.168 -1.1976 -0.0064  0.0847
 9397TIP3    H149606   2.350   4.717   4.191 -0.7570 -0.5839 -0.1746
 9397TIP3    H249607   2.208   4.735   4.139 -1.0247  0.5143  0.8881
 9398TIP3   OH249608   3.235   5.208   4.045 -0.3301 -0.6475  0.5184
 9398TIP3    H149609   3.196   5.264   4.112 -1.0680 -1.9897  1.2577
 9398TIP3    H249610   3.229   5.259   3.964 -2.1775 -0.1790  0.9090
 9399TIP3   OH249611   2.787   6.507   2.359  0.0837  0.0153  0.2720
 9399TIP3    H149612   2.739   6.581   2.322 -1.1331  0.1676  2.0607
 9399TIP3    H249613   2.755   6.431   2.309  0.6279  0.5416 -0.9203
 9400TIP3   OH249614   0.030   6.672  13.150 -0.1720 -0.2389 -0.1703
 9400TIP3    H149615   0.065   6.681  13.239 -0.7735  1.6634 -0.0653
 9400TIP3    H249616  -0.036   6.604  13.157 -0.8086  0.4637  1.0711
 9401TIP3   OH249617   2.918   0.107   2.347  0.4786  0.4056 -0.1224
 9401TIP3    H149618   2.851   0.096   2.413  0.5318  0.8797  0.0150
 9401TIP3    H249619   2.914   0.200   2.324  0.1651  0.1686 -1.0959
 9402TIP3   OH249620   1.126   1.168  16.198  0.4510 -0.7182  0.3295
 9402TIP3    H149621   1.189   1.186  16.268 -0.2188 -0.0422  0.7747
 9402TIP3    H249622   1.050   1.221  16.221  0.3658 -0.1830 -1.1310
 9403TIP3   OH249623   4.534   5.602  14.225  0.1133 -0.4677  0.4934
 9403TIP3    H149624   4.511   5.670  14.162  1.8449  0.3070  0.6492
 9403TIP3    H249625   4.525   5.519  14.177  0.9359  0.0796 -0.6278
 9404TIP3   OH249626   2.603   5.378  16.579  0.3629  0.1487 -0.1229
 9404TIP3    H149627   2.523   5.428  16.566  0.3141 -0.4102 -2.4063
 9404TIP3    H249628   2.668   5.443  16.606 -0.3749  0.9554 -0.2655
 9405TIP3   OH249629   6.128   3.381   0.781 -0.6115 -0.2223  0.0590
 9405TIP3    H149630   6.075   3.442   0.831  1.1746  0.1222  1.6580
 9405TIP3    H249631   6.207   3.368   0.834  0.0113 -2.2774 -1.2285
 9406TIP3   OH249632   1.289   4.987   4.286 -0.1175 -0.4656  0.0003
 9406TIP3    H149633   1.315   5.075   4.257 -0.8890 -0.3886 -0.4988
 9406TIP3    H249634   1.335   4.975   4.369 -0.1328  0.4904  0.1686
 9407TIP3   OH249635   4.335   0.704  11.939 -0.3784 -0.5920  0.3878
 9407TIP3    H149636   4.424   0.737  11.949  0.0000 -1.2522 -0.6482
 9407TIP3    H249637   4.343   0.609  11.945 -0.8107 -0.7436 -0.8893
 9408TIP3   OH249638   5.188   0.039   1.559 -0.0672 -0.0736  0.3283
 9408TIP3    H149639   5.221   0.036   1.648  1.6646  1.0203 -0.2380
 9408TIP3    H249640   5.170  -0.053   1.537 -1.1152 -0.2971  1.9767
 9409TIP3   OH249641   2.573   0.544   2.097  0.1911  0.0961  0.1287
 9409TIP3    H149642   2.662   0.578   2.093  0.8820 -1.3474  2.0090
 9409TIP3    H249643   2.567   0.483   2.024  0.9560 -0.2407  0.3402
 9410TIP3   OH249644   3.549   1.436   5.783 -0.2532  0.2153  0.3168
 9410TIP3    H149645   3.626   1.474   5.741 -0.0187  0.7667  1.2050
 9410TIP3    H249646   3.556   1.342   5.767  1.6593 -0.0047  1.9869
 9411TIP3   OH249647   1.583   2.671   3.160 -0.0128 -0.6347  0.1291
 9411TIP3    H149648   1.581   2.644   3.068 -0.4857 -0.0766 -0.0336
 9411TIP3    H249649   1.491   2.668   3.187  0.0533 -0.1990  0.4007
 9412TIP3   OH249650   3.756   3.572  10.544 -0.2301  0.2813 -0.4181
 9412TIP3    H149651   3.743   3.588  10.638  0.9237  0.0311 -0.2089
 9412TIP3    H249652   3.814   3.643  10.516 -0.4660  0.2771 -0.9211
 9413TIP3   OH249653   4.180   0.917   6.358 -0.3951 -0.2020 -0.3708
 9413TIP3    H149654   4.092   0.910   6.320  0.0735 -1.1120 -1.3295
 9413TIP3    H249655   4.170   0.887   6.448 -1.2336  0.5536 -0.2015
 9414TIP3   OH249656   1.351   3.438   3.614  0.7625 -0.4606  0.3216
 9414TIP3    H149657   1.316   3.365   3.563  3.6859 -2.2968  0.7045
 9414TIP3    H249658   1.330   3.416   3.704  0.6410 -0.2036  0.3574
 9415TIP3   OH249659   6.544   1.437   2.422 -0.0426  0.3505  0.4200
 9415TIP3    H149660   6.602   1.431   2.346  0.4640  0.7482  0.7649
 9415TIP3    H249661   6.523   1.347   2.444  0.9322  0.1649  0.6457
 9416TIP3   OH249662   5.873   3.248  16.856  0.1270 -0.2079 -0.6364
 9416TIP3    H149663   5.804   3.293  16.807  0.8983  1.7787 -0.0231
 9416TIP3    H249664   5.912   3.188  16.792 -0.7664  0.2069 -1.6122
 9417TIP3   OH249665   6.472   2.461  12.755  0.3786  0.0524  0.3663
 9417TIP3    H149666   6.406   2.407  12.798 -1.2992  2.2260  0.6647
 9417TIP3    H249667   6.426   2.541  12.729  2.4256  0.8179 -1.2749
 9418TIP3   OH249668   3.147   4.035   0.393 -0.4707  0.5188  0.1423
 9418TIP3    H149669   3.076   3.976   0.418  0.7613 -0.1662  2.2238
 9418TIP3    H249670   3.140   4.108   0.454  1.8646 -0.5924  1.8968
 9419TIP3   OH249671   6.112   3.790   2.228 -0.3916  0.2208  0.5259
 9419TIP3    H149672   6.063   3.785   2.146 -0.6052 -1.8363  0.7153
 9419TIP3    H249673   6.182   3.853   2.211 -0.7676  0.2492 -1.0486
 9420TIP3   OH249674   5.460   2.559   5.069 -0.1178  0.3290 -0.5621
 9420TIP3    H149675   5.515   2.531   4.996 -0.7130 -0.4123 -0.7406
 9420TIP3    H249676   5.423   2.642   5.042 -1.0889 -0.3915 -1.5211
 9421TIP3   OH249677   4.078   3.094   6.751 -0.1565 -0.8990  0.7105
 9421TIP3    H149678   4.083   3.142   6.834 -1.2746  0.7746 -0.1457
 9421TIP3    H249679   3.986   3.100   6.726  0.6301  1.2796 -2.1424
 9422TIP3   OH249680   5.432   1.932  15.535  0.1452 -0.1346 -0.3370
 9422TIP3    H149681   5.509   1.902  15.488  0.8482  0.9042  0.1093
 9422TIP3    H249682   5.390   1.852  15.567  1.4465 -0.6886  0.0472
 9423TIP3   OH249683   5.860   0.250   0.674 -0.0668  0.1184  0.4427
 9423TIP3    H149684   5.927   0.318   0.671 -1.8160  1.9104 -1.4564
 9423TIP3    H249685   5.870   0.201   0.593 -1.0819  0.4982  0.0632
 9424TIP3   OH249686   4.158   3.961   1.069  0.1555  0.0108 -0.4361
 9424TIP3    H149687   4.128   3.872   1.086  0.0905  0.0668 -0.2547
 9424TIP3    H249688   4.172   3.999   1.156  0.7153 -0.0036 -0.5190
 9425TIP3   OH249689   0.357   0.161   4.828  0.0054 -0.4829  0.2810
 9425TIP3    H149690   0.385   0.163   4.736 -0.1419 -0.3922  0.2366
 9425TIP3    H249691   0.389   0.243   4.864 -2.2668  0.7810 -0.3987
 9426TIP3   OH249692   4.646   2.844   2.554  0.5891 -0.1009 -0.3957
 9426TIP3    H149693   4.574   2.892   2.594 -0.0183 -0.3437 -1.1826
 9426TIP3    H249694   4.719   2.906   2.555  0.0431  0.5607 -0.6802
 9427TIP3   OH249695   3.205   2.321   4.330 -0.4772  0.1794 -0.1828
 9427TIP3    H149696   3.154   2.360   4.258 -1.6525 -0.0558  0.4902
 9427TIP3    H249697   3.280   2.280   4.287  0.1108  2.0346 -1.0497
 9428TIP3   OH249698   3.625   3.207   5.004  0.0718  0.5685 -0.1768
 9428TIP3    H149699   3.650   3.251   4.922 -0.6560  2.0173  0.3318
 9428TIP3    H249700   3.699   3.223   5.063 -0.8225  2.5606  0.4979
 9429TIP3   OH249701   6.601   4.278   5.223  0.1177 -0.0326 -0.2255
 9429TIP3    H149702   6.518   4.264   5.269  1.0846 -0.8813  1.3369
 9429TIP3    H249703   6.599   4.215   5.151 -0.4283 -0.2721 -0.0089
 9430TIP3   OH249704   5.343   2.549  14.580  0.0510 -0.2303  0.5109
 9430TIP3    H149705   5.380   2.463  14.597  0.7856 -0.1280 -0.4764
 9430TIP3    H249706   5.416   2.610  14.593 -0.2786  0.1728  0.5019
 9431TIP3   OH249707   1.254   3.126  11.948 -0.6378 -0.6265 -0.4318
 9431TIP3    H149708   1.199   3.087  11.879 -1.4096 -1.4333  0.6069
 9431TIP3    H249709   1.296   3.051  11.989  0.3446 -0.0945 -0.4392
 9432TIP3   OH249710   6.650   2.295   4.533 -0.0825  0.1014  0.4927
 9432TIP3    H149711   6.645   2.258   4.621 -1.4595  0.2878  0.5257
 9432TIP3    H249712   6.640   2.220   4.474 -0.8224  0.1600  0.5319
 9433TIP3   OH249713   1.252   4.928   5.941 -0.2070 -0.3916 -0.0876
 9433TIP3    H149714   1.277   4.910   5.851  0.7948 -1.6570  0.4148
 9433TIP3    H249715   1.296   4.861   5.993 -2.1156 -0.7627  1.1918
 9434TIP3   OH249716   4.860   4.661  13.766  0.4409 -0.0160 -0.3293
 9434TIP3    H149717   4.825   4.747  13.743 -0.7997 -0.1057  1.0717
 9434TIP3    H249718   4.834   4.603  13.695  0.1204  0.4965 -0.6272
 9435TIP3   OH249719   2.441   5.394   3.521 -0.0770  0.1399  0.1925
 9435TIP3    H149720   2.354   5.366   3.496 -0.3396  0.5945  0.5774
 9435TIP3    H249721   2.499   5.322   3.496 -0.8290 -1.1729  2.0196
 9436TIP3   OH249722   3.755   5.459   5.062  0.4536 -0.1535 -0.5926
 9436TIP3    H149723   3.671   5.477   5.104  1.1048  1.9138 -0.0905
 9436TIP3    H249724   3.741   5.484   4.970  0.3698 -0.3801 -0.6442
 9437TIP3   OH249725   6.340   3.225  14.129 -0.1550 -0.1975 -0.4828
 9437TIP3    H149726   6.292   3.270  14.199  0.4592 -0.1674 -0.0674
 9437TIP3    H249727   6.431   3.223  14.161  0.2124  0.2016 -1.4807
 9438TIP3   OH249728   5.803   6.130  12.169 -0.0847 -0.6844 -0.9705
 9438TIP3    H149729   5.754   6.212  12.160  0.4375 -0.2996 -0.3830
 9438TIP3    H249730   5.782   6.081  12.090 -0.3455  0.0514 -1.3684
 9439TIP3   OH249731   1.630   1.966   4.400 -0.1741 -0.1234 -0.4367
 9439TIP3    H149732   1.696   1.899   4.382  1.2166  1.1904 -0.4507
 9439TIP3    H249733   1.572   1.925   4.465 -0.4192 -1.9392 -1.7124
 9440TIP3   OH249734   1.317   0.188  13.556 -0.5898  0.2729  0.5824
 9440TIP3    H149735   1.390   0.248  13.540 -0.4943  0.2179  0.8043
 9440TIP3    H249736   1.327   0.161  13.647 -1.2790  0.7883  0.8173
 9441TIP3   OH249737   2.271   4.764   4.776 -0.6305  0.2684 -0.0410
 9441TIP3    H149738   2.366   4.772   4.780 -0.5465 -0.3462 -0.5941
 9441TIP3    H249739   2.245   4.744   4.866 -0.2486  0.5275  0.1288
 9442TIP3   OH249740   0.501   6.483  11.890 -0.0748 -0.0648  0.4527
 9442TIP3    H149741   0.530   6.524  11.972  0.6195  1.6457 -0.5889
 9442TIP3    H249742   0.574   6.425  11.865  0.3006  0.4333  0.3786
 9443TIP3   OH249743   3.350   3.288  12.770 -0.2412  0.3274  0.2537
 9443TIP3    H149744   3.274   3.301  12.713 -0.4017  1.5128  0.7112
 9443TIP3    H249745   3.391   3.208  12.737 -2.6381 -1.3429  1.0659
 9444TIP3   OH249746   3.521   5.461   5.449  0.0818 -0.4392  0.2037
 9444TIP3    H149747   3.490   5.376   5.482 -1.2858  0.3706  1.1078
 9444TIP3    H249748   3.443   5.517   5.450  0.5738  0.3733 -1.9881
 9445TIP3   OH249749   3.388   1.878   5.198 -0.2257  0.0596 -0.4019
 9445TIP3    H149750   3.350   1.791   5.191 -1.4338  0.5904 -0.7274
 9445TIP3    H249751   3.457   1.880   5.131 -2.1887  0.3180 -2.5388
 9446TIP3   OH249752   4.546   0.428  13.962 -0.7852  0.0294 -0.4414
 9446TIP3    H149753   4.493   0.400  13.887  0.4024 -1.8059 -0.6596
 9446TIP3    H249754   4.630   0.382  13.950 -0.2432  0.4461  1.5145
 9447TIP3   OH249755   4.884   1.031  16.234  0.4180 -0.4924 -0.1088
 9447TIP3    H149756   4.840   0.947  16.222 -0.5305  0.1325 -1.1401
 9447TIP3    H249757   4.824   1.095  16.197  1.6517  0.5266 -0.3977
 9448TIP3   OH249758   3.047   4.109   1.827  0.1693 -0.4058  0.3469
 9448TIP3    H149759   3.043   4.014   1.810  1.0453 -0.1329 -1.7145
 9448TIP3    H249760   2.956   4.137   1.833 -0.1079 -1.2993  0.4591
 9449TIP3   OH249761   0.246   0.484  12.830  0.7496 -0.1185 -0.1126
 9449TIP3    H149762   0.303   0.426  12.880  0.5716 -0.6614 -0.5319
 9449TIP3    H249763   0.162   0.439  12.827  0.0311  1.0656  1.2322
 9450TIP3   OH249764   2.536   1.278  12.449  0.1363  0.7084 -0.3072
 9450TIP3    H149765   2.529   1.288  12.354 -1.0242 -0.6764 -0.4030
 9450TIP3    H249766   2.589   1.200  12.462 -2.7647 -1.4011  0.0177
 9451TIP3   OH249767   4.762   3.829  16.253  0.3745  0.1545 -0.1159
 9451TIP3    H149768   4.691   3.767  16.268  0.4027 -0.1864 -1.3043
 9451TIP3    H249769   4.841   3.776  16.258  0.3639 -0.0706 -1.8202
 9452TIP3   OH249770   2.763   4.652   0.273  0.3559  0.3799 -1.0417
 9452TIP3    H149771   2.673   4.619   0.275 -0.2233  1.8896 -0.1587
 9452TIP3    H249772   2.818   4.574   0.269 -0.9348 -0.6692  0.4559
 9453TIP3   OH249773   5.214   0.730   5.046 -0.1710 -0.0151  0.1275
 9453TIP3    H149774   5.237   0.777   5.127  2.4510  0.1318 -0.6122
 9453TIP3    H249775   5.294   0.732   4.994 -0.2268 -4.3494 -0.4572
 9454TIP3   OH249776   4.470   3.760   0.619 -0.1188 -0.0935 -0.2374
 9454TIP3    H149777   4.381   3.732   0.642 -0.8894  2.0905 -0.2209
 9454TIP3    H249778   4.458   3.851   0.590  2.3701  0.9239  1.6284
 9455TIP3   OH249779   0.273   4.661   3.497  0.2692 -0.0067  0.0576
 9455TIP3    H149780   0.208   4.695   3.558 -0.3750 -0.6001 -0.2837
 9455TIP3    H249781   0.357   4.673   3.542 -0.1807 -0.2952  0.9988
 9456TIP3   OH249782   5.766   6.458  12.185  0.6714 -0.2114 -0.4116
 9456TIP3    H149783   5.822   6.514  12.132 -0.8196  0.7531 -1.0356
 9456TIP3    H249784   5.751   6.508  12.265 -0.5087  0.2523 -0.8904
 9457TIP3   OH249785   0.906   1.017  11.182 -0.2777 -0.4098 -0.2691
 9457TIP3    H149786   0.826   0.969  11.205 -0.8483  0.8929  0.5464
 9457TIP3    H249787   0.948   0.962  11.116 -0.2168 -2.6974  1.5463
 9458TIP3   OH249788   1.985   2.264  10.576 -0.1464  0.1754  0.7686
 9458TIP3    H149789   1.961   2.187  10.628  0.1583 -0.8430 -0.5245
 9458TIP3    H249790   1.903   2.293  10.537 -0.3680  0.9143  1.7351
 9459TIP3   OH249791   2.584   5.673   2.315 -0.5196 -0.1188 -0.0102
 9459TIP3    H149792   2.527   5.664   2.391 -1.4721 -0.3747 -0.7428
 9459TIP3    H249793   2.667   5.705   2.351 -1.4343  1.2892  0.9636
 9460TIP3   OH249794   3.618   1.477   6.361 -0.2987 -0.4688  0.1518
 9460TIP3    H149795   3.561   1.542   6.320  1.3704  0.3238 -1.0455
 9460TIP3    H249796   3.654   1.522   6.438 -1.8948 -1.2668  1.4099
 9461TIP3   OH249797   2.692   0.487  15.733 -0.0099 -0.0198 -0.0532
 9461TIP3    H149798   2.726   0.411  15.780  1.1922  1.2504  1.2525
 9461TIP3    H249799   2.770   0.537  15.710 -0.8340  1.9012  1.0911
 9462TIP3   OH249800   3.088   5.806  11.236  0.2341  0.6458  0.3997
 9462TIP3    H149801   3.183   5.805  11.223  0.4283  1.3537  1.6149
 9462TIP3    H249802   3.052   5.782  11.151  1.5002  0.4107 -0.0940
 9463TIP3   OH249803   4.778   6.304   6.309 -0.4087  0.1011 -0.5284
 9463TIP3    H149804   4.694   6.344   6.289 -1.4170 -1.4391  0.3870
 9463TIP3    H249805   4.774   6.217   6.268  0.6658 -0.0502 -0.3497
 9464TIP3   OH249806   3.554   4.321  11.883  0.0414 -0.5652  0.4902
 9464TIP3    H149807   3.604   4.331  11.802 -2.5596 -2.4575 -1.5017
 9464TIP3    H249808   3.586   4.239  11.921 -1.1708 -1.5483 -0.5547
 9465TIP3   OH249809   0.575   4.828   1.891  0.2033  0.1358  0.3444
 9465TIP3    H149810   0.512   4.762   1.919  1.4462 -1.1503  0.2091
 9465TIP3    H249811   0.535   4.870   1.815  0.5054 -2.3432 -1.2855
 9466TIP3   OH249812   4.332   6.414   3.846  0.5878  0.1012 -0.3070
 9466TIP3    H149813   4.260   6.356   3.820 -0.0686  0.2986  0.9788
 9466TIP3    H249814   4.376   6.435   3.764  0.2198 -1.3816 -0.9319
 9467TIP3   OH249815   0.169   2.457   6.314  0.4327 -0.2821  0.0151
 9467TIP3    H149816   0.225   2.500   6.379  1.0315  0.3500 -0.8861
 9467TIP3    H249817   0.186   2.363   6.326  1.6295 -0.1125 -0.1573
 9468TIP3   OH249818   2.117   4.186   5.271 -0.1590 -0.3896 -0.4063
 9468TIP3    H149819   2.100   4.121   5.339 -1.2476  0.4588  0.1563
 9468TIP3    H249820   2.199   4.228   5.297 -2.0059  2.0094  2.1351
 9469TIP3   OH249821   4.325   4.104   5.121 -0.2568  0.5190  0.2852
 9469TIP3    H149822   4.302   4.019   5.083 -1.9893  0.1861  1.9535
 9469TIP3    H249823   4.393   4.138   5.063 -0.6990 -1.2500 -1.3838
 9470TIP3   OH249824   2.540   1.821   5.373 -0.6239 -0.0164 -0.2449
 9470TIP3    H149825   2.562   1.733   5.402 -0.3352  0.6903  1.8205
 9470TIP3    H249826   2.621   1.853   5.331 -0.2016 -0.1685  0.4391
 9471TIP3   OH249827   0.080   0.078   5.693  0.0865 -0.1726 -0.2497
 9471TIP3    H149828  -0.003   0.054   5.652 -0.8975  0.3215  1.3724
 9471TIP3    H249829   0.067   0.060   5.787  1.5885  0.4930  0.1220
 9472TIP3   OH249830   5.577   5.269   4.517 -0.2662  0.7229  0.2130
 9472TIP3    H149831   5.630   5.267   4.437  1.7901 -0.3506  1.5211
 9472TIP3    H249832   5.573   5.178   4.545 -0.4473  1.1414  1.6232
 9473TIP3   OH249833   2.996   4.826   0.493  0.5096  0.3064  0.3987
 9473TIP3    H149834   3.078   4.791   0.458  0.0985  0.8729 -1.2532
 9473TIP3    H249835   2.959   4.877   0.420 -2.0742 -1.2046  0.5382
 9474TIP3   OH249836   3.983   5.449   2.904  0.2483 -0.0929 -0.2234
 9474TIP3    H149837   4.018   5.406   2.825 -1.4300  0.0977 -1.1024
 9474TIP3    H249838   3.895   5.476   2.880  0.7279  2.6184  0.7597
 9475TIP3   OH249839   0.240   6.345   3.208  0.5526 -0.3997 -0.0251
 9475TIP3    H149840   0.300   6.417   3.228  1.9936 -1.5590 -0.0380
 9475TIP3    H249841   0.195   6.374   3.128 -0.5735  1.4466  1.1897
 9476TIP3   OH249842   0.928   0.227   1.550 -0.4137  0.0156 -0.3208
 9476TIP3    H149843   0.896   0.251   1.463  0.2702  1.3964 -0.2156
 9476TIP3    H249844   0.951   0.134   1.543 -0.9710 -0.0458 -1.4237
 9477TIP3   OH249845   3.591   5.052  13.925  0.2157  1.0637  0.2694
 9477TIP3    H149846   3.603   5.051  14.020 -0.0032  1.5026  0.3045
 9477TIP3    H249847   3.541   5.132  13.908 -1.3143  0.0822 -0.0236
 9478TIP3   OH249848   4.587   2.956  13.482  0.0714  0.0511  0.1726
 9478TIP3    H149849   4.606   2.935  13.391 -1.3591 -0.4791 -0.0282
 9478TIP3    H249850   4.644   3.031  13.501  0.4737  0.1052 -1.1064
 9479TIP3   OH249851   5.864   0.327  15.829 -0.2855 -0.0763  0.0023
 9479TIP3    H149852   5.928   0.396  15.815 -0.3235  0.0964  0.6278
 9479TIP3    H249853   5.779   0.371  15.820 -0.3223 -0.3271 -0.9364
 9480TIP3   OH249854   2.093   4.393   1.336 -0.2419 -0.4164 -0.1503
 9480TIP3    H149855   2.147   4.376   1.260  1.0730 -2.9174  1.2338
 9480TIP3    H249856   2.009   4.422   1.300  0.6548 -0.5547 -2.4771
 9481TIP3   OH249857   1.429   2.565   2.260  0.2523 -0.6053  0.6659
 9481TIP3    H149858   1.470   2.597   2.340  0.0838  0.4701  0.3366
 9481TIP3    H249859   1.356   2.512   2.290 -0.1509  0.2536  1.2263
 9482TIP3   OH249860   3.653   0.971  12.379 -0.3617 -0.4133  0.7029
 9482TIP3    H149861   3.583   0.998  12.439  0.6714  0.5320  1.5075
 9482TIP3    H249862   3.629   1.011  12.295  0.2689  1.7180  1.4718
 9483TIP3   OH249863   1.369   0.480  13.735  0.6112  0.0108  0.4962
 9483TIP3    H149864   1.436   0.468  13.667  0.5557  2.5945 -0.1357
 9483TIP3    H249865   1.417   0.478  13.817  1.6517  2.2223  0.0305
 9484TIP3   OH249866   6.299   0.997  13.237 -0.1224 -0.1767 -0.2637
 9484TIP3    H149867   6.327   1.074  13.287 -0.0807  0.1262 -0.7471
 9484TIP3    H249868   6.381   0.956  13.208 -0.1376 -0.5617  0.2236
 9485TIP3   OH249869   6.607   1.884   4.787  0.1848  0.4737 -0.2630
 9485TIP3    H149870   6.566   1.875   4.873 -1.3443  0.4518 -0.9444
 9485TIP3    H249871   6.607   1.795   4.751  1.5318  0.3497 -0.0073
 9486TIP3   OH249872   3.200   2.899  12.525 -0.0951  0.0389 -0.0002
 9486TIP3    H149873   3.124   2.951  12.550 -1.1071 -1.4040  0.0449
 9486TIP3    H249874   3.246   2.881  12.607  0.6772  1.4126 -0.0922
 9487TIP3   OH249875   6.696   4.169  11.326  0.8934  0.7395 -0.2365
 9487TIP3    H149876   6.763   4.105  11.302  1.1450  1.0496 -0.3785
 9487TIP3    H249877   6.730   4.252  11.293 -0.0244  0.7483 -1.1897
 9488TIP3   OH249878   6.766   1.414  14.055 -0.2329 -0.4495  0.4324
 9488TIP3    H149879   6.672   1.401  14.043 -0.1229  0.3469 -1.7420
 9488TIP3    H249880   6.806   1.338  14.013  0.1246  0.1375 -0.3000
 9489TIP3   OH249881   3.673   3.104  16.861  0.3879 -0.0607  0.1979
 9489TIP3    H149882   3.661   3.016  16.897  0.7747 -1.0996 -2.0278
 9489TIP3    H249883   3.767   3.120  16.866  0.2512  0.5097  1.1553
 9490TIP3   OH249884   4.402   1.205  16.230  0.1500  0.1997 -0.6953
 9490TIP3    H149885   4.402   1.109  16.226 -3.0554 -0.0384  1.7847
 9490TIP3    H249886   4.360   1.232  16.148 -0.1811 -0.5658 -0.7852
 9491TIP3   OH249887   0.179   1.937  11.922  0.3137 -0.6433 -0.0251
 9491TIP3    H149888   0.230   1.864  11.885  0.1214 -1.7648  1.7849
 9491TIP3    H249889   0.135   1.899  11.998  1.0452  1.6283  1.6366
 9492TIP3   OH249890   1.318   1.425  16.132  0.1619 -0.0097  0.4160
 9492TIP3    H149891   1.320   1.370  16.211  1.4662  1.4230  1.4313
 9492TIP3    H249892   1.355   1.508  16.160 -0.4564  0.9393 -1.4453
 9493TIP3   OH249893   1.192   0.618   4.621 -0.2379 -0.3474  0.2801
 9493TIP3    H149894   1.212   0.700   4.576 -1.1754 -0.1246  0.2375
 9493TIP3    H249895   1.232   0.629   4.708  0.3118 -0.1714  0.0086
 9494TIP3   OH249896   0.252   0.830   5.914 -0.3837 -0.0847 -0.1175
 9494TIP3    H149897   0.210   0.887   5.849 -1.3049  0.4109  0.8817
 9494TIP3    H249898   0.179   0.783   5.954  0.1746 -0.3820  0.5543
 9495TIP3   OH249899   1.180   5.679  11.154 -0.7881 -0.0851 -0.4182
 9495TIP3    H149900   1.179   5.731  11.074  0.9312  0.7746  0.0900
 9495TIP3    H249901   1.097   5.701  11.198 -1.3133  0.1354 -1.4937
 9496TIP3   OH249902   0.552   1.008   1.866  0.0322  0.1202 -0.0460
 9496TIP3    H149903   0.586   0.946   1.930  1.9673  0.8342 -0.3160
 9496TIP3    H249904   0.620   1.075   1.860 -0.9093  0.9807 -1.5594
 9497TIP3   OH249905   2.897   2.240  13.674 -0.5581  0.0538 -0.1426
 9497TIP3    H149906   2.811   2.198  13.669 -1.6066  1.6347  2.5211
 9497TIP3    H249907   2.896   2.305  13.604 -1.0089 -0.7139 -0.8826
 9498TIP3   OH249908   1.965   6.631   4.495  0.5651  0.2437 -0.1846
 9498TIP3    H149909   1.912   6.705   4.523 -1.9126 -0.6302 -2.1343
 9498TIP3    H249910   2.005   6.660   4.413  0.9475 -0.0099 -0.0893
 9499TIP3   OH249911   6.670   1.277   2.938 -0.2751 -0.5582 -0.2460
 9499TIP3    H149912   6.668   1.190   2.897 -0.2465 -0.0974 -1.2493
 9499TIP3    H249913   6.650   1.337   2.867 -0.3396  0.2643  0.4555
 9500TIP3   OH249914   5.351   6.060   4.877 -0.1408  0.0899 -0.1332
 9500TIP3    H149915   5.265   6.025   4.898 -0.4840  0.0053 -1.6037
 9500TIP3    H249916   5.355   6.143   4.925 -0.1916 -0.8568  1.5970
 9501TIP3   OH249917   1.377   2.863  12.310 -0.3148  0.1236 -0.5538
 9501TIP3    H149918   1.471   2.865  12.293 -0.5302 -0.1839 -1.8756
 9501TIP3    H249919   1.337   2.890  12.227 -1.3913  0.3773  0.0331
 9502TIP3   OH249920   3.901   5.156   2.888 -0.2054  0.9090 -0.0066
 9502TIP3    H149921   3.860   5.101   2.821  0.9499  0.3202 -0.2509
 9502TIP3    H249922   3.969   5.204   2.842  1.4862 -0.4638  0.9223
 9503TIP3   OH249923   0.106   3.720   4.654  0.2361 -0.4810  0.1550
 9503TIP3    H149924   0.020   3.712   4.695  0.2100 -3.4861 -0.2071
 9503TIP3    H249925   0.161   3.761   4.720 -1.3878  1.4302  0.4266
 9504TIP3   OH249926   5.569   3.285   4.814  0.1093 -0.0215 -0.2175
 9504TIP3    H149927   5.489   3.238   4.833  0.3660 -1.1882 -1.8115
 9504TIP3    H249928   5.623   3.273   4.892 -1.3783  1.1539  1.0589
 9505TIP3   OH249929   0.014   3.102  11.543 -0.1477  0.3553 -0.3824
 9505TIP3    H149930   0.105   3.080  11.525  0.4128  2.6536 -0.6528
 9505TIP3    H249931  -0.033   3.077  11.463  0.6578  1.3088 -1.1737
 9506TIP3   OH249932   2.150   1.635  12.271  0.0284 -0.0721 -0.3882
 9506TIP3    H149933   2.168   1.630  12.365 -1.0507 -1.7829 -0.2198
 9506TIP3    H249934   2.232   1.666  12.232  0.4000  0.9602  1.1232
 9507TIP3   OH249935   1.323   0.482  15.532 -0.2263 -0.0418 -0.0603
 9507TIP3    H149936   1.239   0.495  15.575 -0.3704 -2.5662  0.5602
 9507TIP3    H249937   1.302   0.440  15.449  0.3534  0.6875 -0.5950
 9508TIP3   OH249938   0.897   3.281   5.882  0.6178 -0.0545  0.1460
 9508TIP3    H149939   0.819   3.234   5.910  0.3776  1.0528  1.4311
 9508TIP3    H249940   0.868   3.371   5.869  2.0211  0.8461  2.6379
 9509TIP3   OH249941   6.113   3.095   0.338 -0.0013  0.4116 -0.6140
 9509TIP3    H149942   6.191   3.151   0.342  0.3140 -0.0500 -0.1993
 9509TIP3    H249943   6.099   3.080   0.245  1.8114 -1.4220 -0.6494
 9510TIP3   OH249944   4.331   1.373  12.421 -0.0398 -0.3517  0.1642
 9510TIP3    H149945   4.405   1.335  12.374 -0.8186  0.8862 -2.2568
 9510TIP3    H249946   4.358   1.464  12.439 -1.5333  0.7023 -2.4081
 9511TIP3   OH249947   2.801   0.648   4.466 -0.2770  0.3923 -0.1574
 9511TIP3    H149948   2.880   0.695   4.438 -0.2559  0.5570  0.1642
 9511TIP3    H249949   2.832   0.562   4.493  0.1288  1.1314  1.9383
 9512TIP3   OH249950   5.184   1.696   3.074 -0.3939 -0.1328  0.5508
 9512TIP3    H149951   5.173   1.609   3.112  0.4548  0.0496  1.2273
 9512TIP3    H249952   5.278   1.710   3.070 -0.2722 -0.9581 -3.5152
 9513TIP3   OH249953   4.813   5.863   0.476 -0.0555  0.9348 -0.2007
 9513TIP3    H149954   4.744   5.845   0.541 -1.2336 -0.2210 -1.7058
 9513TIP3    H249955   4.784   5.944   0.433 -0.5168  0.4158 -0.8746
 9514TIP3   OH249956   0.681   2.519  15.387 -0.2552  0.1830 -0.4543
 9514TIP3    H149957   0.734   2.459  15.439 -1.2031 -0.0909  0.2128
 9514TIP3    H249958   0.724   2.604  15.399  2.2096 -0.5787 -2.8987
 9515TIP3   OH249959   2.979   5.916   5.265 -0.6070  0.2123 -0.3189
 9515TIP3    H149960   3.065   5.930   5.227 -0.7836  1.1037 -0.4151
 9515TIP3    H249961   2.984   5.829   5.305  0.6570  0.6539  0.5398
 9516TIP3   OH249962   5.216   2.792  15.742  0.2980  0.0353 -0.1682
 9516TIP3    H149963   5.276   2.817  15.811  0.7166 -2.0206  0.2667
 9516TIP3    H249964   5.141   2.752  15.787 -1.3074  2.2192 -0.7137
 9517TIP3   OH249965   0.788   3.539   1.508 -0.0317  0.0370 -0.2519
 9517TIP3    H149966   0.700   3.511   1.482  0.2223  0.5372 -1.7243
 9517TIP3    H249967   0.777   3.629   1.538  0.1069  0.4163 -1.3080
 9518TIP3   OH249968   4.138   4.502  15.431 -0.5807  0.5875 -0.0835
 9518TIP3    H149969   4.100   4.452  15.504 -1.9735  1.2948 -0.2872
 9518TIP3    H249970   4.227   4.467  15.422 -0.6814 -0.1375  1.3633
 9519TIP3   OH249971   0.006   3.775   4.380 -0.2873 -0.1224  0.2472
 9519TIP3    H149972   0.044   3.700   4.425  2.5926  0.7112 -0.5899
 9519TIP3    H249973  -0.046   3.819   4.447  0.4669 -1.1993  1.6007
 9520TIP3   OH249974   3.139   4.205   3.474  0.2109  0.3460 -0.5030
 9520TIP3    H149975   3.107   4.120   3.443  1.1709 -0.0981 -0.3142
 9520TIP3    H249976   3.228   4.211   3.439  0.8547  0.4140  1.0787
 9521TIP3   OH249977   2.170   5.819   5.106 -0.3093  0.3647 -0.0304
 9521TIP3    H149978   2.224   5.894   5.131  1.9544 -0.0027 -3.2583
 9521TIP3    H249979   2.204   5.746   5.157 -0.8540  0.9668  1.2538
 9522TIP3   OH249980   1.220   3.948   2.069  0.3057 -0.4636 -0.3756
 9522TIP3    H149981   1.288   3.890   2.102  1.8578  0.6599 -1.4257
 9522TIP3    H249982   1.261   3.992   1.994 -0.7725  1.9486  0.3444
 9523TIP3   OH249983   6.524   1.740   5.341  0.1495  0.7605  0.1338
 9523TIP3    H149984   6.467   1.798   5.392 -0.0506  0.9201 -0.2621
 9523TIP3    H249985   6.603   1.792   5.324  0.3570  0.5882  0.5648
 9524TIP3   OH249986   0.840   6.101  15.572  0.8367 -0.1490 -0.6986
 9524TIP3    H149987   0.928   6.129  15.545  0.5912  1.5931  0.1537
 9524TIP3    H249988   0.854   6.020  15.620  1.8874 -0.3278 -1.2852
 9525TIP3   OH249989   4.996   6.565   4.236 -0.1587 -0.2893  0.5075
 9525TIP3    H149990   5.019   6.474   4.251 -1.5336 -0.5968  0.8916
 9525TIP3    H249991   4.909   6.561   4.196 -0.1160  0.8460  0.2684
 9526TIP3   OH249992   5.391   4.817   3.630 -0.6201  0.3172 -0.6520
 9526TIP3    H149993   5.423   4.903   3.600  0.3944 -0.8000 -3.0808
 9526TIP3    H249994   5.330   4.790   3.562 -0.7280 -0.9881 -0.0513
 9527TIP3   OH249995   4.501   4.163  15.741 -0.5713 -0.0791  0.0120
 9527TIP3    H149996   4.464   4.229  15.800 -2.5508 -1.4819  0.4421
 9527TIP3    H249997   4.575   4.127  15.789  0.5150  1.7386 -0.2059
 9528TIP3   OH249998   6.358   1.979   1.566  0.8000 -0.1178  0.5052
 9528TIP3    H149999   6.432   1.948   1.514  1.8658  2.6613  0.1810
 9528TIP3    H250000   6.360   2.074   1.555 -2.7648  0.0795  0.6316
 9529TIP3   OH250001   0.697   5.299  14.070  0.1320  0.5134  0.4134
 9529TIP3    H150002   0.676   5.295  13.976 -0.3428  0.7650  0.5034
 9529TIP3    H250003   0.733   5.213  14.090  2.6760  1.2557 -0.5590
 9530TIP3   OH250004   5.775   4.390  12.733  0.0117  0.0063  0.1998
 9530TIP3    H150005   5.799   4.392  12.640 -0.2994  1.8130  0.1143
 9530TIP3    H250006   5.827   4.460  12.772 -0.0838 -0.5435  1.3306
 9531TIP3   OH250007   4.936   3.678  15.302  0.2187 -0.5356 -0.0636
 9531TIP3    H150008   4.934   3.682  15.398  0.2632 -2.3127  0.0379
 9531TIP3    H250009   4.878   3.605  15.280 -0.2654  0.2270 -1.4385
 9532TIP3   OH250010   2.442   1.334  16.305 -0.0705 -0.1970  0.3908
 9532TIP3    H150011   2.485   1.415  16.279  0.0418 -0.4170 -0.1328
 9532TIP3    H250012   2.419   1.346  16.397 -0.5243  0.6271  0.1766
 9533TIP3   OH250013   2.704   0.862   3.253 -0.2450  0.0429  0.4006
 9533TIP3    H150014   2.651   0.896   3.325 -1.1894 -0.5561 -0.0001
 9533TIP3    H250015   2.740   0.779   3.286 -0.1335  0.0959  0.4143
 9534TIP3   OH250016   3.358   1.522  11.174  0.3604  0.1052  0.1366
 9534TIP3    H150017   3.274   1.541  11.133  0.6148  0.3094 -0.2966
 9534TIP3    H250018   3.411   1.485  11.103  0.4828 -0.4616  0.5208
 9535TIP3   OH250019   6.004   5.889   0.415  0.2962 -0.6558 -0.5923
 9535TIP3    H150020   6.080   5.907   0.359 -0.5948  1.0916 -1.3096
 9535TIP3    H250021   5.937   5.949   0.384 -2.1401 -3.5150 -1.3786
 9536TIP3   OH250022   4.215   2.085  17.181 -0.4984 -0.0880 -0.0189
 9536TIP3    H150023   4.125   2.087  17.213 -0.5946  1.5335 -0.3120
 9536TIP3    H250024   4.265   2.136  17.245 -0.0378  0.1676 -0.5737
 9537TIP3   OH250025   2.379   3.876  15.778 -0.6593 -0.1862  0.2755
 9537TIP3    H150026   2.468   3.887  15.744 -0.6262 -0.5492  0.2387
 9537TIP3    H250027   2.385   3.799  15.835 -0.4407  1.0769  2.0391
 9538TIP3   OH250028   5.012   6.617  17.161  0.3543 -0.5522 -0.0315
 9538TIP3    H150029   5.102   6.583  17.160  0.2956 -0.7925  1.3115
 9538TIP3    H250030   5.017   6.694  17.218  0.1933  0.9298 -1.9077
 9539TIP3   OH250031   0.922   6.755  16.330  0.3521  0.0350  0.0786
 9539TIP3    H150032   0.921   6.733  16.237  1.8037 -2.7047  0.6307
 9539TIP3    H250033   0.830   6.749  16.357  0.2654 -2.4703 -0.5382
 9540TIP3   OH250034   5.759   4.256  11.706 -0.4259 -0.2747 -0.5005
 9540TIP3    H150035   5.698   4.282  11.636 -0.6163  1.8435  0.3806
 9540TIP3    H250036   5.832   4.216  11.660 -2.0290 -2.0964 -1.6605
 9541TIP3   OH250037   3.008   6.190   0.383  0.1816  0.7114 -0.0405
 9541TIP3    H150038   2.929   6.203   0.331  0.1403  2.7916  0.4222
 9541TIP3    H250039   2.983   6.126   0.450 -1.1166  1.2790  0.0542
 9542TIP3   OH250040   5.795   3.528   5.167  0.1531 -0.3344 -0.0224
 9542TIP3    H150041   5.834   3.551   5.251  0.6701 -1.3631  0.0251
 9542TIP3    H250042   5.869   3.511   5.109 -0.2043 -0.5543 -0.4232
 9543TIP3   OH250043   1.749   5.960  12.792 -0.0936  0.1795 -0.0762
 9543TIP3    H150044   1.701   6.014  12.729 -0.6252 -0.2222 -0.0093
 9543TIP3    H250045   1.817   6.019  12.826  1.1113  0.0196 -2.0352
 9544TIP3   OH250046   3.309   4.818   0.415  0.0974 -0.1616  0.0381
 9544TIP3    H150047   3.271   4.905   0.403  2.0412  0.6050 -1.0433
 9544TIP3    H250048   3.372   4.828   0.487  1.6567 -0.1394 -1.2532
 9545TIP3   OH250049   2.161   2.855  14.770  0.3248 -0.1066 -0.6531
 9545TIP3    H150050   2.077   2.814  14.789 -1.1170  3.5865  2.3459
 9545TIP3    H250051   2.156   2.880  14.678 -1.6087 -0.5141 -0.6936
 9546TIP3   OH250052   2.089   4.703  12.772 -0.1711  0.0773 -0.3094
 9546TIP3    H150053   2.140   4.631  12.734 -2.4483 -2.1789  0.5734
 9546TIP3    H250054   2.097   4.691  12.866 -2.1543 -0.3303 -0.1393
 9547TIP3   OH250055   1.921   4.579   4.689  0.3323 -0.0863  0.0888
 9547TIP3    H150056   1.886   4.557   4.776  0.6574 -1.2992 -0.0692
 9547TIP3    H250057   1.843   4.594   4.635  0.1164  0.0546  0.4354
 9548TIP3   OH250058   2.658   6.524   6.204  0.9207 -0.1948  0.1540
 9548TIP3    H150059   2.615   6.588   6.261  0.5053  0.3463 -0.7380
 9548TIP3    H250060   2.675   6.572   6.123  1.6192 -0.9087 -0.1337
 9549TIP3   OH250061   1.240   0.296  16.810 -0.5155 -0.2270  0.2633
 9549TIP3    H150062   1.152   0.288  16.773 -0.4933 -0.9095  0.3375
 9549TIP3    H250063   1.238   0.242  16.889  0.1566 -0.8219 -0.1064
 9550TIP3   OH250064   2.001   1.927   5.423 -0.5716  0.0645  0.0434
 9550TIP3    H150065   1.990   2.000   5.483 -0.3200 -0.7267  1.0720
 9550TIP3    H250066   2.096   1.916   5.415 -0.5996  0.1434 -0.5004
 9551TIP3   OH250067   1.905   0.530   4.243 -0.2568 -0.1623 -0.2849
 9551TIP3    H150068   1.862   0.513   4.159 -1.1600 -0.4371  0.2163
 9551TIP3    H250069   1.840   0.505   4.309 -0.2202  1.6637  0.5059
 9552TIP3   OH250070   1.466   5.718   2.779  0.0137  0.4009 -0.1227
 9552TIP3    H150071   1.382   5.725   2.823  0.1163  2.1464 -0.1447
 9552TIP3    H250072   1.496   5.809   2.768  0.2142  0.0575 -3.3941
 9553TIP3   OH250073   0.653   1.577  14.850 -0.3411 -0.3511 -0.1385
 9553TIP3    H150074   0.650   1.496  14.901 -1.3011  0.1400  0.6231
 9553TIP3    H250075   0.668   1.549  14.760  3.6202 -1.1686  0.5730
 9554TIP3   OH250076   2.437   3.952  16.485 -0.6226  0.0681 -0.4702
 9554TIP3    H150077   2.506   3.974  16.422 -0.4815 -0.4784 -0.5086
 9554TIP3    H250078   2.359   3.998  16.453 -0.2599  0.7369 -0.3906
 9555TIP3   OH250079   4.980   1.001  17.196  1.0399 -0.2302 -0.1970
 9555TIP3    H150080   4.901   1.053  17.214 -0.7574 -2.0923 -2.0262
 9555TIP3    H250081   5.016   1.038  17.116 -0.1010 -1.5065 -1.3634
 9556TIP3   OH250082   1.818   2.478   2.230 -0.5390  0.1878  0.5412
 9556TIP3    H150083   1.806   2.536   2.305 -1.0333  1.9562 -0.8328
 9556TIP3    H250084   1.889   2.519   2.180  0.1484 -1.2522  0.2970
 9557TIP3   OH250085   1.746   4.232   0.726 -0.7363  0.0094  0.0804
 9557TIP3    H150086   1.692   4.286   0.669 -0.3126 -0.6067 -0.9328
 9557TIP3    H250087   1.791   4.172   0.667 -0.3551 -0.7169  1.0755
 9558TIP3   OH250088   5.482   1.018   5.096  0.2349 -0.1414  0.3462
 9558TIP3    H150089   5.559   0.970   5.129  1.5634  2.0122  0.5619
 9558TIP3    H250090   5.516   1.072   5.025 -0.7257  2.0071  1.4479
 9559TIP3   OH250091   4.130   0.728  15.966 -0.1461 -0.0455 -0.5519
 9559TIP3    H150092   4.138   0.722  16.062 -2.3316  1.5690 -0.1693
 9559TIP3    H250093   4.071   0.656  15.943  1.5717 -1.3929 -0.9675
 9560TIP3   OH250094   6.449   5.174   1.430 -0.0203 -0.1675 -0.8481
 9560TIP3    H150095   6.401   5.092   1.420 -0.3381 -0.0069 -0.6589
 9560TIP3    H250096   6.438   5.197   1.523 -1.8216  1.2477 -1.3711
 9561TIP3   OH250097   0.200   2.838   2.258  0.0256 -0.6127 -0.1463
 9561TIP3    H150098   0.253   2.837   2.179  0.8769 -0.2772  0.4047
 9561TIP3    H250099   0.169   2.928   2.266  0.6876 -0.4256  0.3788
 9562TIP3   OH250100   4.213   3.476   0.295 -0.3605 -0.1717 -0.1064
 9562TIP3    H150101   4.194   3.427   0.215  1.2951  1.5614 -1.6533
 9562TIP3    H250102   4.308   3.469   0.305 -0.5227 -0.3188  1.7383
 9563TIP3   OH250103   4.249   1.388  16.393  0.2019 -0.0436 -0.4422
 9563TIP3    H150104   4.284   1.310  16.350  0.7713 -0.2664  0.4027
 9563TIP3    H250105   4.248   1.366  16.486 -0.8008  0.5086 -0.3099
 9564TIP3   OH250106   0.106   2.880   4.954 -0.0933  0.4144 -0.5621
 9564TIP3    H150107   0.038   2.889   4.887  0.3219 -1.2159 -1.2614
 9564TIP3    H250108   0.186   2.864   4.904  0.1128 -1.4988  0.3042
 9565TIP3   OH250109   2.469   2.299  15.166 -0.6967 -0.5076 -0.6734
 9565TIP3    H150110   2.501   2.221  15.211 -1.9330 -1.2163 -0.9774
 9565TIP3    H250111   2.471   2.275  15.073 -0.8689 -0.1018 -0.7818
 9566TIP3   OH250112   6.682   0.040  16.135 -0.3729  0.0842 -0.4137
 9566TIP3    H150113   6.660  -0.005  16.217 -1.5868 -1.0103 -1.3179
 9566TIP3    H250114   6.598   0.055  16.092  0.2616  0.5078 -1.5436
 9567TIP3   OH250115   4.572   3.333  16.534 -0.5981 -0.1682  0.0684
 9567TIP3    H150116   4.485   3.367  16.516 -1.1373 -2.1902 -1.5702
 9567TIP3    H250117   4.569   3.307  16.626 -1.1615  1.2406  0.4766
 9568TIP3   OH250118   2.984   2.441  16.429 -0.0556 -0.0136  0.1469
 9568TIP3    H150119   3.058   2.501  16.440  1.3156 -1.7678  1.0397
 9568TIP3    H250120   2.962   2.447  16.336  3.0631 -1.4264 -0.8186
 9569TIP3   OH250121   5.175   1.570   5.196 -0.5235 -0.4226  0.1419
 9569TIP3    H150122   5.151   1.477   5.192  0.3953 -0.6266 -1.1884
 9569TIP3    H250123   5.218   1.587   5.112 -1.7281  1.5125 -0.1450
 9570TIP3   OH250124   1.281   0.375   3.431 -0.0614  0.2049 -0.4613
 9570TIP3    H150125   1.281   0.370   3.526  2.6358  2.5716 -0.1974
 9570TIP3    H250126   1.295   0.285   3.401 -3.4887 -1.0243  1.1559
 9571TIP3   OH250127   3.317   0.681   0.695 -0.0280 -0.2795 -0.0575
 9571TIP3    H150128   3.250   0.655   0.631 -0.8259 -0.3761  0.8048
 9571TIP3    H250129   3.327   0.775   0.682 -1.2809 -0.0268  0.6692
 9572TIP3   OH250130   0.395   5.599  11.807  0.3693 -0.2998 -0.1572
 9572TIP3    H150131   0.405   5.568  11.897 -2.1965  0.9419  0.6541
 9572TIP3    H250132   0.457   5.671  11.799  0.6907 -0.4828  0.5740
 9573TIP3   OH250133   6.068   1.647   1.537 -0.1207  1.1620  0.1769
 9573TIP3    H150134   5.975   1.663   1.554 -0.5086  0.3748 -1.0845
 9573TIP3    H250135   6.083   1.684   1.450  0.5930  0.6995  0.0948
 9574TIP3   OH250136   2.830   5.746  12.105  0.4632  0.1998  0.0216
 9574TIP3    H150137   2.754   5.715  12.055 -2.6835  0.4188  4.1407
 9574TIP3    H250138   2.853   5.672  12.161  1.0346  1.2796  1.2482
 9575TIP3   OH250139   4.666   4.492   4.908  0.4320 -0.9022 -0.4185
 9575TIP3    H150140   4.613   4.415   4.929 -0.3280 -0.6674 -1.3928
 9575TIP3    H250141   4.756   4.465   4.924  0.1456 -1.8976 -0.4453
 9576TIP3   OH250142   1.281   4.275   0.737 -0.1998 -0.1482  0.3194
 9576TIP3    H150143   1.317   4.359   0.766  1.4152  0.3616 -2.7209
 9576TIP3    H250144   1.262   4.288   0.644 -2.3514 -2.4379  0.3367
 9577TIP3   OH250145   3.692   0.079  10.551  0.0265 -0.1153 -0.8272
 9577TIP3    H150146   3.597   0.073  10.557  0.1025 -0.1880  0.6737
 9577TIP3    H250147   3.724  -0.006  10.582  0.6037  0.8603  1.5116
 9578TIP3   OH250148   2.838   2.309   4.443 -0.2959 -0.1532  0.1349
 9578TIP3    H150149   2.888   2.242   4.396 -2.0067 -1.7754  0.5480
 9578TIP3    H250150   2.904   2.374   4.468  1.1051 -0.5956 -2.0690
 9579TIP3   OH250151   0.490   6.654   1.655 -0.0543 -0.5224 -0.1927
 9579TIP3    H150152   0.532   6.568   1.657  0.7011 -0.2324 -1.9324
 9579TIP3    H250153   0.549   6.708   1.602 -1.1472  0.7366 -0.1752
 9580TIP3   OH250154   3.683   0.218   4.146 -0.6664  0.5930 -0.0265
 9580TIP3    H150155   3.729   0.285   4.196  0.1298  0.8448 -1.0511
 9580TIP3    H250156   3.675   0.256   4.058 -2.5765  0.4292  0.0282
 9581TIP3   OH250157   5.310   3.723   1.733  0.1486  0.1221  0.0338
 9581TIP3    H150158   5.249   3.653   1.707 -0.1955  0.6445 -0.6083
 9581TIP3    H250159   5.383   3.714   1.672 -0.8354  1.5962 -1.4545
 9582TIP3   OH250160   5.033   0.463   5.925 -0.5831  0.1205  0.2306
 9582TIP3    H150161   5.099   0.404   5.963 -1.6130 -0.5172  1.0772
 9582TIP3    H250162   4.987   0.499   6.000 -0.3916  1.5545 -0.3068
 9583TIP3   OH250163   2.018   5.130  12.411 -1.0659  0.3565 -0.0350
 9583TIP3    H150164   1.964   5.075  12.355  0.3573 -0.6312 -0.4930
 9583TIP3    H250165   2.091   5.074  12.436 -1.4769  0.8715  2.5760
 9584TIP3   OH250166   4.473   2.825   5.311 -0.5156  0.0113  0.4852
 9584TIP3    H150167   4.439   2.736   5.303 -1.8632  0.3791  1.6150
 9584TIP3    H250168   4.502   2.832   5.402 -0.6111  0.7826  0.4641
 9585TIP3   OH250169   2.581   1.701   1.341 -0.9650  0.0474  0.0339
 9585TIP3    H150170   2.605   1.786   1.376 -0.7633 -0.1299  0.3238
 9585TIP3    H250171   2.662   1.664   1.308 -1.1988  0.3352 -0.8979
 9586TIP3   OH250172   3.355   3.458   1.383  0.5591  0.4471 -0.1508
 9586TIP3    H150173   3.396   3.374   1.361 -0.8645 -0.8843  1.8811
 9586TIP3    H250174   3.266   3.450   1.347  0.1732  0.7455  0.7154
 9587TIP3   OH250175   5.530   2.416   3.689  0.2247  0.1254 -0.3698
 9587TIP3    H150176   5.467   2.359   3.733 -0.4815  1.0201 -0.1856
 9587TIP3    H250177   5.557   2.367   3.611 -0.1210 -0.5842 -0.0500
 9588TIP3   OH250178   0.700   1.387  17.119  0.0437  0.4642 -0.3537
 9588TIP3    H150179   0.784   1.404  17.161 -0.3011 -0.0901  0.5960
 9588TIP3    H250180   0.675   1.470  17.079  0.3838  1.0097  0.5507
 9589TIP3   OH250181   0.378   5.012  17.228 -0.4377  0.2588  0.6556
 9589TIP3    H150182   0.428   4.937  17.260 -2.6019 -0.7511  1.9054
 9589TIP3    H250183   0.287   4.983  17.230 -1.0325  0.8269 -4.6841
 9590TIP3   OH250184   3.791   0.488  13.520  0.1733  0.6946 -0.6311
 9590TIP3    H150185   3.711   0.447  13.487  0.5314 -0.5171 -0.0474
 9590TIP3    H250186   3.860   0.460  13.460  0.1576  1.8542 -1.2186
 9591TIP3   OH250187   6.470   0.295   0.551  0.4866 -0.3503 -0.6766
 9591TIP3    H150188   6.500   0.337   0.632 -1.3185 -1.3008  0.5828
 9591TIP3    H250189   6.427   0.215   0.582 -0.3469 -0.6803 -2.5906
 9592TIP3   OH250190   6.634   5.807  16.279  0.1678 -0.2044 -0.3660
 9592TIP3    H150191   6.539   5.810  16.278  0.1880  1.6549  0.1926
 9592TIP3    H250192   6.656   5.724  16.237 -1.7474 -2.4127  2.5691
 9593TIP3   OH250193   0.370   4.471   1.919 -0.2781 -0.2677  0.2212
 9593TIP3    H150194   0.340   4.399   1.974  1.2249 -1.8616 -0.9356
 9593TIP3    H250195   0.401   4.537   1.981 -0.3593 -1.2200  1.3121
 9594TIP3   OH250196   2.094   3.472   2.948 -0.0156  0.3084  0.0281
 9594TIP3    H150197   2.045   3.501   3.025 -2.8843 -2.2016 -0.6728
 9594TIP3    H250198   2.027   3.449   2.884  2.1600 -1.1381 -1.8935
 9595TIP3   OH250199   2.953   3.014  16.439 -0.0630 -0.1731 -0.4607
 9595TIP3    H150200   2.979   2.976  16.355  0.3320 -1.5952  0.2741
 9595TIP3    H250201   3.009   2.971  16.503  1.3513  2.6289  0.3443
 9596TIP3   OH250202   0.588   4.081  13.008  0.3776 -0.2451  0.3005
 9596TIP3    H150203   0.645   4.027  13.062  0.4875  1.1548  1.6789
 9596TIP3    H250204   0.631   4.085  12.923  2.8512  1.3836  1.4856
 9597TIP3   OH250205   1.269   0.943  12.475 -0.1695 -0.7638  0.0762
 9597TIP3    H150206   1.282   0.974  12.565 -0.9855  0.9392 -0.3530
 9597TIP3    H250207   1.339   0.984  12.425 -1.1279  0.2699 -0.4657
 9598TIP3   OH250208   2.363   3.110  10.971  0.8048 -0.1659  0.8084
 9598TIP3    H150209   2.370   3.163  10.891  1.6950 -0.6085  0.5805
 9598TIP3    H250210   2.340   3.173  11.039 -1.2413  0.0341  0.0027
 9599TIP3   OH250211   0.891   0.046  12.679 -0.5019  0.1534 -0.2396
 9599TIP3    H150212   0.820   0.107  12.657  0.1873  1.2460  0.4873
 9599TIP3    H250213   0.954   0.099  12.727  1.1337 -0.6229 -1.4230
 9600TIP3   OH250214   2.304   5.204   1.263  0.1525 -0.1476 -0.1872
 9600TIP3    H150215   2.317   5.145   1.338  0.0038 -0.1945 -0.1983
 9600TIP3    H250216   2.238   5.266   1.293 -0.5414 -0.6877 -0.5809
 9601TIP3   OH250217   4.729   6.056  15.898 -0.3349  0.3259 -0.2562
 9601TIP3    H150218   4.712   6.146  15.871 -0.9250 -0.0925 -1.3540
 9601TIP3    H250219   4.676   6.003  15.839  1.2746 -0.8273 -0.7355
 9602TIP3   OH250220   2.216   4.605   3.287 -0.3284  0.1571  0.2478
 9602TIP3    H150221   2.193   4.626   3.378 -1.5579 -1.0056  0.2363
 9602TIP3    H250222   2.256   4.518   3.292  0.3186  0.4209 -0.2448
 9603TIP3   OH250223   0.267   0.712   1.682  0.2433 -0.1162  0.5934
 9603TIP3    H150224   0.217   0.756   1.613  0.4097 -2.5921 -1.2388
 9603TIP3    H250225   0.207   0.647   1.718  1.3023 -1.3980  0.1262
 9604TIP3   OH250226   6.331   5.529  15.596  0.4404  0.1774  0.4235
 9604TIP3    H150227   6.276   5.452  15.604  1.3119 -0.6094 -0.8498
 9604TIP3    H250228   6.287   5.583  15.530  0.1886  0.4722  0.8240
 9605TIP3   OH250229   3.836   4.259  16.250 -0.7192  0.2441  0.7294
 9605TIP3    H150230   3.810   4.200  16.321  0.8028 -2.4450 -0.7624
 9605TIP3    H250231   3.785   4.230  16.175 -0.0102  0.9238 -0.0291
 9606TIP3   OH250232   1.037   0.152   4.372  0.5308 -0.0707 -0.0055
 9606TIP3    H150233   1.110   0.090   4.370  1.8155  1.3521  0.3729
 9606TIP3    H250234   0.968   0.109   4.322  1.4499 -1.6841  0.0303
 9607TIP3   OH250235   1.286   4.834   3.183  0.2845 -0.5478  0.3486
 9607TIP3    H150236   1.325   4.897   3.244 -0.3959 -0.6580  0.8972
 9607TIP3    H250237   1.233   4.777   3.237  2.1377 -2.6293  0.0878
 9608TIP3   OH250238   0.848   6.439  16.836  0.1737 -0.0520  0.3088
 9608TIP3    H150239   0.812   6.375  16.897 -1.5221 -0.0154 -0.5883
 9608TIP3    H250240   0.797   6.519  16.852 -0.2327 -0.0167 -1.0352
 9609TIP3   OH250241   5.395   3.739  15.626  0.6509 -0.5496  0.3309
 9609TIP3    H150242   5.390   3.703  15.538  0.6370  0.0637  0.0775
 9609TIP3    H250243   5.469   3.800  15.623 -0.0832  0.3666  0.4064
 9610TIP3   OH250244   4.369   2.964   3.790 -0.4213 -0.3401  0.2431
 9610TIP3    H150245   4.423   2.907   3.734 -1.8019 -1.7729  0.3161
 9610TIP3    H250246   4.329   3.026   3.729 -1.5162 -1.5740 -0.3477
 9611TIP3   OH250247   6.162   3.471  16.422  0.3972  0.1563  0.3466
 9611TIP3    H150248   6.249   3.445  16.453 -0.8498 -1.3719  2.8768
 9611TIP3    H250249   6.145   3.554  16.466 -0.7221 -1.2288  2.7065
 9612TIP3   OH250250   3.637   3.423   1.700 -0.4420  0.1685  0.4293
 9612TIP3    H150251   3.671   3.334   1.700  0.3522  0.4447 -0.7728
 9612TIP3    H250252   3.596   3.434   1.786  0.4181 -0.9845  1.0008
 9613TIP3   OH250253   3.634   6.719  15.685  0.1675 -0.3556  0.2030
 9613TIP3    H150254   3.601   6.651  15.626  0.8027 -0.7017  0.2392
 9613TIP3    H250255   3.563   6.783  15.689  0.3089 -0.0553 -1.3783
 9614TIP3   OH250256   1.404   1.304  14.933 -0.3417  0.1219  0.0544
 9614TIP3    H150257   1.398   1.303  15.028 -2.6635 -1.8164 -0.0071
 9614TIP3    H250258   1.462   1.231  14.912 -0.7413 -0.1821 -0.0142
 9615TIP3   OH250259   2.316   1.198  16.966 -0.7631 -0.0263 -0.7626
 9615TIP3    H150260   2.314   1.103  16.971  2.8265 -0.1756  1.9296
 9615TIP3    H250261   2.404   1.219  16.934 -0.0340  2.2503  2.2034
 9616TIP3   OH250262   1.814   0.718   6.036 -0.3714  0.2428  0.6397
 9616TIP3    H150263   1.724   0.704   6.007  0.0647  1.1831 -1.3958
 9616TIP3    H250264   1.866   0.715   5.955  0.8877  3.6628  1.1414
 9617TIP3   OH250265   5.295   5.760  16.496  0.3150 -0.5836  0.5940
 9617TIP3    H150266   5.302   5.763  16.591  0.6031 -1.2401  0.5995
 9617TIP3    H250267   5.202   5.774  16.478  0.1639 -1.0151  1.0037
 9618TIP3   OH250268   3.237   2.799   3.595 -0.4386  0.0461 -0.2225
 9618TIP3    H150269   3.182   2.722   3.606  0.3481 -0.2520  2.2943
 9618TIP3    H250270   3.197   2.865   3.651  0.3130  0.6483 -0.3806
 9619TIP3   OH250271   2.549   5.942  13.438  0.2090 -0.1172 -0.8774
 9619TIP3    H150272   2.516   6.007  13.500  1.4814 -0.9614  0.7680
 9619TIP3    H250273   2.602   5.992  13.376  2.1727  0.3722  1.0636
 9620TIP3   OH250274   0.350   4.437  11.022 -0.4745 -0.0801 -0.5550
 9620TIP3    H150275   0.299   4.388  10.957 -1.2111  0.0189 -0.0711
 9620TIP3    H250276   0.395   4.369  11.072 -0.9803 -0.2357 -0.3027
 9621TIP3   OH250277   4.081   5.622   3.163  0.3096 -0.6818  0.1800
 9621TIP3    H150278   3.998   5.637   3.209  1.1638  0.0661  1.5717
 9621TIP3    H250279   4.064   5.649   3.073 -1.3475 -1.8810  0.0858
 9622TIP3   OH250280   4.072   0.074  12.250  0.0205  0.3654 -0.3505
 9622TIP3    H150281   4.131   0.009  12.213  1.0836  1.4362 -0.6030
 9622TIP3    H250282   3.998   0.077  12.190  1.2486  1.3567 -1.9168
 9623TIP3   OH250283   5.250   6.530   1.385 -0.0636 -0.0322 -0.1518
 9623TIP3    H150284   5.305   6.572   1.318 -0.0425 -1.1226 -0.8558
 9623TIP3    H250285   5.161   6.535   1.349 -0.1737  0.1370  0.1441
 9624TIP3   OH250286   5.300   2.503   3.233 -0.5166  0.3738  0.1342
 9624TIP3    H150287   5.393   2.512   3.216 -0.2980  0.8886  1.5451
 9624TIP3    H250288   5.266   2.592   3.237 -0.9558  0.2088  0.2498
 9625TIP3   OH250289   1.905   0.071   1.615  0.1461  0.1612 -0.0932
 9625TIP3    H150290   1.999   0.074   1.597  0.1534  0.7286  0.0061
 9625TIP3    H250291   1.897   0.013   1.691  0.2894 -0.8434 -0.8232
 9626TIP3   OH250292   3.066   2.421  16.109  0.5538  0.6379 -0.0490
 9626TIP3    H150293   3.045   2.510  16.080  2.3045  1.1181  0.0539
 9626TIP3    H250294   3.161   2.416  16.106  0.4685 -1.8367 -1.7515
 9627TIP3   OH250295   6.370   2.845  17.048  0.3769 -0.2527  0.4888
 9627TIP3    H150296   6.343   2.755  17.027 -1.3217 -0.0704  1.6789
 9627TIP3    H250297   6.410   2.838  17.134  1.6827 -0.0720 -0.0787
 9628TIP3   OH250298   0.493   0.614   5.424  0.3781 -0.0187  0.2816
 9628TIP3    H150299   0.564   0.559   5.456 -0.4080 -1.0509  0.3052
 9628TIP3    H250300   0.496   0.604   5.329  0.3042 -0.0069  0.2783
 9629TIP3   OH250301   4.947   3.881   4.055 -0.0022  0.3589  0.0129
 9629TIP3    H150302   5.043   3.874   4.054  0.0129  0.4905 -1.5846
 9629TIP3    H250303   4.916   3.790   4.050  0.0460  0.3876 -0.7770
 9630TIP3   OH250304   6.165   4.711   2.018 -0.1171  0.6853  0.0836
 9630TIP3    H150305   6.217   4.674   1.947 -2.8467 -0.5243 -1.4524
 9630TIP3    H250306   6.113   4.779   1.977 -1.4855  0.2238  0.9732
 9631TIP3   OH250307   6.669   3.717  11.287 -0.0299 -0.5025 -0.3465
 9631TIP3    H150308   6.590   3.771  11.283  2.0423  3.1545  1.7604
 9631TIP3    H250309   6.725   3.751  11.218  1.0337 -0.4929  0.4915
 9632TIP3   OH250310   5.883   0.206  16.074  0.2209 -0.4800  0.4867
 9632TIP3    H150311   5.834   0.125  16.088  4.0633 -3.2951 -0.5774
 9632TIP3    H250312   5.855   0.236  15.987 -0.3926 -1.3304  0.3771
 9633TIP3   OH250313   2.336   2.227   6.686 -0.0273  0.2786 -0.0236
 9633TIP3    H150314   2.305   2.220   6.596 -1.2279  0.8046  0.3307
 9633TIP3    H250315   2.281   2.166   6.735  0.5411  0.0778  0.3749
 9634TIP3   OH250316   0.895   3.279  11.828 -0.3977 -0.1801 -0.2653
 9634TIP3    H150317   0.802   3.254  11.835  0.0315 -1.4150  1.8323
 9634TIP3    H250318   0.941   3.196  11.816  0.5924  0.2306  0.5924
 9635TIP3   OH250319   2.479   5.858   6.242 -0.2776 -0.0999  0.1919
 9635TIP3    H150320   2.523   5.782   6.280 -0.3846 -0.0526  0.4117
 9635TIP3    H250321   2.524   5.933   6.281  1.6594  0.0129 -2.0413
 9636TIP3   OH250322   5.306   1.641  12.249 -0.0523  0.3675  0.1630
 9636TIP3    H150323   5.397   1.633  12.220 -0.5442  0.9852 -1.6796
 9636TIP3    H250324   5.287   1.734  12.242 -1.1253  0.1164 -0.4800
 9637TIP3   OH250325   3.372   4.015   0.920 -0.1598 -0.3134  0.1663
 9637TIP3    H150326   3.461   4.039   0.891 -0.2514  0.6677  0.6427
 9637TIP3    H250327   3.381   4.001   1.014 -0.3848 -0.8542  0.1065
 9638TIP3   OH250328   3.311   2.443   3.500  0.0263  0.3950  0.1977
 9638TIP3    H150329   3.337   2.443   3.592 -1.2438 -0.4011  0.5739
 9638TIP3    H250330   3.221   2.475   3.500 -0.0533  0.2025 -0.7492
 9639TIP3   OH250331   2.345   6.603  17.140 -0.4118  0.6758 -0.0154
 9639TIP3    H150332   2.349   6.572  17.049 -0.6775 -2.1055  0.8356
 9639TIP3    H250333   2.436   6.600  17.170 -0.4989  0.2609  0.2088
 9640TIP3   OH250334   0.896   0.764   5.918  0.8131 -0.1660  0.3894
 9640TIP3    H150335   0.857   0.848   5.893 -0.2610 -0.4528  1.0476
 9640TIP3    H250336   0.990   0.778   5.910  0.6344  1.0000  0.1607
 9641TIP3   OH250337   1.946   0.931  11.803 -0.2025  0.6512  0.1336
 9641TIP3    H150338   2.010   0.877  11.849 -1.9238 -0.4314  1.3467
 9641TIP3    H250339   1.982   0.939  11.714  1.2637 -0.4715  0.5832
 9642TIP3   OH250340   0.325   5.539  14.430  0.4152  1.0910 -0.8850
 9642TIP3    H150341   0.341   5.497  14.346  2.1424  0.7065 -0.4175
 9642TIP3    H250342   0.230   5.540  14.439  0.1741  1.3760 -2.9353
 9643TIP3   OH250343   5.711   0.175   5.970  0.1563  0.1593 -0.0286
 9643TIP3    H150344   5.776   0.136   6.028 -0.7866 -1.1028  0.2367
 9643TIP3    H250345   5.630   0.128   5.991 -0.5298  0.7172 -1.3308
 9644TIP3   OH250346   6.170   1.437  16.790  0.5191  0.2873  0.2969
 9644TIP3    H150347   6.168   1.526  16.755  0.1784  0.5186  0.8918
 9644TIP3    H250348   6.260   1.425  16.819  0.1644  1.0927  1.8317
 9645TIP3   OH250349   5.783   3.107   4.024 -0.0395 -0.2375 -0.1898
 9645TIP3    H150350   5.842   3.095   4.099  0.8170  0.9311 -0.6379
 9645TIP3    H250351   5.821   3.055   3.954  0.7613  0.8731 -0.6140
 9646TIP3   OH250352   1.801   6.574   5.237 -0.2310  0.3715  0.2279
 9646TIP3    H150353   1.892   6.567   5.267 -0.4138 -2.7829  0.3840
 9646TIP3    H250354   1.781   6.667   5.243  2.8723  1.1301  0.4970
 9647TIP3   OH250355   4.637   4.035   3.004 -0.1763  1.0287  0.0897
 9647TIP3    H150356   4.612   3.943   2.990  0.9339  0.9389 -1.7398
 9647TIP3    H250357   4.568   4.071   3.059  0.4533 -1.4241  2.6766
 9648TIP3   OH250358   5.215   2.909  14.648  0.2179 -0.0456  0.1403
 9648TIP3    H150359   5.164   2.848  14.701  0.8184  1.2563  2.3125
 9648TIP3    H250360   5.175   2.995  14.664  1.9655  0.7482  0.5345
 9649TIP3   OH250361   5.810   1.379   1.719  0.3876  0.5376  0.1027
 9649TIP3    H150362   5.849   1.300   1.681 -1.0720  0.1620 -0.6787
 9649TIP3    H250363   5.732   1.347   1.765 -0.6184  1.5907 -0.8220
 9650TIP3   OH250364   2.299   1.239  16.084  0.2643 -0.3863  0.4277
 9650TIP3    H150365   2.295   1.143  16.082  2.9150 -0.5713 -0.5115
 9650TIP3    H250366   2.359   1.259  16.157  0.1477  0.5252  0.2874
 9651TIP3   OH250367   3.602   1.177   5.263 -0.3672 -0.4680 -0.0774
 9651TIP3    H150368   3.634   1.162   5.174  0.7640 -1.5267  0.4795
 9651TIP3    H250369   3.652   1.252   5.294 -1.1784  0.2735 -0.5114
 9652TIP3   OH250370   2.526   5.634   5.867  0.1199 -0.3824  0.3859
 9652TIP3    H150371   2.520   5.720   5.827 -0.2754 -0.9546 -0.8558
 9652TIP3    H250372   2.577   5.647   5.946 -2.1647  1.4760  1.6882
 9653TIP3   OH250373   0.033   0.784  11.844  0.2213 -0.1673  0.1234
 9653TIP3    H150374   0.047   0.836  11.765 -0.0665 -0.0017  0.1783
 9653TIP3    H250375  -0.062   0.776  11.851  0.2645 -2.9937 -1.3649
 9654TIP3   OH250376   1.753   1.730   4.382  0.2007  0.7858 -0.4792
 9654TIP3    H150377   1.830   1.696   4.427 -0.4822  0.1756  0.2464
 9654TIP3    H250378   1.699   1.653   4.364 -0.7670  1.3251  0.0281
 9655TIP3   OH250379   5.974   4.028   5.165  0.7626  0.1481 -0.1822
 9655TIP3    H150380   6.015   4.023   5.251  0.6091  0.3909 -0.0933
 9655TIP3    H250381   5.884   3.999   5.179  0.3128  1.5615  0.0366
 9656TIP3   OH250382   1.752   4.389  16.742 -0.5522 -0.6608  0.0028
 9656TIP3    H150383   1.758   4.334  16.820 -0.0283  0.4010  0.7379
 9656TIP3    H250384   1.803   4.343  16.675 -0.7314 -1.4153  0.3793
 9657TIP3   OH250385   4.423   6.260  16.797 -0.1840 -0.6294 -0.1057
 9657TIP3    H150386   4.344   6.247  16.849 -0.1565 -0.6702 -0.0741
 9657TIP3    H250387   4.406   6.213  16.715 -0.9957  0.9838 -0.9061
 9658TIP3   OH250388   0.112   3.546  13.675  0.0526  0.0796  0.1000
 9658TIP3    H150389   0.180   3.514  13.615  0.4000  0.5450  0.2313
 9658TIP3    H250390   0.055   3.599  13.620  0.7085  0.9956  0.2754
 9659TIP3   OH250391   1.072   4.027  16.717  0.0344 -0.6508 -0.1951
 9659TIP3    H150392   1.036   3.984  16.639  0.5544 -0.0688 -0.7735
 9659TIP3    H250393   1.008   4.010  16.786 -0.4257 -1.1984 -0.7421
 9660TIP3   OH250394   1.903   4.163   4.933 -0.0891  0.1804 -0.3837
 9660TIP3    H150395   1.897   4.138   5.025  0.1523 -0.2009 -0.4703
 9660TIP3    H250396   1.812   4.172   4.905 -0.2936 -2.5397 -0.8691
 9661TIP3   OH250397   4.614   6.437  16.018  0.5417  0.3095 -0.4667
 9661TIP3    H150398   4.678   6.383  15.972  2.0318  1.5135  0.0849
 9661TIP3    H250399   4.560   6.375  16.066  0.4886 -0.8121 -1.9165
 9662TIP3   OH250400   6.543   0.603  16.859 -0.9613  0.5112 -0.0775
 9662TIP3    H150401   6.499   0.602  16.944 -2.2609 -0.5976 -0.7283
 9662TIP3    H250402   6.507   0.680  16.815 -2.4450 -0.4723 -0.6631
 9663TIP3   OH250403   6.719   1.235   1.882 -0.3424  0.5471  0.1863
 9663TIP3    H150404   6.783   1.202   1.946  1.3443  3.3547  0.0971
 9663TIP3    H250405   6.645   1.264   1.936  0.5327  1.7234  0.8002
 9664TIP3   OH250406   6.035   5.811   3.745  0.1406  0.1734  0.0418
 9664TIP3    H150407   6.029   5.740   3.681 -2.9149  0.2285  0.1316
 9664TIP3    H250408   6.049   5.890   3.692 -3.2763  0.3536 -0.7958
 9665TIP3   OH250409   6.353   4.704   3.411  0.2366 -0.4262  0.0684
 9665TIP3    H150410   6.263   4.724   3.438  0.9894  0.9934  1.7513
 9665TIP3    H250411   6.387   4.788   3.378  0.5615 -1.2599 -1.8357
 9666TIP3   OH250412   5.181   5.891   0.910 -0.2454  0.3543  0.5737
 9666TIP3    H150413   5.095   5.862   0.878 -0.2426  1.3339 -0.3752
 9666TIP3    H250414   5.226   5.923   0.832  1.1088 -0.4144  1.0064
 9667TIP3   OH250415   3.730   1.735  11.744 -0.2160 -0.2432  0.0454
 9667TIP3    H150416   3.766   1.745  11.831  0.8317 -2.2505 -0.1092
 9667TIP3    H250417   3.803   1.753  11.685  0.0082 -2.1789 -0.3152
 9668TIP3   OH250418   2.093   5.315  16.045 -0.1597  0.7972  0.7325
 9668TIP3    H150419   2.128   5.351  15.964 -1.6576  3.1629  1.0325
 9668TIP3    H250420   2.148   5.352  16.114 -0.5683  1.0433  0.9349
 9669TIP3   OH250421   2.563   4.460  17.180 -0.2151  0.0216  0.1473
 9669TIP3    H150422   2.505   4.383  17.177 -0.8281  0.4173  1.2541
 9669TIP3    H250423   2.598   4.467  17.091  0.6206 -2.1211  0.2401
 9670TIP3   OH250424   3.088   2.829  15.670  0.0371 -0.3645  0.0947
 9670TIP3    H150425   3.181   2.816  15.690  0.2442 -0.4822 -0.8717
 9670TIP3    H250426   3.081   2.921  15.645 -0.2533 -0.1687  0.8673
 9671TIP3   OH250427   2.218   0.082   2.717  0.3448  0.0387  0.5852
 9671TIP3    H150428   2.224   0.165   2.671  0.4743 -0.4250 -0.2533
 9671TIP3    H250429   2.229   0.105   2.809 -1.7588  1.2099  0.5960
 9672TIP3   OH250430   4.122   4.162  11.661 -0.1951  0.0748 -0.2031
 9672TIP3    H150431   4.059   4.177  11.590 -1.7128 -1.8723  0.6481
 9672TIP3    H250432   4.189   4.106  11.622 -0.3006  0.1254 -0.4583
 9673TIP3   OH250433   0.806   5.007  16.777 -0.3375 -0.1364 -0.0203
 9673TIP3    H150434   0.753   5.079  16.810  0.4898  0.5511 -0.1612
 9673TIP3    H250435   0.893   5.044  16.765  0.1695 -1.2282  0.1516
 9674TIP3   OH250436   3.184   5.942  14.612  0.0518 -0.3455 -0.6767
 9674TIP3    H150437   3.231   5.863  14.585  0.0818 -0.1418 -1.2276
 9674TIP3    H250438   3.124   5.911  14.680  0.9732 -0.6110  0.0397
 9675TIP3   OH250439   5.402   2.392   1.053  0.1315  0.0809  0.0499
 9675TIP3    H150440   5.485   2.359   1.086  1.1618  0.9023 -1.6120
 9675TIP3    H250441   5.364   2.317   1.006  0.0545 -0.2023  0.5527
 9676TIP3   OH250442   0.233   4.316   1.053 -0.1170 -0.3300  0.4268
 9676TIP3    H150443   0.149   4.296   1.012 -0.1606  0.1133  0.2888
 9676TIP3    H250444   0.212   4.326   1.146 -0.0380 -1.2210  0.5473
 9677TIP3   OH250445   5.044   6.442  12.897 -0.0109  0.5284 -0.2655
 9677TIP3    H150446   5.072   6.531  12.873  0.9152 -0.4233 -3.1566
 9677TIP3    H250447   4.962   6.429  12.849  0.4350 -0.5345 -0.7613
 9678TIP3   OH250448   0.639   6.136   4.893 -0.0992 -0.1708 -0.2356
 9678TIP3    H150449   0.553   6.120   4.931 -0.0773  1.3053  0.4845
 9678TIP3    H250450   0.692   6.061   4.922 -0.7609 -0.3685  0.4913
 9679TIP3   OH250451   1.426   4.503  12.230  0.2420  0.1381  0.1815
 9679TIP3    H150452   1.477   4.477  12.153  0.3196  1.3526 -0.1937
 9679TIP3    H250453   1.335   4.480  12.207  0.4368 -0.8245  0.3243
 9680TIP3   OH250454   2.903   0.925   4.960  0.7036 -0.0846  0.5674
 9680TIP3    H150455   2.987   0.924   5.006  1.3442 -0.3141 -0.5874
 9680TIP3    H250456   2.843   0.881   5.020  2.0522 -2.5552  0.2270
 9681TIP3   OH250457   1.416   2.135   4.310 -0.0314 -0.0154 -0.6267
 9681TIP3    H150458   1.441   2.201   4.375 -0.0768 -0.3489 -0.2739
 9681TIP3    H250459   1.493   2.078   4.303 -0.1685 -0.2069 -0.5808
 9682TIP3   OH250460   1.934   0.381   5.138 -0.1948  0.4343  0.0535
 9682TIP3    H150461   1.879   0.330   5.079 -1.1723  0.3731  0.9797
 9682TIP3    H250462   1.890   0.375   5.223  0.5557  1.4593  0.5401
 9683TIP3   OH250463   3.362   2.020  14.640 -0.0532  0.1991 -0.4794
 9683TIP3    H150464   3.431   2.004  14.704  0.3292 -0.9166 -1.1358
 9683TIP3    H250465   3.355   1.937  14.592 -1.4159  0.5005 -0.8371
 9684TIP3   OH250466   5.005   1.725   5.046  0.6101  0.0626 -0.1731
 9684TIP3    H150467   5.057   1.659   5.093 -1.2523 -0.6220  1.0510
 9684TIP3    H250468   5.064   1.758   4.978  1.8767 -2.2921 -0.3347
 9685TIP3   OH250469   0.777   2.470  13.760 -0.3634  0.1431 -0.2071
 9685TIP3    H150470   0.699   2.436  13.802  0.0144 -0.5525 -0.0572
 9685TIP3    H250471   0.822   2.393  13.727  0.9748  0.4042  0.9299
 9686TIP3   OH250472   2.120   1.830   2.254  0.8750  0.1978 -0.3514
 9686TIP3    H150473   2.128   1.922   2.280  2.3812  0.1373 -0.4832
 9686TIP3    H250474   2.069   1.832   2.173 -0.3868  0.7673  0.4362
 9687TIP3   OH250475   6.416   4.965   4.182 -0.3491  0.8493 -0.8642
 9687TIP3    H150476   6.499   4.927   4.210  0.3994  0.3518 -3.5281
 9687TIP3    H250477   6.350   4.919   4.233  0.8488 -0.5172 -0.4839
 9688TIP3   OH250478   1.545   1.048  14.157  0.4350 -0.3158  0.0550
 9688TIP3    H150479   1.594   1.048  14.075 -1.0316  3.5587 -1.0389
 9688TIP3    H250480   1.466   0.997  14.138  1.3327 -1.7589  0.0293
 9689TIP3   OH250481   0.576   1.340  11.042 -0.2753 -0.2891  0.0259
 9689TIP3    H150482   0.565   1.357  10.948  2.0079  0.0873 -0.2272
 9689TIP3    H250483   0.492   1.304  11.070 -0.5395 -1.8825 -2.4952
 9690TIP3   OH250484   1.632   0.051  12.103  0.0071  0.5374  0.6895
 9690TIP3    H150485   1.691   0.125  12.089  0.8515 -0.3541 -0.6819
 9690TIP3    H250486   1.665   0.008  12.181  1.1058  0.1385  0.0213
 9691TIP3   OH250487   0.664   1.416   1.465  0.0981 -0.4149  0.4761
 9691TIP3    H150488   0.663   1.459   1.379 -3.2196 -0.9645  0.1148
 9691TIP3    H250489   0.643   1.486   1.527 -2.5174 -0.8791  0.2001
 9692TIP3   OH250490   3.446   6.034   3.075 -0.1891 -0.0311 -0.3649
 9692TIP3    H150491   3.395   6.053   2.996 -3.4220 -1.0334  1.2906
 9692TIP3    H250492   3.454   6.118   3.120 -4.1486 -0.3152  1.2706
 9693TIP3   OH250493   5.675   5.701   4.462 -0.0581  0.5238 -0.4932
 9693TIP3    H150494   5.618   5.636   4.421  0.2370  0.0462 -0.1625
 9693TIP3    H250495   5.660   5.781   4.413 -0.6550  0.2785 -0.7160
 9694TIP3   OH250496   3.480   0.113  16.371  0.5814 -0.1982  0.3128
 9694TIP3    H150497   3.469   0.205  16.394  0.9280 -0.1712  0.3845
 9694TIP3    H250498   3.446   0.106  16.282 -1.3346 -0.4294  1.0245
 9695TIP3   OH250499   3.153   0.672  12.978 -0.7155 -0.0405  0.3071
 9695TIP3    H150500   3.124   0.761  12.999 -1.8046 -0.2422 -0.2909
 9695TIP3    H250501   3.184   0.677  12.888 -1.6198 -0.4514 -0.0353
 9696TIP3   OH250502   0.026   1.995  15.513 -0.4712 -0.2727  0.0077
 9696TIP3    H150503   0.074   1.913  15.498 -0.9497 -0.8074  1.2639
 9696TIP3    H250504  -0.007   2.020  15.426 -0.6281 -1.6176 -0.3444
 9697TIP3   OH250505   3.031   6.477  15.530  0.3480 -0.5719 -0.2967
 9697TIP3    H150506   3.117   6.444  15.506 -0.4397 -2.8758 -0.1875
 9697TIP3    H250507   3.002   6.420  15.601 -0.8542  0.8195  0.3951
 9698TIP3   OH250508   6.028   6.133  11.274 -0.1734 -0.0603 -0.6877
 9698TIP3    H150509   5.957   6.197  11.275 -0.8683 -0.8292 -0.6018
 9698TIP3    H250510   6.072   6.148  11.190  1.3492  2.3126  0.4037
 9699TIP3   OH250511   0.287   5.299  16.035 -0.1921  0.0816  0.1527
 9699TIP3    H150512   0.325   5.271  16.118  0.6974  3.3018  0.9474
 9699TIP3    H250513   0.195   5.273  16.042  0.3511 -1.7881  1.0864
 9700TIP3   OH250514   5.542   3.406  16.856 -0.0329  0.0222  0.2360
 9700TIP3    H150515   5.522   3.358  16.936 -0.6084  0.9131  0.6455
 9700TIP3    H250516   5.529   3.342  16.786  1.1150 -0.9569  0.8738
 9701TIP3   OH250517   1.206   4.240  15.242 -0.4494 -0.4112  0.0011
 9701TIP3    H150518   1.172   4.184  15.172  0.8333 -0.4652 -0.6275
 9701TIP3    H250519   1.296   4.208  15.256 -0.2537  0.4308  0.7802
 9702TIP3   OH250520   0.129   2.285  15.196 -0.5876 -0.0607 -0.2029
 9702TIP3    H150521   0.090   2.208  15.154 -0.9911  0.0843 -0.1023
 9702TIP3    H250522   0.158   2.340  15.124 -1.3381  0.2189 -0.3023
 9703TIP3   OH250523   1.984   3.433   4.363  0.0344  0.2176 -0.5159
 9703TIP3    H150524   1.944   3.367   4.308  0.7963  0.9384 -1.9957
 9703TIP3    H250525   1.975   3.399   4.452 -1.4343 -0.8693 -1.0417
 9704TIP3   OH250526   5.428   0.794   0.575  0.0073 -0.5315  0.0898
 9704TIP3    H150527   5.413   0.793   0.481  0.9862 -0.0121 -0.0854
 9704TIP3    H250528   5.464   0.707   0.595 -1.2915 -1.0610  0.1889
 9705TIP3   OH250529   2.811   3.594  12.420 -0.3091 -0.2148 -0.4017
 9705TIP3    H150530   2.851   3.681  12.414  0.6587 -0.6367 -0.3842
 9705TIP3    H250531   2.810   3.563  12.329 -0.7330 -0.1510 -0.4188
 9706TIP3   OH250532   4.716   1.260   2.621  0.8121 -0.3144 -0.4931
 9706TIP3    H150533   4.789   1.213   2.662  0.2952  1.0062  2.2204
 9706TIP3    H250534   4.686   1.320   2.690 -1.3385  0.8332 -2.3234
 9707TIP3   OH250535   1.430   4.636  11.818  0.5031 -0.1238  0.1151
 9707TIP3    H150536   1.432   4.730  11.837  0.1730  0.1273 -0.9827
 9707TIP3    H250537   1.340   4.610  11.836  0.2165  0.0929 -0.9392
 9708TIP3   OH250538   6.564   0.887  17.053  0.1254 -0.6200 -0.4350
 9708TIP3    H150539   6.501   0.948  17.013  2.0225  1.0450 -1.0318
 9708TIP3    H250540   6.557   0.904  17.147 -0.2007 -0.3316 -0.5102
 9709TIP3   OH250541   6.065   1.489   5.701 -0.1468  0.1008 -0.3181
 9709TIP3    H150542   6.131   1.420   5.686 -1.6070 -1.0517 -1.8496
 9709TIP3    H250543   5.981   1.445   5.688 -1.1486  2.1165 -1.1362
 9710TIP3   OH250544   4.383   4.580  13.821  0.6649  0.1897 -0.1618
 9710TIP3    H150545   4.350   4.503  13.868  0.6646 -0.8367 -1.7466
 9710TIP3    H250546   4.335   4.654  13.857 -0.7542 -0.8212  0.0692
 9711TIP3   OH250547   0.912   2.044   0.256  0.1741 -0.2931 -0.0052
 9711TIP3    H150548   0.825   2.081   0.241 -0.7592 -1.6445  1.7218
 9711TIP3    H250549   0.969   2.121   0.265 -0.8285  0.6158 -1.0521
 9712TIP3   OH250550   3.369   3.093  13.907 -0.4596 -0.3511  0.0024
 9712TIP3    H150551   3.293   3.117  13.960 -1.8543 -4.1071 -0.0203
 9712TIP3    H250552   3.443   3.104  13.967 -1.6918 -1.8962  1.9440
 9713TIP3   OH250553   3.849   0.581   2.611  0.9460  0.0401  0.3004
 9713TIP3    H150554   3.900   0.623   2.541  1.2836 -1.3459 -0.3050
 9713TIP3    H250555   3.877   0.490   2.610 -4.5293 -2.0750 -3.0380
 9714TIP3   OH250556   3.698   5.551   0.790 -0.5961  0.2331  0.1160
 9714TIP3    H150557   3.677   5.588   0.875 -2.1174  1.2735 -0.6677
 9714TIP3    H250558   3.692   5.456   0.802 -1.6637  0.3959  0.9609
 9715TIP3   OH250559   1.031   4.499  10.788  0.0915  0.0499  0.0772
 9715TIP3    H150560   1.061   4.437  10.855 -0.6449 -1.3151 -0.8148
 9715TIP3    H250561   1.032   4.449  10.707 -1.1257  1.0228 -0.5658
 9716TIP3   OH250562   1.983   4.624  16.683 -0.2539  0.4686  0.0496
 9716TIP3    H150563   2.054   4.568  16.714  0.1886  0.9945  0.0228
 9716TIP3    H250564   1.926   4.635  16.759 -1.1403 -1.1764 -0.3358
 9717TIP3   OH250565   2.551   0.482  12.641  0.3680 -0.5253 -0.6383
 9717TIP3    H150566   2.620   0.481  12.575  0.5289 -1.0064 -0.4672
 9717TIP3    H250567   2.524   0.574  12.646 -0.1504 -0.5944 -1.8931
 9718TIP3   OH250568   2.434   3.325  13.191  0.3145 -0.0665  0.0156
 9718TIP3    H150569   2.380   3.313  13.113 -0.4919 -0.7373  0.6555
 9718TIP3    H250570   2.399   3.403  13.233 -0.0870 -0.4195  0.3540
 9719TIP3   OH250571   5.358   1.271  12.068 -0.1904  0.1042 -0.0031
 9719TIP3    H150572   5.443   1.226  12.076 -0.0413  0.6073  1.7943
 9719TIP3    H250573   5.303   1.230  12.135 -1.4155 -0.2424 -1.1758
 9720TIP3   OH250574   1.426   0.178  13.246 -0.2792  0.4996  0.5039
 9720TIP3    H150575   1.418   0.250  13.183 -1.0930  1.3561  1.5496
 9720TIP3    H250576   1.353   0.119  13.225 -2.1427  2.0567  2.1710
 9721TIP3   OH250577   0.791   4.062   1.015  0.6959 -0.1232 -0.5064
 9721TIP3    H150578   0.708   4.104   1.039  0.1943 -2.4550  2.4703
 9721TIP3    H250579   0.858   4.122   1.047  0.0982  0.5099 -0.4082
 9722TIP3   OH250580   5.258   1.189  10.498 -0.1724  0.5507 -0.1249
 9722TIP3    H150581   5.263   1.214  10.590  0.4340 -0.1049  0.0285
 9722TIP3    H250582   5.211   1.261  10.456 -2.4074 -0.1255  1.0497
 9723TIP3   OH250583   5.669   5.125  11.584 -0.2913  0.1720 -0.2790
 9723TIP3    H150584   5.574   5.131  11.598 -0.4980 -0.7473 -1.1323
 9723TIP3    H250585   5.707   5.153  11.667 -1.3146  0.3186  0.1652
 9724TIP3   OH250586   5.614   1.008  12.349  0.1599  0.0100  0.4314
 9724TIP3    H150587   5.525   0.974  12.348  0.6004 -1.1770  0.3304
 9724TIP3    H250588   5.617   1.062  12.428 -0.7737  0.4506  0.1863
 9725TIP3   OH250589   0.717   3.688   3.968  0.1802 -0.2864  0.0760
 9725TIP3    H150590   0.810   3.666   3.976  0.5391  1.4520  1.5065
 9725TIP3    H250591   0.673   3.625   4.025  0.2709 -2.0021 -1.6606
 9726TIP3   OH250592   1.419   1.942  12.048 -0.1061  0.1969  0.3244
 9726TIP3    H150593   1.347   1.924  12.109 -0.2969  0.5254  0.1988
 9726TIP3    H250594   1.400   1.886  11.973  0.0667 -0.1218  0.5113
 9727TIP3   OH250595   2.823   4.096   0.201 -0.8178 -0.1429 -0.1061
 9727TIP3    H150596   2.889   4.035   0.168  0.2677  0.7676  0.3215
 9727TIP3    H250597   2.812   4.070   0.293  0.8302  1.2396  0.5429
 9728TIP3   OH250598   0.955   4.412   2.130  0.0463 -0.1856 -0.9219
 9728TIP3    H150599   0.985   4.502   2.130 -0.0496 -0.1173 -2.5901
 9728TIP3    H250600   1.032   4.361   2.107  0.2218 -0.6012  0.5043
 9729TIP3   OH250601   2.813   3.153   1.802  0.2844 -0.2448  0.6261
 9729TIP3    H150602   2.729   3.116   1.828  0.4244 -1.3453 -0.4000
 9729TIP3    H250603   2.872   3.132   1.874  0.1695 -1.3456  0.4076
 9730TIP3   OH250604   1.662   5.187  11.363 -0.3178 -0.2763 -0.3054
 9730TIP3    H150605   1.652   5.198  11.269 -1.5706 -1.5049 -0.3410
 9730TIP3    H250606   1.581   5.222  11.400  0.3522  0.6133  0.3771
 9731TIP3   OH250607   5.869   4.665  11.771  0.0087 -0.4915  0.7034
 9731TIP3    H150608   5.939   4.622  11.722 -0.3395 -0.6701  0.3580
 9731TIP3    H250609   5.890   4.647  11.862 -0.1909 -1.4916  0.5635
 9732TIP3   OH250610   5.108   5.665  12.487 -0.2636  0.1011  0.6261
 9732TIP3    H150611   5.176   5.606  12.518 -0.8230  0.6059  2.9890
 9732TIP3    H250612   5.124   5.748  12.533 -1.2816  0.8501 -0.2993
 9733TIP3   OH250613   5.502   2.722   1.083  0.4278  0.3730 -0.5460
 9733TIP3    H150614   5.411   2.749   1.101 -0.2360 -1.5597 -0.7927
 9733TIP3    H250615   5.543   2.719   1.170 -0.1604 -0.1417 -0.2785
 9734TIP3   OH250616   1.240   6.196   4.383 -0.1583 -0.6296 -0.0336
 9734TIP3    H150617   1.232   6.289   4.361  1.4176  0.1322  2.2567
 9734TIP3    H250618   1.211   6.151   4.304 -0.2965  1.7962 -1.4876
 9735TIP3   OH250619   4.134   5.370   4.958  0.3037 -0.2321 -0.2723
 9735TIP3    H150620   4.132   5.463   4.937  0.3406 -0.4027 -1.0535
 9735TIP3    H250621   4.217   5.356   5.002  0.1877  0.1497  0.0703
 9736TIP3   OH250622   2.906   4.644   1.306  0.4488  0.1057 -0.3592
 9736TIP3    H150623   2.980   4.705   1.303  1.1586 -0.7535 -0.7316
 9736TIP3    H250624   2.831   4.698   1.331  1.1052  1.0848 -0.4690
 9737TIP3   OH250625   5.381   5.628  17.151 -0.3474 -0.0081  0.3609
 9737TIP3    H150626   5.290   5.658  17.158 -1.0954 -1.6597 -1.4537
 9737TIP3    H250627   5.378   5.536  17.175  0.8642 -0.0961  0.2435
 9738TIP3   OH250628   6.353   1.621   0.134 -0.3892 -0.2515  0.1402
 9738TIP3    H150629   6.275   1.645   0.185 -1.4274 -2.2898 -0.4184
 9738TIP3    H250630   6.409   1.698   0.141 -1.7714  0.6913  1.8615
 9739TIP3   OH250631   5.848   0.492  14.059 -0.0003  0.3890 -0.0825
 9739TIP3    H150632   5.754   0.503  14.075  0.0079  0.8076 -0.3159
 9739TIP3    H250633   5.863   0.531  13.973  0.1299 -1.0162 -0.7218
 9740TIP3   OH250634   0.854   6.585   0.448  0.3668 -0.2556  0.6329
 9740TIP3    H150635   0.885   6.530   0.376  0.2960 -0.0431  0.4390
 9740TIP3    H250636   0.764   6.555   0.464  0.3175 -0.1774  0.5069
 9741TIP3   OH250637   5.889   1.693  16.193  0.2123 -0.0406  0.2352
 9741TIP3    H150638   5.922   1.775  16.229 -1.3385 -0.0640  1.8217
 9741TIP3    H250639   5.910   1.698  16.100 -1.1445  2.8538 -0.0303
 9742TIP3   OH250640   1.443   0.617  11.303 -0.5581 -0.4026 -0.5089
 9742TIP3    H150641   1.383   0.688  11.327  0.6170 -0.0088  1.3960
 9742TIP3    H250642   1.495   0.653  11.231 -1.0102  0.1011 -0.5879
 9743TIP3   OH250643   5.343   1.067   2.730 -0.4029 -0.3554 -0.4039
 9743TIP3    H150644   5.279   1.042   2.664  1.6448 -1.7401 -1.9871
 9743TIP3    H250645   5.399   1.131   2.687  0.7085 -0.9614  0.0942
 9744TIP3   OH250646   3.565   3.639   3.239 -0.0923  0.1544 -0.1156
 9744TIP3    H150647   3.570   3.544   3.246  0.2080  0.2358  0.9150
 9744TIP3    H250648   3.471   3.659   3.246 -0.3589 -0.1687 -2.1701
 9745TIP3   OH250649   0.856   5.475   4.799 -0.1054  0.2636 -0.7489
 9745TIP3    H150650   0.817   5.544   4.746 -0.4185 -0.6524 -1.7552
 9745TIP3    H250651   0.859   5.399   4.740 -1.9672 -1.2721  0.9828
 9746TIP3   OH250652   1.181   3.786   1.803  0.1665 -0.4809 -0.1861
 9746TIP3    H150653   1.103   3.838   1.782 -0.3157 -0.7215  0.8928
 9746TIP3    H250654   1.252   3.849   1.809  0.0214 -0.2324 -0.9945
 9747TIP3   OH250655   0.228   1.626  14.740 -0.0927 -0.5728  0.3336
 9747TIP3    H150656   0.214   1.692  14.671 -0.1018  0.8130  1.6138
 9747TIP3    H250657   0.323   1.625  14.753 -0.1358 -0.3941  0.6871
 9748TIP3   OH250658   6.449   1.430   3.437 -0.2681  0.4885  0.0329
 9748TIP3    H150659   6.436   1.425   3.343  1.0372 -1.0034 -0.1114
 9748TIP3    H250660   6.489   1.516   3.451  3.1280 -0.6994 -1.3395
 9749TIP3   OH250661   1.549   3.861  12.387 -0.5197 -0.2877 -0.0679
 9749TIP3    H150662   1.599   3.846  12.467 -1.3905 -0.5633  0.4368
 9749TIP3    H250663   1.600   3.927  12.339  1.1472 -1.7140 -0.3287
 9750TIP3   OH250664   6.302   4.029   3.706  0.6479  0.0449  0.3471
 9750TIP3    H150665   6.363   3.986   3.646  0.6810 -0.9212  1.0610
 9750TIP3    H250666   6.351   4.105   3.738  1.9189 -1.2602  1.6906
 9751TIP3   OH250667   6.570   3.214  12.321  0.0554  0.1078 -0.0471
 9751TIP3    H150668   6.585   3.309  12.314  2.9924 -0.3087 -0.7850
 9751TIP3    H250669   6.603   3.178  12.239  0.3666 -1.6869  0.8136
 9752TIP3   OH250670   1.389   4.111  11.116  0.2218  0.1536 -0.3692
 9752TIP3    H150671   1.369   4.152  11.200 -1.8082 -0.6814 -0.3644
 9752TIP3    H250672   1.433   4.030  11.139 -2.8401 -1.5220  0.2114
 9753TIP3   OH250673   4.058   0.662   1.011 -0.2706 -0.1997 -0.1561
 9753TIP3    H150674   4.058   0.574   1.049 -0.6271  0.0330  0.4059
 9753TIP3    H250675   3.978   0.666   0.960  0.0513 -0.4048 -0.6841
 9754TIP3   OH250676   6.016   0.863   4.175 -0.3652  0.0712 -0.3129
 9754TIP3    H150677   5.949   0.914   4.219 -1.7212 -0.2969 -1.8560
 9754TIP3    H250678   5.983   0.773   4.179  1.3884 -0.5629  1.2894
 9755TIP3   OH250679   4.257   5.843  14.017  0.8807 -0.4133  0.0105
 9755TIP3    H150680   4.324   5.860  14.084  0.9417  0.9762 -0.3734
 9755TIP3    H250681   4.299   5.868  13.935 -0.4501  1.6185 -0.1195
 9756TIP3   OH250682   4.770   3.858  15.169  0.4064  0.4852 -0.7466
 9756TIP3    H150683   4.827   3.782  15.184  0.8818  1.1134  0.7828
 9756TIP3    H250684   4.760   3.862  15.074 -0.5241 -2.1416 -0.8411
 9757TIP3   OH250685   3.604   5.159   2.145 -0.3092  0.0407  0.0186
 9757TIP3    H150686   3.611   5.116   2.231 -1.8506  0.2896  0.3001
 9757TIP3    H250687   3.655   5.239   2.155  2.0179 -1.3222 -0.2894
 9758TIP3   OH250688   4.719   3.144  10.739  0.6258 -0.2099  0.3888
 9758TIP3    H150689   4.628   3.171  10.740  0.2714 -1.0502 -2.3649
 9758TIP3    H250690   4.756   3.181  10.819 -1.9890  0.5271  1.3463
 9759TIP3   OH250691   0.676   0.629  13.322 -0.0746 -0.1321  0.7931
 9759TIP3    H150692   0.721   0.596  13.400 -0.4711 -0.0416  1.0628
 9759TIP3    H250693   0.690   0.562  13.256 -0.6453 -0.7146  1.2579
 9760TIP3   OH250694   5.130   2.099   4.247 -0.3291  1.0072 -0.4329
 9760TIP3    H150695   5.221   2.082   4.272  0.0694 -1.0731 -2.8595
 9760TIP3    H250696   5.078   2.047   4.308  0.0790  1.9691  0.7782
 9761TIP3   OH250697   1.765   2.822  11.980 -0.0116 -0.2779 -0.4170
 9761TIP3    H150698   1.832   2.883  12.013 -0.9314  1.0250 -0.8634
 9761TIP3    H250699   1.799   2.793  11.896 -0.9383  2.1393 -1.7314
 9762TIP3   OH250700   1.909   2.649  16.866  0.2742 -0.2139  0.0035
 9762TIP3    H150701   1.832   2.634  16.922  1.0230  1.3638  1.5814
 9762TIP3    H250702   1.938   2.737  16.889  2.2950 -0.5886 -0.8746
 9763TIP3   OH250703   3.344   5.709   4.742 -0.1600 -0.0962 -0.0525
 9763TIP3    H150704   3.294   5.790   4.753 -1.1713 -0.7262  0.0903
 9763TIP3    H250705   3.432   5.732   4.773  0.4171  1.7799 -2.7153
 9764TIP3   OH250706   4.609   4.894  14.375 -0.2751 -0.0108 -0.1921
 9764TIP3    H150707   4.586   4.978  14.414 -3.3832 -0.7284 -0.2440
 9764TIP3    H250708   4.567   4.894  14.289  1.2026 -0.9475 -0.9618
 9765TIP3   OH250709   1.204   6.335  16.904  0.4260 -0.2775 -0.4200
 9765TIP3    H150710   1.154   6.259  16.874 -0.1192 -1.1478  2.4187
 9765TIP3    H250711   1.259   6.301  16.974  0.0147  1.9833  1.0844
 9766TIP3   OH250712   6.022   1.474  11.684 -0.3295 -1.0830  0.3674
 9766TIP3    H150713   5.936   1.449  11.718 -0.1415 -3.0184 -0.4468
 9766TIP3    H250714   6.084   1.448  11.752 -0.2476 -1.4972  0.1389
 9767TIP3   OH250715   3.234   2.693   2.988 -0.3787 -0.5842  0.0248
 9767TIP3    H150716   3.289   2.703   3.065  0.3735 -1.9480 -0.3070
 9767TIP3    H250717   3.252   2.771   2.936 -0.1582 -0.1256  0.7747
 9768TIP3   OH250718   4.675   2.528   5.426  0.1537 -0.6469  0.1492
 9768TIP3    H150719   4.587   2.563   5.413  0.9256  0.7610 -1.5370
 9768TIP3    H250720   4.712   2.522   5.338  0.8738 -3.7328  0.5275
 9769TIP3   OH250721   2.625   2.450   0.332 -0.4423 -0.7366 -0.1825
 9769TIP3    H150722   2.716   2.455   0.362 -1.3518  1.3739  2.6355
 9769TIP3    H250723   2.583   2.389   0.393 -0.9532 -1.8247 -1.5688
 9770TIP3   OH250724   6.602   2.706   1.688 -0.0911 -0.4706  0.6041
 9770TIP3    H150725   6.631   2.712   1.597 -1.7126 -2.0949 -0.1136
 9770TIP3    H250726   6.676   2.735   1.740  1.3985 -0.8749 -1.1968
 9771TIP3   OH250727   3.167   2.427  11.939  0.3426  0.9073  0.0953
 9771TIP3    H150728   3.110   2.393  12.008 -0.8996  1.8206 -0.4351
 9771TIP3    H250729   3.165   2.360  11.870 -0.4741  1.1352 -0.1095
 9772TIP3   OH250730   5.907   2.072  16.781 -0.6174  0.4364  0.1446
 9772TIP3    H150731   5.819   2.076  16.745 -0.6052  0.5860  0.1325
 9772TIP3    H250732   5.913   2.147  16.841  0.1539  1.5980 -1.3308
 9773TIP3   OH250733   1.124   2.869   0.742 -0.5103  0.1844  0.0198
 9773TIP3    H150734   1.043   2.915   0.721 -0.2549  1.4487  1.5366
 9773TIP3    H250735   1.178   2.935   0.786  0.1439 -1.3716  1.7293
 9774TIP3   OH250736   6.506   4.783  16.951  0.2039  0.1488  0.2170
 9774TIP3    H150737   6.588   4.811  16.992  0.5181  0.2846 -0.4966
 9774TIP3    H250738   6.444   4.854  16.969  0.9592  1.2933 -1.4810
 9775TIP3   OH250739   5.141   3.751  12.847 -0.6867  0.4498 -0.3198
 9775TIP3    H150740   5.085   3.813  12.895 -0.8719  1.0203 -1.2435
 9775TIP3    H250741   5.220   3.745  12.900 -0.3279  2.1253 -0.5913
 9776TIP3   OH250742   5.136   6.318  14.020  0.1249 -0.3734  0.6508
 9776TIP3    H150743   5.163   6.385  13.957  0.0419 -1.6313 -0.7753
 9776TIP3    H250744   5.080   6.365  14.082 -1.1426  0.6118 -1.1544
 9777TIP3   OH250745   2.514   0.806   3.971  0.0130  0.1626 -0.1689
 9777TIP3    H150746   2.511   0.891   3.927 -3.6078 -1.6153 -4.1001
 9777TIP3    H250747   2.562   0.750   3.910  1.6027 -0.8763  1.9430
 9778TIP3   OH250748   6.763   2.345   5.686 -0.2598  0.4636  0.2511
 9778TIP3    H150749   6.790   2.310   5.771 -2.5699  1.1889  1.3698
 9778TIP3    H250750   6.777   2.439   5.693  1.3566  0.3622 -0.9513
 9779TIP3   OH250751   5.305   6.528   0.091 -0.4685 -0.0350 -0.1760
 9779TIP3    H150752   5.223   6.492   0.124  0.1467 -0.5254  0.8840
 9779TIP3    H250753   5.359   6.540   0.169  1.2929 -1.8408 -1.0079
 9780TIP3   OH250754   1.896   0.320   0.709  0.1215 -0.0254 -0.0922
 9780TIP3    H150755   1.845   0.315   0.790 -1.7994 -1.3701 -1.3035
 9780TIP3    H250756   1.852   0.261   0.649  2.8100 -0.8175 -1.4566
 9781TIP3   OH250757   6.373   0.325  12.186  0.1598  0.3055  0.1459
 9781TIP3    H150758   6.415   0.239  12.180  0.6223  0.3818  1.7076
 9781TIP3    H250759   6.298   0.311  12.244  0.9015  1.1530  1.3598
 9782TIP3   OH250760   5.510   5.858   0.855 -0.2677 -0.3781 -0.5074
 9782TIP3    H150761   5.586   5.818   0.812  0.0423  1.8973 -2.2828
 9782TIP3    H250762   5.448   5.875   0.784 -2.1303 -1.4010  0.7903
 9783TIP3   OH250763   5.411   0.720   3.021  0.4035  0.0940 -0.1347
 9783TIP3    H150764   5.447   0.800   2.982  0.8621 -0.8720 -1.7473
 9783TIP3    H250765   5.325   0.710   2.980  0.3534 -0.2466  0.0520
 9784TIP3   OH250766   2.860   3.774   1.664 -0.2051 -0.2177  0.3532
 9784TIP3    H150767   2.789   3.757   1.725  0.3057 -1.4917  0.6248
 9784TIP3    H250768   2.871   3.692   1.616  0.4939  0.2414 -0.2996
 9785TIP3   OH250769   2.620   6.419  14.008 -0.0502 -0.2786  0.1308
 9785TIP3    H150770   2.663   6.489  14.057 -0.7987  1.1188 -1.1242
 9785TIP3    H250771   2.692   6.372  13.966  0.3919  1.1369 -0.7896
 9786TIP3   OH250772   1.509   0.214  16.734 -0.1149 -0.0984 -0.3956
 9786TIP3    H150773   1.429   0.254  16.766 -1.7569 -3.2530 -0.1746
 9786TIP3    H250774   1.576   0.241  16.796 -1.9391 -0.9684  2.1074
 9787TIP3   OH250775   5.188   5.213  14.584 -0.0932 -0.4589 -0.4970
 9787TIP3    H150776   5.229   5.227  14.670 -2.8903  2.0445  0.6279
 9787TIP3    H250777   5.189   5.119  14.572 -2.0323 -1.2569  3.7024
 9788TIP3   OH250778   5.298   6.137   3.863  0.2989  0.4421 -0.1297
 9788TIP3    H150779   5.332   6.094   3.784 -0.2261  0.2427 -0.2482
 9788TIP3    H250780   5.264   6.221   3.832 -0.6433  0.0272 -0.2603
 9789TIP3   OH250781   0.520   2.815   4.928  0.1031 -0.1369  0.0071
 9789TIP3    H150782   0.569   2.843   5.006 -1.4907 -1.0148  1.3845
 9789TIP3    H250783   0.457   2.885   4.914  0.5776  0.1608 -0.7112
 9790TIP3   OH250784   4.443   0.097  14.518  0.2956  0.2697  0.4445
 9790TIP3    H150785   4.384   0.160  14.476  0.0547  0.0639  0.4675
 9790TIP3    H250786   4.495   0.150  14.578 -0.4982  0.3356  1.1019
 9791TIP3   OH250787   5.204   5.195  14.045  0.1518 -0.7615 -0.3977
 9791TIP3    H150788   5.169   5.141  14.116  0.0402  0.0071  0.1370
 9791TIP3    H250789   5.239   5.273  14.088 -1.4596  0.5389 -1.3182
 9792TIP3   OH250790   4.929   0.640   2.670  0.3484  0.4751  0.2929
 9792TIP3    H150791   4.972   0.568   2.716 -0.6585  0.7229  1.6933
 9792TIP3    H250792   4.892   0.694   2.740 -1.1985  0.9035 -0.8093
 9793TIP3   OH250793   0.040   3.442  15.378  0.0658 -0.6537  0.0927
 9793TIP3    H150794   0.132   3.468  15.378  0.1879 -0.6672  3.2410
 9793TIP3    H250795   0.009   3.461  15.289  2.7376  0.6063 -0.6641
 9794TIP3   OH250796   4.675   4.952  17.008 -0.3306  0.3626 -0.5379
 9794TIP3    H150797   4.740   4.892  17.044 -0.5206  0.4952  0.0371
 9794TIP3    H250798   4.727   5.014  16.955 -0.1282 -0.2386 -1.0500
 9795TIP3   OH250799   5.542   4.089   0.829  0.0278  0.4271  0.4138
 9795TIP3    H150800   5.472   4.155   0.830 -1.0825 -0.5893 -1.9060
 9795TIP3    H250801   5.589   4.105   0.747 -0.0950 -1.4143 -0.0728
 9796TIP3   OH250802   4.052   4.876  10.955  0.2486 -0.2520 -0.1787
 9796TIP3    H150803   4.086   4.884  11.045 -0.5236 -1.2175  0.2203
 9796TIP3    H250804   4.128   4.852  10.903  0.5886 -0.2727  0.3181
 9797TIP3   OH250805   4.243   4.590  11.235  0.1878 -0.1076 -0.0569
 9797TIP3    H150806   4.207   4.502  11.227 -0.8342  0.4076 -1.6460
 9797TIP3    H250807   4.309   4.595  11.166 -0.1174  0.5089 -0.3166
 9798TIP3   OH250808   2.667   3.580  16.863  0.1932  0.0858 -0.5252
 9798TIP3    H150809   2.640   3.669  16.886  0.1499 -0.3072  1.1141
 9798TIP3    H250810   2.620   3.525  16.926  4.0043 -0.7208  1.9356
 9799TIP3   OH250811   6.383   3.463   5.110  0.1409  0.4365  0.4783
 9799TIP3    H150812   6.420   3.531   5.166  0.5076  0.8551 -0.2496
 9799TIP3    H250813   6.459   3.418   5.074 -0.0871  0.1628  0.3335
 9800TIP3   OH250814   6.491   1.398  14.045  0.1898 -0.1548  0.0668
 9800TIP3    H150815   6.431   1.329  14.075 -0.4984 -0.0621 -1.0495
 9800TIP3    H250816   6.459   1.420  13.958  0.5518  1.4156  0.3164
 9801TIP3   OH250817   4.197   4.767  14.362 -0.0807 -0.1385 -0.1030
 9801TIP3    H150818   4.186   4.677  14.331 -1.5064  0.2911 -0.9006
 9801TIP3    H250819   4.188   4.760  14.457 -0.8228 -0.7545 -0.2078
 9802TIP3   OH250820   6.619   0.655   3.028  0.1855 -0.2031  0.0377
 9802TIP3    H150821   6.680   0.683   2.960  0.3049 -2.3164 -0.7955
 9802TIP3    H250822   6.555   0.601   2.982 -1.1745  0.3498  1.2287
 9803TIP3   OH250823   5.480   4.808  13.412  0.5408  0.1733 -0.6937
 9803TIP3    H150824   5.406   4.805  13.473  0.3628  0.8136 -0.8661
 9803TIP3    H250825   5.542   4.744  13.446  0.5095  0.6241  0.2575
 9804TIP3   OH250826   1.155   2.518   4.290  0.7368 -0.1127  0.4753
 9804TIP3    H150827   1.233   2.567   4.316  0.8201 -0.0494  0.1162
 9804TIP3    H250828   1.108   2.502   4.371  0.1004  1.5675  0.4611
 9805TIP3   OH250829   2.115   5.928   1.287 -0.0845 -0.3358 -0.1020
 9805TIP3    H150830   2.072   5.854   1.330  0.0913 -0.9811 -1.0062
 9805TIP3    H250831   2.185   5.953   1.347 -0.8273 -0.1818  0.7252
 9806TIP3   OH250832   1.033   1.326   3.430 -0.1824 -0.6183 -0.5794
 9806TIP3    H150833   1.071   1.382   3.497 -1.9784  0.1292 -0.1033
 9806TIP3    H250834   1.033   1.238   3.470  0.8395 -0.5989 -0.5278
 9807TIP3   OH250835   2.608   0.645  16.200  0.4627  0.0666  0.1697
 9807TIP3    H150836   2.567   0.586  16.137  1.2151  0.1389 -0.4000
 9807TIP3    H250837   2.660   0.588  16.257 -0.8718 -0.0998  1.2927
 9808TIP3   OH250838   5.118   0.099  14.704 -0.3448 -0.4130  0.1740
 9808TIP3    H150839   5.195   0.067  14.751 -0.6388 -2.2770 -0.5327
 9808TIP3    H250840   5.121   0.054  14.620 -1.5798  0.4032 -0.3300
 9809TIP3   OH250841   2.800   4.933   0.891 -0.0170  0.3248  0.5024
 9809TIP3    H150842   2.895   4.936   0.888  0.2909 -3.3562  1.2992
 9809TIP3    H250843   2.773   4.897   0.807 -0.9559  2.9995 -0.4357
 9810TIP3   OH250844   1.323   6.090   2.619  0.6614 -0.0681 -0.1085
 9810TIP3    H150845   1.268   6.131   2.686  1.8947  0.7718  0.4107
 9810TIP3    H250846   1.362   6.014   2.662  0.2661 -0.4069 -0.3426
 9811TIP3   OH250847   4.987   3.083   4.078  0.8297  0.3936 -0.1681
 9811TIP3    H150848   5.082   3.071   4.090  0.5184 -1.6355  0.8086
 9811TIP3    H250849   4.962   3.016   4.015  0.0460  0.9948 -0.5138
 9812TIP3   OH250850   0.273   2.396  11.426 -0.1230 -0.2992  0.4048
 9812TIP3    H150851   0.243   2.467  11.483 -1.2452 -0.5509  0.1611
 9812TIP3    H250852   0.254   2.427  11.338 -1.4703 -1.2449  0.3326
 9813TIP3   OH250853   4.375   5.588  14.436 -0.6032  0.0278 -0.2034
 9813TIP3    H150854   4.414   5.580  14.349  1.5858 -0.8082  0.7945
 9813TIP3    H250855   4.354   5.681  14.444 -0.6645  0.1444 -1.5339
 9814TIP3   OH250856   1.874   5.040   4.607  0.2900  0.3141 -0.4071
 9814TIP3    H150857   1.959   5.007   4.637 -0.3344  0.3078  1.5257
 9814TIP3    H250858   1.856   5.115   4.664 -1.5019 -0.3968  0.0300
 9815TIP3   OH250859   3.061   5.106   0.649  0.6838  0.0343 -0.2360
 9815TIP3    H150860   2.967   5.121   0.654  0.9231  2.5219 -1.6269
 9815TIP3    H250861   3.084   5.073   0.736 -0.9944  2.5856  1.3125
 9816TIP3   OH250862   0.533   4.296  16.371 -0.1922 -0.2847  0.8736
 9816TIP3    H150863   0.448   4.339  16.382 -0.7106 -0.6979 -1.0750
 9816TIP3    H250864   0.586   4.360  16.325 -0.1969 -0.8184  0.0956
 9817TIP3   OH250865   3.724   0.847  15.236  0.0173 -0.4062  0.2931
 9817TIP3    H150866   3.801   0.889  15.198  0.4263 -0.0267  1.4896
 9817TIP3    H250867   3.700   0.904  15.310  0.4223 -2.1009  1.8021
 9818TIP3   OH250868   1.179   3.074   0.405  0.1376 -0.7778 -0.6846
 9818TIP3    H150869   1.106   3.036   0.356 -0.9254  0.1976  0.0951
 9818TIP3    H250870   1.138   3.122   0.476  1.6320 -1.7829  0.9318
 9819TIP3   OH250871   5.276   2.937  10.955  1.0636 -0.1776  0.0343
 9819TIP3    H150872   5.320   2.979  10.881  2.6019 -1.5138  0.1396
 9819TIP3    H250873   5.215   3.003  10.988  1.3368  0.9149 -1.5746
 9820TIP3   OH250874   4.461   3.683  14.944 -0.3064 -0.8174 -0.1888
 9820TIP3    H150875   4.468   3.766  14.991  1.6477 -1.6776  1.2117
 9820TIP3    H250876   4.486   3.704  14.854 -0.6759  0.2588 -0.0572
 9821TIP3   OH250877   5.979   6.614  13.759  0.2329  0.2858 -0.1982
 9821TIP3    H150878   6.009   6.666  13.834 -1.1570  0.3881  0.3137
 9821TIP3    H250879   6.055   6.609  13.702  0.6430  2.2696  0.0952
 9822TIP3   OH250880   3.860   2.613  15.497 -0.6858 -0.0574 -0.1585
 9822TIP3    H150881   3.894   2.661  15.572 -0.5094  0.4761 -0.5790
 9822TIP3    H250882   3.934   2.558  15.468 -1.0414 -0.9866  0.6368
 9823TIP3   OH250883   1.870   2.825   3.227 -0.4646 -0.1231 -0.3230
 9823TIP3    H150884   1.944   2.765   3.218 -1.6545 -1.6622 -0.3133
 9823TIP3    H250885   1.838   2.837   3.138  0.0038  0.8428 -0.3713
 9824TIP3   OH250886   5.087   3.761   3.085 -0.4566  0.2963  0.1695
 9824TIP3    H150887   5.003   3.785   3.124  0.3364  0.8447  1.6276
 9824TIP3    H250888   5.119   3.841   3.044 -0.8196 -0.0241 -0.7784
 9825TIP3   OH250889   1.419   2.558   3.543 -0.1026  0.4556  0.5306
 9825TIP3    H150890   1.337   2.606   3.525 -0.0554  0.3539  0.0258
 9825TIP3    H250891   1.438   2.513   3.461  1.7751  2.4043 -0.1930
 9826TIP3   OH250892   3.967   1.986   3.119 -0.2139  0.7590 -0.1860
 9826TIP3    H150893   3.917   1.985   3.037  1.5142  0.3013 -1.2901
 9826TIP3    H250894   4.035   2.052   3.105 -1.9518  3.3041  2.2625
 9827TIP3   OH250895   2.514   0.993  12.526 -0.4146 -0.5594  0.1871
 9827TIP3    H150896   2.545   0.999  12.436 -1.3931  1.2360 -0.0668
 9827TIP3    H250897   2.556   1.066  12.572 -0.2665 -1.1899  1.0912
 9828TIP3   OH250898   6.524   2.919   2.056 -0.3504  0.6216  0.2179
 9828TIP3    H150899   6.549   3.008   2.082 -0.4121  0.4835  0.7693
 9828TIP3    H250900   6.574   2.862   2.114 -1.9774  0.3393  1.4106
 9829TIP3   OH250901   3.567   6.403  14.593 -0.1760 -0.0831 -0.4626
 9829TIP3    H150902   3.564   6.309  14.607  2.0823 -0.1181  0.1443
 9829TIP3    H250903   3.623   6.436  14.663  3.0881  1.0540 -3.2924
 9830TIP3   OH250904   1.753   2.764  15.029  0.0919  0.3197 -0.2430
 9830TIP3    H150905   1.809   2.762  15.106 -0.5615 -0.8440  0.2223
 9830TIP3    H250906   1.694   2.690  15.040 -0.1170  0.2248 -1.7960
 9831TIP3   OH250907   3.129   1.007   1.782  0.0567  0.0796  0.7890
 9831TIP3    H150908   3.152   0.970   1.868 -0.8848 -2.3292  0.0963
 9831TIP3    H250909   3.175   0.952   1.719 -1.2561  0.1796 -0.3088
 9832TIP3   OH250910   5.117   2.696  14.048 -0.3969 -0.3098  0.2852
 9832TIP3    H150911   5.039   2.687  13.993 -1.7902  2.4359  1.5977
 9832TIP3    H250912   5.130   2.610  14.088 -3.1387 -0.7062  0.4613
 9833TIP3   OH250913   4.446   1.487   4.312 -0.1124 -0.1305 -0.2925
 9833TIP3    H150914   4.370   1.500   4.256 -1.0477 -1.0409  0.7373
 9833TIP3    H250915   4.511   1.445   4.256 -0.1921  1.0001 -1.2831
 9834TIP3   OH250916   5.966   5.754  15.227  0.2211  0.5278  0.4054
 9834TIP3    H150917   5.916   5.833  15.247 -0.7235 -0.5107  2.2911
 9834TIP3    H250918   5.903   5.695  15.186  0.4581  0.0307  0.7544
 9835TIP3   OH250919   5.988   6.106  15.858 -0.7021 -0.2835  0.1848
 9835TIP3    H150920   6.001   6.196  15.888 -0.1817 -0.1581 -0.3916
 9835TIP3    H250921   5.916   6.073  15.912  1.6430 -0.8601  3.2455
 9836TIP3   OH250922   3.226   5.743  14.400 -0.1366 -0.1860 -0.4008
 9836TIP3    H150923   3.251   5.828  14.362  0.5752 -0.8469 -1.4799
 9836TIP3    H250924   3.218   5.685  14.324 -4.3270 -0.2574 -0.1148
 9837TIP3   OH250925   2.104   1.284  16.278 -0.3302 -0.2764 -0.2872
 9837TIP3    H150926   2.179   1.286  16.219 -0.1426  3.2900 -0.1436
 9837TIP3    H250927   2.028   1.294  16.220 -0.2829  1.2329 -0.1231
 9838TIP3   OH250928   4.710   2.498  16.449 -0.1138  0.0174  0.0863
 9838TIP3    H150929   4.632   2.511  16.395 -0.1929  1.0878  0.4354
 9838TIP3    H250930   4.777   2.553  16.408 -0.4679  1.7094  1.6219
 9839TIP3   OH250931   1.949   4.176  12.148 -0.2656  0.2851 -0.3140
 9839TIP3    H150932   1.881   4.217  12.202  0.1437  0.2981  0.1975
 9839TIP3    H250933   1.913   4.177  12.060 -2.1446 -2.1705  0.3160
 9840TIP3   OH250934   3.271   3.497   3.568 -0.5167 -0.5760 -0.4680
 9840TIP3    H150935   3.366   3.495   3.581 -0.3542 -0.5212 -1.5400
 9840TIP3    H250936   3.260   3.492   3.473 -1.5231  1.2716 -0.4867
 9841TIP3   OH250937   5.901   6.710  16.193 -0.1066  0.2924 -0.0610
 9841TIP3    H150938   5.992   6.719  16.167 -0.6067  1.5485 -1.4588
 9841TIP3    H250939   5.905   6.664  16.277  1.7093 -1.1702 -0.8814
 9842TIP3   OH250940   6.321   4.030   5.199 -0.3817  0.2981 -0.0240
 9842TIP3    H150941   6.380   4.050   5.127 -0.4515 -0.8785 -0.4425
 9842TIP3    H250942   6.378   3.997   5.269 -0.4453  0.0071 -0.1050
 9843TIP3   OH250943   2.625   1.363  14.634 -0.2339  0.4566 -0.2121
 9843TIP3    H150944   2.712   1.329  14.653 -0.5007  0.0719  0.3334
 9843TIP3    H250945   2.617   1.357  14.538 -0.2656 -0.9932 -0.1419
 9844TIP3   OH250946   5.524   0.955  17.124  0.3104 -0.7971 -0.2765
 9844TIP3    H150947   5.600   1.009  17.147 -0.7817 -0.3990  3.0538
 9844TIP3    H250948   5.454   1.019  17.107  0.1593 -1.1551 -1.0056
 9845TIP3   OH250949   2.388   5.666   5.237 -0.5902  0.1362  0.0257
 9845TIP3    H150950   2.467   5.678   5.289  0.2364 -0.4742 -1.0331
 9845TIP3    H250951   2.420   5.661   5.147 -1.9010  0.4359 -0.4706
 9846TIP3   OH250952   4.976   0.681   1.077 -0.3696 -0.0631  0.0402
 9846TIP3    H150953   4.931   0.696   0.994  0.9335 -0.9195 -0.8457
 9846TIP3    H250954   5.025   0.762   1.093  0.8505 -0.5728 -0.9954
 9847TIP3   OH250955   2.542   3.722  11.280  0.2965 -0.3869  0.2962
 9847TIP3    H150956   2.546   3.636  11.238  1.3338 -0.0254 -0.3932
 9847TIP3    H250957   2.563   3.705  11.372 -1.4077 -1.1076  0.5781
 9848TIP3   OH250958   0.693   3.500  15.737 -0.0773  0.0553  0.0471
 9848TIP3    H150959   0.646   3.567  15.786 -0.6684 -0.8308  0.7306
 9848TIP3    H250960   0.755   3.548  15.682  0.6354  1.0950  1.6949
 9849TIP3   OH250961   1.327   4.015   1.830 -0.2106 -0.5209 -0.3884
 9849TIP3    H150962   1.419   4.023   1.855 -0.2280  0.2940 -0.5520
 9849TIP3    H250963   1.313   4.085   1.766 -0.2349 -2.3806 -2.5246
 9850TIP3   OH250964   5.330   5.969   4.477  0.1913  0.0516  0.0648
 9850TIP3    H150965   5.412   5.974   4.526  0.9401  1.9173 -1.2453
 9850TIP3    H250966   5.262   5.972   4.545  1.1429 -1.9870  1.1995
 9851TIP3   OH250967   3.671   3.426  12.495 -0.3015  0.1670  0.2157
 9851TIP3    H150968   3.669   3.466  12.408 -0.6885 -0.8499 -0.2585
 9851TIP3    H250969   3.609   3.478  12.547 -0.7892  0.1819 -0.3794
 9852TIP3   OH250970   6.232   0.770   5.443 -0.8503 -0.1299 -0.5795
 9852TIP3    H150971   6.266   0.812   5.522 -0.6252  0.6003 -1.0453
 9852TIP3    H250972   6.277   0.816   5.371  1.1501 -2.6422 -1.1040
 9853TIP3   OH250973   1.583   1.086  15.892 -0.3439 -0.7371 -0.2461
 9853TIP3    H150974   1.625   1.121  15.814 -0.6710  1.1560  0.3815
 9853TIP3    H250975   1.493   1.117  15.887 -0.1597  0.1520  1.2734
 9854TIP3   OH250976   5.656   5.881   5.185 -0.2390  0.6161 -0.1054
 9854TIP3    H150977   5.676   5.828   5.108 -1.4760  0.0247 -0.0552
 9854TIP3    H250978   5.562   5.871   5.197  0.0345 -0.0842  2.0237
 9855TIP3   OH250979   1.928   5.023  12.798 -0.1817  0.2051  0.1304
 9855TIP3    H150980   1.944   4.936  12.763  0.3649  0.5418 -0.4741
 9855TIP3    H250981   1.837   5.020  12.829 -0.0455 -0.6889  0.4816
 9856TIP3   OH250982   2.539   6.758   0.626  0.0390  0.4457 -0.0978
 9856TIP3    H150983   2.465   6.788   0.679 -2.0640 -1.5003 -1.7587
 9856TIP3    H250984   2.531   6.806   0.544  1.1143  0.7688 -0.0321
 9857TIP3   OH250985   6.490   1.497  16.279 -0.2700 -0.4371 -0.0031
 9857TIP3    H150986   6.530   1.564  16.224  1.5184 -3.0922 -2.2260
 9857TIP3    H250987   6.426   1.544  16.333  0.5100  2.8912 -1.7604
 9858TIP3   OH250988   1.082   3.214   4.778  0.6566  0.3878  0.0696
 9858TIP3    H150989   0.991   3.187   4.761  1.5543 -1.7592 -1.7655
 9858TIP3    H250990   1.085   3.224   4.874 -1.4092  0.1997  0.2177
 9859TIP3   OH250991   3.202   1.759   2.025  0.4662  0.3492  0.1180
 9859TIP3    H150992   3.150   1.722   1.953  0.0334  0.0887  0.5584
 9859TIP3    H250993   3.241   1.682   2.067 -0.6482  0.3394  1.2040
 9860TIP3   OH250994   3.718   0.430  14.015 -0.6638  0.0028 -0.6249
 9860TIP3    H150995   3.740   0.352  13.962 -1.9244 -0.4146 -0.5550
 9860TIP3    H250996   3.661   0.396  14.084 -1.4043  1.0226 -0.7217
 9861TIP3   OH250997   0.233   2.634  13.301 -0.6708  0.1534  0.3449
 9861TIP3    H150998   0.195   2.650  13.215 -0.7142  0.7462  0.4748
 9861TIP3    H250999   0.302   2.570  13.285 -0.4422  0.5328 -0.1907
 9862TIP3   OH251000   5.050   5.092   4.595 -0.5212 -0.0271 -0.1905
 9862TIP3    H151001   5.054   5.084   4.690 -2.1384 -1.6806 -0.2074
 9862TIP3    H251002   5.054   5.002   4.563 -0.6744  0.4521 -1.6444
 9863TIP3   OH251003   2.529   5.543   6.581 -0.0681  0.2808  0.0599
 9863TIP3    H151004   2.459   5.545   6.645  0.4025  1.9161  0.5774
 9863TIP3    H251005   2.485   5.530   6.497 -0.8982  0.4142  0.4673
 9864TIP3   OH251006   2.527   4.370  13.692  0.0874 -0.4604  0.1866
 9864TIP3    H151007   2.615   4.378  13.729 -0.0573  0.2900  0.3815
 9864TIP3    H251008   2.471   4.355  13.768  0.0280 -0.8557  0.0698
 9865TIP3   OH251009   2.692   0.402  14.113  0.5040  0.2456 -0.5627
 9865TIP3    H151010   2.642   0.482  14.098  0.8233  0.2258 -1.8649
 9865TIP3    H251011   2.628   0.338  14.145  0.0886  0.7867 -0.3140
 9866TIP3   OH251012   5.686   2.530   2.413  0.3911 -0.3167 -0.0889
 9866TIP3    H151013   5.742   2.576   2.476  0.3030 -1.2356  0.6826
 9866TIP3    H251014   5.718   2.440   2.414  0.0821 -0.4436 -1.0255
 9867TIP3   OH251015   6.363   3.764  16.326 -0.1100 -0.0048  0.1688
 9867TIP3    H151016   6.369   3.701  16.398  2.3994 -0.7229 -0.5475
 9867TIP3    H251017   6.334   3.711  16.251 -1.8670  0.5595  0.4212
 9868TIP3   OH251018   2.115   6.145  13.340  0.2818  0.2686  0.5585
 9868TIP3    H151019   2.172   6.151  13.263  1.1213  1.8511  1.2561
 9868TIP3    H251020   2.027   6.138  13.303  0.6215  1.4254 -0.5916
 9869TIP3   OH251021   0.860   3.799  13.381  0.1539 -0.6192 -0.0108
 9869TIP3    H151022   0.928   3.797  13.314 -0.4304  0.6260 -0.6743
 9869TIP3    H251023   0.907   3.825  13.461  0.5495 -0.2654 -0.3477
 9870TIP3   OH251024   5.582   0.365  14.017 -0.2649 -0.6955 -0.1761
 9870TIP3    H151025   5.531   0.393  13.941  2.8212  2.3102 -1.4061
 9870TIP3    H251026   5.651   0.309  13.982 -0.4358 -1.6051  0.8761
 9871TIP3   OH251027   0.228   5.010   5.078  0.4313  0.1896  0.4857
 9871TIP3    H151028   0.157   5.040   5.021 -0.0682 -0.0586  0.9656
 9871TIP3    H251029   0.292   5.082   5.077  1.1584 -0.4174 -1.5733
 9872TIP3   OH251030   3.927   6.341  12.858  0.4420  0.2325 -0.0533
 9872TIP3    H151031   3.907   6.294  12.939  0.7309 -2.7081 -1.5761
 9872TIP3    H251032   3.842   6.370  12.826  0.1919  0.2979  0.6406
 9873TIP3   OH251033   5.285   4.811  14.293 -0.2968 -0.1536 -0.1667
 9873TIP3    H151034   5.332   4.732  14.320  1.4749  1.1852  0.9172
 9873TIP3    H251035   5.221   4.826  14.363  0.1806 -0.0015  0.2487
 9874TIP3   OH251036   5.684   4.355   4.463 -0.6844  0.1552  0.4994
 9874TIP3    H151037   5.617   4.378   4.398  0.2780 -0.0612 -0.5957
 9874TIP3    H251038   5.666   4.263   4.483 -1.2470  0.3397  0.8792
 9875TIP3   OH251039   0.536   1.104  12.009 -0.1023 -0.5424  1.4486
 9875TIP3    H151040   0.607   1.121  11.947  0.0282  2.3887  2.2597
 9875TIP3    H251041   0.466   1.164  11.982 -1.0430 -1.0723  2.6113
 9876TIP3   OH251042   5.102   0.799  14.624 -0.4279 -0.0013  0.3412
 9876TIP3    H151043   5.196   0.817  14.631 -0.8410  2.1458  1.2668
 9876TIP3    H251044   5.077   0.771  14.712 -0.9163  1.1248  0.5879
 9877TIP3   OH251045   1.720   4.799  14.628  0.2788 -0.9430 -0.4286
 9877TIP3    H151046   1.783   4.857  14.670 -0.5766 -0.8332  0.7637
 9877TIP3    H251047   1.704   4.838  14.542  1.7347 -0.9268 -0.7111
 9878TIP3   OH251048   3.051   1.329  14.098 -0.4994 -0.5930  0.3981
 9878TIP3    H151049   3.027   1.269  14.029  0.2954  1.0792 -1.4253
 9878TIP3    H251050   3.060   1.414  14.055  1.3978  0.2615  2.2756
 9879TIP3   OH251051   5.678   4.958  13.539  0.1941 -0.1543 -0.0689
 9879TIP3    H151052   5.718   5.037  13.502  1.8862 -1.4613 -1.1951
 9879TIP3    H251053   5.619   4.927  13.470 -1.4613  0.7578  0.8683
 9880TIP3   OH251054   4.061   2.715  11.893 -0.2333  0.1523  0.1331
 9880TIP3    H151055   4.106   2.680  11.970  0.0072  0.4713  0.1408
 9880TIP3    H251056   4.055   2.641  11.833 -2.0339 -0.6056  1.1589
 9881TIP3   OH251057   1.059   0.261   0.155  0.9997  0.6386  0.2910
 9881TIP3    H151058   0.982   0.205   0.146  2.0875 -2.0359  4.3887
 9881TIP3    H251059   1.117   0.234   0.084 -0.5352  0.3608 -0.8998
 9882TIP3   OH251060   4.919   2.023  13.678 -0.0577  0.1406 -0.3690
 9882TIP3    H151061   4.965   2.043  13.759 -0.6188  0.2259 -0.0640
 9882TIP3    H251062   4.837   2.072  13.684 -1.4704 -2.1548  0.4013
 9883TIP3   OH251063   1.271   5.241   5.947 -0.0389 -0.2734  0.3235
 9883TIP3    H151064   1.184   5.205   5.928 -0.3248 -0.5541  2.0303
 9883TIP3    H251065   1.253   5.321   5.997  0.6842 -0.4942  0.9477
 9884TIP3   OH251066   3.711   1.967  14.745 -0.4164  0.3209 -0.1969
 9884TIP3    H151067   3.704   1.921  14.830  0.2294  1.8143  0.7018
 9884TIP3    H251068   3.726   1.897  14.682  1.0424 -0.7116  1.1935
 9885TIP3   OH251069   4.669   6.283   2.931 -0.2712 -0.1503 -0.6295
 9885TIP3    H151070   4.733   6.246   2.992 -0.5345 -0.9257 -0.8088
 9885TIP3    H251071   4.720   6.339   2.874  0.1623 -0.3251 -0.4209
 9886TIP3   OH251072   2.356   4.473   1.475 -0.3014  0.3227  0.0646
 9886TIP3    H151073   2.268   4.493   1.444 -0.4211 -0.0104  0.1859
 9886TIP3    H251074   2.380   4.392   1.429 -0.3006  0.0757  0.4931
 9887TIP3   OH251075   0.665   6.549  15.037 -0.1530 -0.0580  0.1724
 9887TIP3    H151076   0.686   6.581  14.950  1.8957  0.9077  0.9504
 9887TIP3    H251077   0.594   6.606  15.067  1.4048  1.9081  0.3704
 9888TIP3   OH251078   4.063   6.665  14.699  0.0854 -0.1254 -0.3142
 9888TIP3    H151079   4.006   6.590  14.682  0.4020 -0.2592 -0.7831
 9888TIP3    H251080   4.136   6.654  14.639 -0.1595  0.8775 -0.8162
 9889TIP3   OH251081   0.472   5.659   5.495 -0.2856  0.5656  0.7204
 9889TIP3    H151082   0.385   5.687   5.524 -0.3496  1.0995  0.0148
 9889TIP3    H251083   0.462   5.642   5.401  0.0378 -0.6967  0.8987
 9890TIP3   OH251084   4.412   5.059   6.088 -0.6918  0.1204  0.4891
 9890TIP3    H151085   4.476   5.130   6.093 -0.7911  0.1529  1.4250
 9890TIP3    H251086   4.349   5.077   6.158 -2.6502  0.9453 -1.3772
 9891TIP3   OH251087   6.483   0.162   4.851  0.0846  0.0787 -0.3535
 9891TIP3    H151088   6.427   0.238   4.837  0.7917  0.8863  1.0630
 9891TIP3    H251089   6.433   0.089   4.812  0.1814  1.4570 -3.3169
 9892TIP3   OH251090   3.023   5.448   2.057  0.1941 -0.4728  0.7572
 9892TIP3    H151091   2.985   5.514   2.000  0.4957  0.7811  1.9447
 9892TIP3    H251092   2.957   5.379   2.062 -0.3818  0.0038 -0.0489
 9893TIP3   OH251093   0.277   5.584   1.182  0.6768  0.1071 -0.3346
 9893TIP3    H151094   0.209   5.604   1.246 -1.1695 -0.8033 -1.9158
 9893TIP3    H251095   0.288   5.489   1.188 -0.0646 -0.0972 -1.8535
 9894TIP3   OH251096   2.134   0.239  13.758 -0.2484 -0.1136 -0.0009
 9894TIP3    H151097   2.181   0.169  13.803 -0.7576 -1.7337 -1.8848
 9894TIP3    H251098   2.196   0.273  13.694  0.5293  2.3077  1.8725
 9895TIP3   OH251099   5.839   1.415   3.086 -0.2174  0.0599 -0.2915
 9895TIP3    H151100   5.781   1.399   3.011  1.0121 -2.4644 -0.8005
 9895TIP3    H251101   5.779   1.439   3.157 -2.0250 -2.6413 -0.7203
 9896TIP3   OH251102   1.379   5.268   3.566  0.2200  0.1069 -0.2577
 9896TIP3    H151103   1.450   5.206   3.577  1.6092  1.6233 -0.2407
 9896TIP3    H251104   1.313   5.241   3.630  1.3786 -0.5385  0.7112
 9897TIP3   OH251105   2.093   5.181   0.073  0.4499  0.4375 -0.0402
 9897TIP3    H151106   2.118   5.119   0.142  3.1176 -0.4621 -1.6577
 9897TIP3    H251107   2.153   5.255   0.084  0.3840  0.6332 -0.9015
 9898TIP3   OH251108   4.064   0.779   2.742  0.3750  0.0353 -0.0176
 9898TIP3    H151109   4.080   0.687   2.722  1.5945  0.6286 -2.1386
 9898TIP3    H251110   3.975   0.796   2.710 -0.1803 -0.5642  1.1471
 9899TIP3   OH251111   0.509   4.956   0.763 -0.3546  0.1202  0.1962
 9899TIP3    H151112   0.527   4.976   0.671  1.1702  0.6458  0.5809
 9899TIP3    H251113   0.422   4.994   0.779 -0.5484  0.2189 -0.9548
 9900TIP3   OH251114   1.137   2.262  12.995  0.3479  0.6773  0.5486
 9900TIP3    H151115   1.044   2.284  12.988  0.2197 -0.2350 -1.0918
 9900TIP3    H251116   1.181   2.347  13.008 -0.6201  1.2317  0.2888
 9901TIP3   OH251117   0.255   1.335  11.573  0.2334 -0.4720  0.3923
 9901TIP3    H151118   0.200   1.374  11.506  0.6458  2.4355  1.6106
 9901TIP3    H251119   0.200   1.266  11.612 -1.2861  0.1280 -0.6167
 9902TIP3   OH251120   6.358   2.562   2.329  0.4171 -0.0389 -0.0792
 9902TIP3    H151121   6.338   2.473   2.359  1.5364 -0.1496  0.4059
 9902TIP3    H251122   6.390   2.550   2.240  1.1105 -0.1969  0.1855
 9903TIP3   OH251123   6.543   1.172  13.122 -0.0326 -0.0502 -0.0232
 9903TIP3    H151124   6.555   1.264  13.147 -0.4397 -0.1430  0.5481
 9903TIP3    H251125   6.571   1.123  13.199 -0.9831 -0.3610  0.1451
 9904TIP3   OH251126   2.353   0.397  12.172 -0.0834 -0.2482 -0.4075
 9904TIP3    H151127   2.360   0.383  12.267  0.5502 -1.2570 -0.5869
 9904TIP3    H251128   2.438   0.434  12.147  1.1212 -3.1093 -1.0484
 9905TIP3   OH251129   4.254   4.554   6.156 -0.1612 -0.3972  0.4626
 9905TIP3    H151130   4.291   4.494   6.091  1.8859  0.9370  0.3100
 9905TIP3    H251131   4.267   4.510   6.240 -0.2937 -0.9163  0.2161
 9906TIP3   OH251132   5.692   4.242  15.613 -0.7201 -0.3748  0.5146
 9906TIP3    H151133   5.673   4.295  15.536  0.9486  1.5824  1.3587
 9906TIP3    H251134   5.646   4.287  15.684  0.3951 -0.2489  1.1836
 9907TIP3   OH251135   5.691   4.991   4.899  0.0131 -0.1355 -0.3878
 9907TIP3    H151136   5.716   5.000   4.807 -1.6521  0.1602 -0.8392
 9907TIP3    H251137   5.617   4.930   4.897 -0.0736 -0.0796  0.7587
 9908TIP3   OH251138   6.421   0.801   6.409  0.1508  0.4111 -0.5054
 9908TIP3    H151139   6.397   0.737   6.476 -0.6880  1.2627  0.0429
 9908TIP3    H251140   6.342   0.854   6.398  0.8392  1.3773 -0.8989
 9909TIP3   OH251141   5.962   1.260  12.478  0.2601  0.1730 -0.1723
 9909TIP3    H151142   6.002   1.221  12.556 -1.1291  0.3415  0.6597
 9909TIP3    H251143   6.016   1.336  12.459  0.1296  0.6139  1.1476
 9910TIP3   OH251144   4.170   1.212   1.035 -0.2286 -0.3385 -0.1815
 9910TIP3    H151145   4.234   1.178   0.972  1.1606 -0.6358  1.3282
 9910TIP3    H251146   4.186   1.306   1.036  0.9768 -0.5307  0.9833
 9911TIP3   OH251147   2.891   0.289  13.340  0.2926  0.0957  0.7241
 9911TIP3    H151148   2.979   0.322  13.323 -0.0114  0.8941  0.6247
 9911TIP3    H251149   2.862   0.252  13.256 -0.1004  1.3793  0.2731
 9912TIP3   OH251150   6.275   6.142   1.524  0.0873  0.0651 -0.4140
 9912TIP3    H151151   6.316   6.082   1.462 -0.8667 -2.7841  1.5239
 9912TIP3    H251152   6.345   6.163   1.586  0.3181  0.6700 -0.8704
 9913TIP3   OH251153   0.475   1.757   1.141  0.3831  0.2997 -0.2777
 9913TIP3    H151154   0.395   1.711   1.166  1.2848 -0.9411  0.4676
 9913TIP3    H251155   0.447   1.846   1.122 -1.1375 -0.0594  0.1582
 9914TIP3   OH251156   2.939   2.837  13.409  0.0037  0.0719 -0.2153
 9914TIP3    H151157   2.945   2.742  13.418 -2.0323  0.0237  1.3736
 9914TIP3    H251158   2.982   2.871  13.488 -1.7617  0.3173  0.6970
 9915TIP3   OH251159   0.747   1.154   3.895  0.0283  0.3844 -0.2079
 9915TIP3    H151160   0.777   1.074   3.852  0.8806  1.6942 -2.1853
 9915TIP3    H251161   0.655   1.162   3.868 -0.6108 -0.7836  1.4349
 9916TIP3   OH251162   3.159   4.774   4.253  0.3083 -0.4005  0.3475
 9916TIP3    H151163   3.160   4.706   4.185 -0.2263  0.5108 -0.6021
 9916TIP3    H251164   3.197   4.850   4.210 -0.5520  0.3569  0.9019
 9917TIP3   OH251165   3.161   4.672  15.686 -0.4492 -0.3846 -0.0495
 9917TIP3    H151166   3.167   4.582  15.656 -0.6951 -0.0792 -1.0673
 9917TIP3    H251167   3.086   4.674  15.745  1.0987 -1.3818  2.1111
 9918TIP3   OH251168   5.096   4.665   4.127  0.0156 -0.0816 -0.1949
 9918TIP3    H151169   5.023   4.707   4.172 -0.1859  2.4447 -2.5945
 9918TIP3    H251170   5.166   4.731   4.128  0.8457 -0.9014 -1.3634
 9919TIP3   OH251171   0.054   1.700  12.652 -0.1095 -0.4132 -0.3608
 9919TIP3    H151172   0.059   1.605  12.665  3.5133 -0.1247  1.8816
 9919TIP3    H251173   0.008   1.733  12.729 -1.0368 -0.2830 -0.9561
 9920TIP3   OH251174   1.070   4.842   4.579  0.1425 -0.2255  0.3529
 9920TIP3    H151175   1.159   4.806   4.569  0.1683  0.1338 -0.8461
 9920TIP3    H251176   1.083   4.926   4.623  0.2794 -0.6743  1.2007
 9921TIP3   OH251177   4.020   6.025  12.937 -0.1210 -0.6889 -0.3321
 9921TIP3    H151178   3.972   5.948  12.967 -1.0893 -0.7947 -2.0083
 9921TIP3    H251179   3.992   6.037  12.846  2.0624  0.0511 -0.9704
 9922TIP3   OH251180   1.996   2.649   6.127 -0.6124  0.0337  0.1631
 9922TIP3    H151181   1.926   2.595   6.090  0.7861 -1.4707 -0.4013
 9922TIP3    H251182   1.964   2.738   6.117 -2.4821 -0.5932  0.0003
 9923TIP3   OH251183   5.900   2.354   4.329 -0.3299 -0.4554  0.6298
 9923TIP3    H151184   5.955   2.278   4.311  1.7017  1.7417 -4.7532
 9923TIP3    H251185   5.814   2.331   4.296  0.6160 -0.2595 -2.3192
 9924TIP3   OH251186   2.502   4.729  14.503  0.4955  0.1597 -0.3237
 9924TIP3    H151187   2.529   4.790  14.435 -0.0649  2.5692  1.5101
 9924TIP3    H251188   2.578   4.672  14.516  1.2798  0.8746 -1.6018
 9925TIP3   OH251189   4.262   2.754  12.628  0.5091  0.3201 -0.0590
 9925TIP3    H151190   4.278   2.723  12.539  1.1278  1.3136 -0.3068
 9925TIP3    H251191   4.180   2.803  12.622  1.5042  1.9737 -0.4984
 9926TIP3   OH251192   2.075   4.546   6.494  0.7794 -0.2125  0.2482
 9926TIP3    H151193   2.144   4.575   6.435  1.5685  0.2244  1.3362
 9926TIP3    H251194   2.120   4.486   6.555 -0.3078 -1.8363 -0.4719
 9927TIP3   OH251195   2.377   5.618   0.244 -0.3480 -0.2698  0.1700
 9927TIP3    H151196   2.321   5.624   0.321 -0.1169 -0.4593  0.3533
 9927TIP3    H251197   2.466   5.623   0.279 -0.2579  0.7221 -0.1773
 9928TIP3   OH251198   5.891   1.599   0.651  0.1676  0.2532  0.2863
 9928TIP3    H151199   5.892   1.629   0.560  1.2412 -0.6470 -0.0300
 9928TIP3    H251200   5.977   1.624   0.686  0.0575 -0.0832  0.8085
 9929TIP3   OH251201   3.731   6.323   0.106  0.0144 -0.3098  0.5709
 9929TIP3    H151202   3.759   6.409   0.075  0.1557  0.0993  1.7975
 9929TIP3    H251203   3.656   6.341   0.163  0.9290 -0.8387  1.9855
 9930TIP3   OH251204   3.623   3.298  16.483  0.0613  0.8007 -0.0661
 9930TIP3    H151205   3.535   3.264  16.470  0.7456 -1.0251 -0.1101
 9930TIP3    H251206   3.621   3.336  16.571 -0.7434  0.7169 -0.0368
 9931TIP3   OH251207   1.849   3.083   6.300 -0.0642  0.3606 -0.0290
 9931TIP3    H151208   1.932   3.058   6.340  0.0148 -1.8800 -1.3865
 9931TIP3    H251209   1.784   3.071   6.370  0.3841 -0.9386  0.1939
 9932TIP3   OH251210   3.690   2.943  16.640 -0.0687  0.1623 -0.4706
 9932TIP3    H151211   3.693   2.866  16.697 -0.4485  0.0557 -0.5945
 9932TIP3    H251212   3.685   3.017  16.700  0.0156  0.0757 -0.3555
 9933TIP3   OH251213   3.283   2.070  13.546 -0.3749  0.2001  0.3262
 9933TIP3    H151214   3.200   2.025  13.531  0.3730 -0.8660 -0.8494
 9933TIP3    H251215   3.338   2.004  13.589  0.8655 -0.2322 -1.7813
 9934TIP3   OH251216   6.349   2.318  11.922  0.4235  0.1390 -0.7260
 9934TIP3    H151217   6.255   2.298  11.916 -0.0713  2.0833 -0.2383
 9934TIP3    H251218   6.385   2.288  11.839 -0.4072 -1.6226 -0.4904
 9935TIP3   OH251219   4.783   0.032   5.455  0.1303 -0.0574  0.1397
 9935TIP3    H151220   4.871  -0.005   5.457 -0.1423 -0.7342  2.1771
 9935TIP3    H251221   4.731  -0.033   5.408  0.5930  0.0990 -0.6103
 9936TIP3   OH251222   5.442   4.590  14.383  0.1373 -0.3850 -0.3463
 9936TIP3    H151223   5.411   4.558  14.468  0.5958 -0.0880 -0.0613
 9936TIP3    H251224   5.456   4.511  14.331  1.8589 -0.7118  0.5542
 9937TIP3   OH251225   5.777   4.570  15.794  0.6584 -0.1074 -0.6288
 9937TIP3    H151226   5.723   4.505  15.839  0.8643 -0.2426 -0.5730
 9937TIP3    H251227   5.791   4.639  15.858  1.0197 -0.3388 -0.4556
 9938TIP3   OH251228   1.962   5.506  15.640  0.0319  0.6242  0.1013
 9938TIP3    H151229   1.868   5.502  15.625 -0.4623 -2.6037  2.7512
 9938TIP3    H251230   2.001   5.466  15.562 -0.7620  1.8005 -0.9223
 9939TIP3   OH251231   6.460   3.301   3.582  0.4433  0.0202 -0.0562
 9939TIP3    H151232   6.386   3.272   3.530  0.4086  0.2598 -0.1400
 9939TIP3    H251233   6.523   3.335   3.518  0.2356  0.6853  0.0810
 9940TIP3   OH251234   1.546   5.495  10.775  0.3440  0.4245  0.1018
 9940TIP3    H151235   1.576   5.536  10.694 -0.0835  0.0185 -0.2723
 9940TIP3    H251236   1.456   5.527  10.786  0.2954  0.2376  0.2465
 9941TIP3   OH251237   3.328   5.113   1.102  0.4171  0.0535 -0.2334
 9941TIP3    H151238   3.386   5.188   1.090  0.9172 -0.2956 -0.0045
 9941TIP3    H251239   3.319   5.104   1.197 -1.8759  1.5204 -0.2078
 9942TIP3   OH251240   3.434   1.967  16.473  0.8008  0.2023  0.2758
 9942TIP3    H151241   3.348   1.978  16.432  0.3024  0.9341  1.4582
 9942TIP3    H251242   3.434   1.876  16.503 -0.1034  0.5343  1.3818
 9943TIP3   OH251243   2.446   2.897  11.346 -0.0995 -0.1964  0.4095
 9943TIP3    H151244   2.477   2.987  11.340 -1.3079  0.3642  1.9287
 9943TIP3    H251245   2.472   2.868  11.433 -1.2558 -0.7019  0.6102
 9944TIP3   OH251246   3.634   2.705  13.724 -0.3899  0.2034  0.2560
 9944TIP3    H151247   3.617   2.690  13.631 -0.7809 -2.9415  0.7075
 9944TIP3    H251248   3.548   2.725  13.761  0.0395  3.4877 -0.2523
 9945TIP3   OH251249   0.903   4.120   2.699 -0.1832 -0.2602 -0.2506
 9945TIP3    H151250   0.892   4.084   2.787 -1.6125 -0.7613 -0.6114
 9945TIP3    H251251   0.916   4.044   2.643  0.8802  0.0682 -0.4590
 9946TIP3   OH251252   6.538   5.775  11.920 -0.5471  0.3388  0.7509
 9946TIP3    H151253   6.558   5.868  11.920 -0.3744  0.3087  0.1141
 9946TIP3    H251254   6.443   5.770  11.933 -0.9901  0.7375 -1.7637
 9947TIP3   OH251255   3.766   0.413  13.184 -0.6681  0.4111  0.2736
 9947TIP3    H151256   3.848   0.366  13.169 -1.3866 -0.1602 -2.1982
 9947TIP3    H251257   3.793   0.503  13.203  0.5369  0.0912  0.1472
 9948TIP3   OH251258   0.526   2.391   4.133 -0.3712 -0.1562 -0.5453
 9948TIP3    H151259   0.593   2.459   4.142  0.8421 -1.5069  1.4054
 9948TIP3    H251260   0.446   2.439   4.111  0.7560  1.7267 -0.8121
 9949TIP3   OH251261   3.569   4.367   4.213  0.1474 -0.3492  0.5237
 9949TIP3    H151262   3.541   4.415   4.291 -0.0748  0.5817 -0.1065
 9949TIP3    H251263   3.632   4.425   4.171 -1.6991  0.4042 -1.3763
 9950TIP3   OH251264   3.631   1.136   5.544 -0.1004  0.3830  0.2531
 9950TIP3    H151265   3.650   1.045   5.565  0.3052  0.1325 -1.1134
 9950TIP3    H251266   3.622   1.138   5.449  2.7477  2.2268 -0.1022
 9951TIP3   OH251267   4.161   3.076   2.600 -0.5434 -0.4519 -0.4533
 9951TIP3    H151268   4.138   3.152   2.547 -1.2329 -1.1251 -1.1362
 9951TIP3    H251269   4.133   3.001   2.548 -2.2024 -1.1128  1.3044
 9952TIP3   OH251270   3.550   5.032  16.574 -0.0881 -0.0093 -0.2536
 9952TIP3    H151271   3.636   4.991  16.575  1.9204  3.6247  3.0920
 9952TIP3    H251272   3.507   5.000  16.653 -1.4450 -0.9298 -1.3141
 9953TIP3   OH251273   1.499   3.418  16.097  0.4502  0.4879 -0.0422
 9953TIP3    H151274   1.471   3.480  16.030 -1.2008  2.1546  2.0198
 9953TIP3    H251275   1.563   3.467  16.150  0.9453 -0.4131  0.2169
 9954TIP3   OH251276   1.291   1.448   5.267 -0.2082  0.0322  0.0285
 9954TIP3    H151277   1.370   1.442   5.214 -0.4130  0.6936 -0.3629
 9954TIP3    H251278   1.276   1.359   5.299  0.9131 -0.0202  0.4344
 9955TIP3   OH251279   3.845   2.362   3.128 -0.1015  0.0536 -0.3354
 9955TIP3    H151280   3.923   2.315   3.100 -0.7071 -1.1736 -0.0611
 9955TIP3    H251281   3.811   2.309   3.201  0.0735  1.7957  1.0853
 9956TIP3   OH251282   4.642   1.433   3.129  0.0501 -0.0843  0.3268
 9956TIP3    H151283   4.593   1.378   3.189 -1.7125  1.9788  0.8957
 9956TIP3    H251284   4.642   1.520   3.171  2.0279  0.5719 -0.8882
 9957TIP3   OH251285   0.291   0.894   5.375  0.4875 -0.1956 -0.1966
 9957TIP3    H151286   0.321   0.846   5.452  0.2629 -1.2652 -0.7581
 9957TIP3    H251287   0.265   0.826   5.313  0.1438  0.6583 -1.0112
 9958TIP3   OH251288   5.419   4.996   6.344  0.0854  0.1759  0.2843
 9958TIP3    H151289   5.339   4.948   6.362 -0.5073  1.1504  0.3126
 9958TIP3    H251290   5.487   4.951   6.395 -0.3630 -0.8674 -0.0202
 9959TIP3   OH251291   0.830   1.772  17.251 -0.0208  0.0108  0.2457
 9959TIP3    H151292   0.776   1.839  17.208  0.2099  0.7683  1.1117
 9959TIP3    H251293   0.882   1.820  17.314 -0.3843 -1.0818  1.4140
 9960TIP3   OH251294   4.090   6.264   1.438 -0.5522 -0.4088 -0.1060
 9960TIP3    H151295   4.148   6.202   1.483 -0.1861 -0.6688 -0.9257
 9960TIP3    H251296   4.016   6.211   1.409 -0.9411 -0.1810  0.4470
 9961TIP3   OH251297   1.107   1.688  15.807 -0.2744  0.0269 -0.0387
 9961TIP3    H151298   1.084   1.618  15.868  2.0627 -1.1088 -0.3538
 9961TIP3    H251299   1.085   1.653  15.721 -0.4382  0.2671 -0.0952
 9962TIP3   OH251300   2.770   0.843  13.375 -0.2958  0.1993 -0.0330
 9962TIP3    H151301   2.786   0.749  13.388  0.7491  0.2568 -0.7879
 9962TIP3    H251302   2.678   0.848  13.347 -0.8736 -0.4230  1.6108
 9963TIP3   OH251303   6.043   2.719   5.320  0.4341  0.1038 -0.1946
 9963TIP3    H151304   6.032   2.650   5.254  0.5832 -1.4169  1.3076
 9963TIP3    H251305   6.135   2.713   5.345 -0.1314 -0.9634  1.8159
 9964TIP3   OH251306   2.688   0.095   1.543  0.4315  0.1266 -0.1628
 9964TIP3    H151307   2.738   0.081   1.624 -1.2427 -0.8968  0.7482
 9964TIP3    H251308   2.709   0.019   1.489  0.7900  0.3084 -0.2786
 9965TIP3   OH251309   3.120   2.293  13.352 -0.2927 -0.2198  0.1155
 9965TIP3    H151310   3.136   2.201  13.333  0.9005  0.0742 -0.4057
 9965TIP3    H251311   3.152   2.305  13.441  0.3278 -0.1250 -0.1203
 9966TIP3   OH251312   2.660   6.517  10.690  0.1924 -1.2433 -0.5005
 9966TIP3    H151313   2.605   6.458  10.638  0.6863 -1.7269 -0.4843
 9966TIP3    H251314   2.630   6.605  10.667  0.0209 -1.4708 -1.1689
 9967TIP3   OH251315   1.496   4.355  16.657  0.3752 -0.3873  0.2125
 9967TIP3    H151316   1.580   4.380  16.696  1.2313 -0.1732 -1.6520
 9967TIP3    H251317   1.449   4.312  16.728  1.3957  0.9266  1.7634
 9968TIP3   OH251318   3.338   0.782   5.831 -0.2019 -0.3119  0.1755
 9968TIP3    H151319   3.433   0.770   5.825 -0.3565 -1.4881 -0.2003
 9968TIP3    H251320   3.327   0.855   5.893  0.8998 -1.3820  1.7033
 9969TIP3   OH251321   5.681   1.818   3.989  0.0097  0.1056  0.4972
 9969TIP3    H151322   5.658   1.780   3.905  0.0222 -0.0684  0.5727
 9969TIP3    H251323   5.634   1.765   4.053 -1.6243  1.4657  0.4823
 9970TIP3   OH251324   1.881   5.898  16.067  0.1265 -0.1004  0.0354
 9970TIP3    H151325   1.825   5.836  16.114 -0.4644 -0.4078 -1.0534
 9970TIP3    H251326   1.849   5.984  16.094  0.2513 -0.2613  0.7256
 9971TIP3   OH251327   3.559   2.369  13.559 -0.6085 -0.7767  0.5203
 9971TIP3    H151328   3.621   2.357  13.631  2.4936  1.2732 -1.5892
 9971TIP3    H251329   3.531   2.460  13.566 -0.8215 -0.7575 -0.4765
 9972TIP3   OH251330   1.169   1.041   4.244 -0.1940 -0.5102  0.4799
 9972TIP3    H151331   1.155   1.052   4.150 -0.3688 -1.2958  0.4072
 9972TIP3    H251332   1.085   1.007   4.277 -0.4860  0.7612  1.1046
 9973TIP3   OH251333   2.086   2.984  13.570 -0.0127  0.1777  0.6685
 9973TIP3    H151334   2.147   2.936  13.626 -0.4229  0.2984  1.2292
 9973TIP3    H251335   2.130   3.067  13.553  0.4168 -0.1351  0.2305
 9974TIP3   OH251336   0.901   2.010  13.212  0.2333  0.3010 -0.0496
 9974TIP3    H151337   0.939   1.930  13.247 -0.2024  0.1411  0.0709
 9974TIP3    H251338   0.918   2.006  13.118 -0.2843 -0.2207 -0.1325
 9975TIP3   OH251339   2.099   3.575  11.611 -0.7785 -0.1712 -0.0973
 9975TIP3    H151340   2.069   3.569  11.520 -0.9945 -2.2916  0.0701
 9975TIP3    H251341   2.029   3.536  11.663  0.0277 -0.4452  0.8212
 9976TIP3   OH251342   4.390   0.639  11.444  0.6960  0.3442 -0.1020
 9976TIP3    H151343   4.319   0.592  11.488  2.8332 -2.2560  0.8168
 9976TIP3    H251344   4.442   0.677  11.514  0.3539  2.1518 -0.7624
 9977TIP3   OH251345   6.092   4.807   0.256 -0.1933  0.2606 -0.2363
 9977TIP3    H151346   6.107   4.747   0.182 -1.7423 -0.6155  0.1183
 9977TIP3    H251347   6.129   4.890   0.227 -2.2997  0.4414 -2.7815
 9978TIP3   OH251348   0.588   5.781   3.709  0.4174 -0.0176  0.1448
 9978TIP3    H151349   0.620   5.763   3.797  0.2367 -0.8618  0.0482
 9978TIP3    H251350   0.521   5.848   3.720 -1.7981 -2.2423  1.0580
 9979TIP3   OH251351   1.073   3.073  14.753  0.2116 -0.3550  0.0252
 9979TIP3    H151352   1.088   3.167  14.766 -0.5044 -0.2868  0.3919
 9979TIP3    H251353   0.998   3.069  14.693  0.0045 -0.6938  0.3062
 9980TIP3   OH251354   6.088   4.062   4.927  0.2076  0.0205  0.6317
 9980TIP3    H151355   6.043   4.046   5.010 -1.8815 -2.5319 -0.8217
 9980TIP3    H251356   6.119   4.152   4.933 -0.1102  0.0475  4.0106
 9981TIP3   OH251357   6.285   0.318   3.050  0.5372 -0.6139  0.2248
 9981TIP3    H151358   6.331   0.235   3.059  2.8031  0.6876  1.4507
 9981TIP3    H251359   6.256   0.340   3.139  0.7610  0.3290  0.0760
 9982TIP3   OH251360   0.961   3.613  14.144 -0.8528 -0.0471  0.3128
 9982TIP3    H151361   0.994   3.702  14.153  2.0427 -0.6881 -2.1646
 9982TIP3    H251362   1.034   3.558  14.175 -1.9745 -1.5819  0.3472
 9983TIP3   OH251363   5.626   2.113  11.170  0.2757 -0.2065 -0.0296
 9983TIP3    H151364   5.668   2.057  11.105 -2.0931 -1.2907 -0.7189
 9983TIP3    H251365   5.610   2.196  11.124  1.4727  0.1796  0.2084
 9984TIP3   OH251366   5.430   0.990  11.492  0.2437 -0.4453 -0.6592
 9984TIP3    H151367   5.376   1.000  11.570  1.5717 -0.8618  0.3486
 9984TIP3    H251368   5.370   1.007  11.419 -1.1451 -0.5473  0.4161
 9985TIP3   OH251369   1.864   4.638   0.425  0.3020  0.2940 -0.0983
 9985TIP3    H151370   1.932   4.576   0.451 -1.1691 -1.2952  0.1202
 9985TIP3    H251371   1.901   4.682   0.348  2.3369  0.9222  1.1444
 9986TIP3   OH251372   1.719   4.459   3.770 -0.3136 -0.1838  0.5123
 9986TIP3    H151373   1.738   4.399   3.699 -1.2957  0.6015 -0.4428
 9986TIP3    H251374   1.778   4.432   3.841  0.3294 -1.2835 -0.4148
 9987TIP3   OH251375   4.030   6.721   5.600  0.2387 -0.1378  0.0577
 9987TIP3    H151376   4.004   6.637   5.562  2.8996 -1.8942  1.7682
 9987TIP3    H251377   4.029   6.782   5.527 -1.1010 -1.7899 -1.3963
 9988TIP3   OH251378   2.511   2.469   6.292 -0.5699  0.5386  0.1404
 9988TIP3    H151379   2.424   2.491   6.259 -0.5013  0.1966 -0.2708
 9988TIP3    H251380   2.540   2.549   6.336 -0.5257  1.1297 -0.9174
 9989TIP3   OH251381   1.523   6.324  13.546 -0.3832 -0.2505 -0.8210
 9989TIP3    H151382   1.496   6.313  13.455  1.2999  1.1252 -1.5283
 9989TIP3    H251383   1.615   6.347  13.542 -0.3234  0.1054  1.2348
 9990TIP3   OH251384   5.548   1.784  10.724 -0.0533  0.0364 -0.3846
 9990TIP3    H151385   5.502   1.707  10.758  1.3320 -0.2723  0.8981
 9990TIP3    H251386   5.584   1.755  10.640  1.0359 -0.9681  0.3988
 9991TIP3   OH251387   6.226   6.564  13.643  0.3444 -0.1185  0.1152
 9991TIP3    H151388   6.224   6.488  13.585 -0.3761  0.1799 -0.2625
 9991TIP3    H251389   6.310   6.607  13.623  0.3972 -0.3828 -0.2345
 9992TIP3   OH251390   1.721   3.749  15.383 -0.4178  0.3073  0.1915
 9992TIP3    H151391   1.798   3.795  15.417 -1.1286  1.1871  0.6663
 9992TIP3    H251392   1.721   3.665  15.430 -0.0782  0.5370  0.6152
 9993TIP3   OH251393   3.594   0.699   5.810  0.1050 -0.1818  0.0097
 9993TIP3    H151394   3.616   0.645   5.886 -2.3840 -0.6228  0.5067
 9993TIP3    H251395   3.670   0.693   5.753  2.9078  1.6467  3.1881
 9994TIP3   OH251396   1.301   4.049  12.459  0.1428 -0.3020  0.2881
 9994TIP3    H151397   1.216   4.090  12.472  0.2982 -0.3078  1.4283
 9994TIP3    H251398   1.363   4.123  12.459  0.2199 -0.3663  0.2909
 9995TIP3   OH251399   5.738   3.135  12.423  0.1154  0.3198 -0.5163
 9995TIP3    H151400   5.766   3.194  12.493  0.9847 -0.0588 -0.5219
 9995TIP3    H251401   5.809   3.141  12.358 -0.4260  0.2705 -1.1236
 9996TIP3   OH251402   2.145   1.670   4.153  0.3316 -0.2054 -0.4950
 9996TIP3    H151403   2.191   1.704   4.229 -1.6077  0.0080  0.6622
 9996TIP3    H251404   2.163   1.576   4.153 -0.0887 -0.3012  0.5961
 9997TIP3   OH251405   2.252   5.706  16.008 -0.1651  0.5923  0.4493
 9997TIP3    H151406   2.335   5.698  16.054  0.9322  1.2506 -1.3034
 9997TIP3    H251407   2.276   5.709  15.915 -2.2236 -0.1551 -0.1680
 9998TIP3   OH251408   5.998   5.054   4.416  0.0978 -0.1446 -0.1968
 9998TIP3    H151409   5.991   5.026   4.508  0.6300  0.3994  0.0144
 9998TIP3    H251410   5.914   5.029   4.378  0.1801 -1.1306  0.2269
 9999TIP3   OH251411   5.053   5.799  14.010  0.2571 -0.2810 -0.1584
 9999TIP3    H151412   5.067   5.714  14.052  0.2041 -1.0015 -1.5521
 9999TIP3    H251413   5.140   5.835  13.998  0.3007 -0.2949  0.1165
10000TIP3   OH251414   2.288   1.925   4.143  0.1402  0.7085  0.1590
10000TIP3    H151415   2.287   1.927   4.239 -0.4075  1.4587  0.1408
10000TIP3    H251416   2.248   1.840   4.121  1.1374  0.1008  0.5952
10001TIP3   OH251417   3.914   5.083  15.566 -0.2214  0.8187  0.4964
10001TIP3    H151418   3.909   5.088  15.470  1.1248  0.3220  0.3891
10001TIP3    H251419   3.985   5.142  15.590  0.8429 -0.6175  1.0017
10002TIP3   OH251420   4.334   2.674  17.040 -0.2194 -0.2245 -0.3406
10002TIP3    H151421   4.331   2.643  16.950 -0.8967 -0.6429 -0.1864
10002TIP3    H251422   4.399   2.618  17.083  0.4960  0.3235 -0.6825
10003TIP3   OH251423   3.079   4.330  16.371 -0.4368  0.0417 -0.0642
10003TIP3    H151424   3.113   4.408  16.414 -0.4603  0.0222 -0.0096
10003TIP3    H251425   3.118   4.257  16.418 -2.9789 -0.0581  2.0816
10004TIP3   OH251426   3.988   5.691  10.674  1.1860  0.2908  0.2080
10004TIP3    H151427   4.023   5.774  10.704 -0.5036  0.0568  3.1891
10004TIP3    H251428   3.893   5.701  10.678  0.9002 -2.0722  1.8269
10005TIP3   OH251429   0.440   3.274  15.163  0.2236 -0.3450 -0.2370
10005TIP3    H151430   0.447   3.179  15.167  2.0589 -0.2019  0.7283
10005TIP3    H251431   0.522   3.302  15.123 -0.4154  0.8392 -0.7625
10006TIP3   OH251432   3.343   2.142   5.244 -0.0761  0.1690  0.0618
10006TIP3    H151433   3.332   2.053   5.211 -0.9788  0.4242 -0.3701
10006TIP3    H251434   3.287   2.146   5.321  1.2199 -0.1087  1.0509
10007TIP3   OH251435   3.664   2.515   0.485 -0.0915  0.5795 -0.3580
10007TIP3    H151436   3.714   2.459   0.425  0.4857 -1.0405  1.5453
10007TIP3    H251437   3.581   2.530   0.440 -0.6432 -2.5849 -0.6421
10008TIP3   OH251438   5.255   2.476   4.126 -0.5191 -0.3605  0.1861
10008TIP3    H151439   5.295   2.389   4.120 -0.3225 -0.2371 -0.4522
10008TIP3    H251440   5.170   2.462   4.167  0.3232 -0.5834  1.9328
10009TIP3   OH251441   0.777   6.269   0.943  0.1803 -0.1456 -0.2814
10009TIP3    H151442   0.707   6.333   0.959 -1.5607 -2.5000  2.5924
10009TIP3    H251443   0.786   6.267   0.848 -2.7731  1.2256 -0.7089
10010TIP3   OH251444   1.219   2.615   0.868  0.2607  0.0573  0.5527
10010TIP3    H151445   1.188   2.702   0.891 -2.1019 -0.5092 -0.1712
10010TIP3    H251446   1.293   2.631   0.809 -1.5951  1.7063 -1.5336
10011TIP3   OH251447   6.296   5.101  14.329 -0.7704 -0.2213  0.4708
10011TIP3    H151448   6.321   5.089  14.420 -2.2083  0.0603  0.9259
10011TIP3    H251449   6.241   5.025  14.309  0.0680 -0.6240 -0.3789
10012TIP3   OH251450   4.226   2.780   2.230 -0.4364  0.4497  0.4746
10012TIP3    H151451   4.158   2.723   2.267 -0.3053 -0.3710 -0.5042
10012TIP3    H251452   4.257   2.831   2.304 -2.6235  1.3771  0.8409
10013TIP3   OH251453   3.710   0.489  15.826  0.3834  0.2090 -0.2812
10013TIP3    H151454   3.680   0.579  15.809  0.2078  0.5649  1.6682
10013TIP3    H251455   3.630   0.441  15.848  0.7564  0.3087  1.4788
10014TIP3   OH251456   5.978   6.735  14.636 -0.5157 -0.0416 -0.1021
10014TIP3    H151457   6.022   6.650  14.628  1.7861  1.1160 -0.5525
10014TIP3    H251458   5.949   6.738  14.727  0.9787 -0.5900  0.4166
10015TIP3   OH251459   2.666   1.790  12.794 -0.3610  0.1874 -0.1965
10015TIP3    H151460   2.719   1.868  12.777 -0.2901 -0.0687 -1.2414
10015TIP3    H251461   2.658   1.786  12.889 -2.1168  2.6420 -0.1409
10016TIP3   OH251462   5.071   0.316   1.892  0.0272  0.1658  0.3767
10016TIP3    H151463   5.025   0.266   1.825  2.1549 -1.3355 -0.0318
10016TIP3    H251464   5.094   0.399   1.849  0.9759 -0.6029 -0.6376
10017TIP3   OH251465   6.019   0.934   0.288 -0.4404 -0.4635  0.7074
10017TIP3    H151466   5.993   1.012   0.238 -2.1099 -3.2843 -3.3389
10017TIP3    H251467   5.937   0.896   0.318 -0.1121 -2.7650 -1.0647
10018TIP3   OH251468   5.113   6.025   1.130  0.2503 -0.2258 -0.0444
10018TIP3    H151469   5.161   5.997   1.052 -1.9296  0.2536 -1.6816
10018TIP3    H251470   5.054   5.952   1.149  0.7033 -0.3007  1.1373
10019TIP3   OH251471   5.382   6.265   3.054  0.6049 -0.0280  0.3498
10019TIP3    H151472   5.466   6.277   3.010 -0.9201  1.3369 -2.5115
10019TIP3    H251473   5.367   6.348   3.100  1.2236 -0.6571  1.7482
10020TIP3   OH251474   1.290   2.896  16.077 -0.3421  0.4445 -0.6651
10020TIP3    H151475   1.232   2.898  16.153  1.0833 -0.4417  0.5031
10020TIP3    H251476   1.343   2.975  16.084  0.8172 -0.3724  0.1485
10021TIP3   OH251477   0.495   5.262   0.868 -0.0483  0.6661  0.3995
10021TIP3    H151478   0.412   5.217   0.850 -0.3194  1.1456  0.4296
10021TIP3    H251479   0.515   5.239   0.959  0.8712 -1.0420 -0.2035
10022TIP3   OH251480   6.617   6.623   5.931  0.4955 -0.2346 -0.0822
10022TIP3    H151481   6.653   6.554   5.987 -1.8039 -1.0960  0.4682
10022TIP3    H251482   6.677   6.697   5.941  1.4474 -1.1841  1.6209
10023TIP3   OH251483   0.628   5.609  15.499 -0.0732  0.1717 -0.3183
10023TIP3    H151484   0.615   5.671  15.570 -1.4059  0.3092 -0.6569
10023TIP3    H251485   0.653   5.663  15.424 -1.8061  0.3964 -0.7658
10024TIP3   OH251486   0.069   1.870   4.040  0.4028 -0.4968  0.0626
10024TIP3    H151487   0.046   1.959   4.014 -0.1339  0.2196  2.7027
10024TIP3    H251488  -0.009   1.819   4.019  0.5211 -0.2787 -0.9825
10025TIP3   OH251489   5.652   1.647  13.568  0.0286  0.3376  0.3778
10025TIP3    H151490   5.566   1.670  13.602 -0.0703  1.1473 -0.3836
10025TIP3    H251491   5.713   1.676  13.636 -0.2431  0.7304  0.4544
10026TIP3   OH251492   3.927   6.644  15.994 -0.0346 -0.5175 -0.4492
10026TIP3    H151493   3.900   6.553  16.008 -1.1922 -0.1221  0.0261
10026TIP3    H251494   3.982   6.641  15.916  2.1034 -2.0122  1.0211
10027TIP3   OH251495   1.074   3.473  12.594  0.2479  0.4220 -0.2106
10027TIP3    H151496   1.137   3.463  12.522 -0.6255 -1.8844 -0.7403
10027TIP3    H251497   1.119   3.436  12.670 -0.5123 -1.5674 -0.6679
10028TIP3   OH251498   5.980   0.560   3.604  0.2461  0.2107  0.2084
10028TIP3    H151499   5.981   0.567   3.699  1.1036 -1.7964  0.3910
10028TIP3    H251500   5.900   0.510   3.585  1.4731 -1.8332  0.1472
10029TIP3   OH251501   4.513   0.631  16.444  0.2581 -0.2866  0.5401
10029TIP3    H151502   4.518   0.615  16.350  2.1916  0.0155  0.5528
10029TIP3    H251503   4.490   0.546  16.482  0.5295 -0.6648 -0.1302
10030TIP3   OH251504   6.441   2.228  11.670 -0.0469  0.1759 -0.3740
10030TIP3    H151505   6.379   2.272  11.613  0.2818  2.0848  0.6717
10030TIP3    H251506   6.525   2.270  11.652  0.4038 -0.4318  0.2382
10031TIP3   OH251507   4.699   6.412   5.739  0.3085  0.3357 -0.2411
10031TIP3    H151508   4.652   6.405   5.656 -0.0575  1.2527 -0.1176
10031TIP3    H251509   4.660   6.488   5.782  1.8456  1.0800 -0.0972
10032TIP3   OH251510   5.803   2.603  11.436  0.2912 -0.4769  0.0708
10032TIP3    H151511   5.766   2.667  11.375  1.8892 -0.1816 -0.6452
10032TIP3    H251512   5.843   2.537  11.380  0.7842 -0.8124  0.8017
10033TIP3   OH251513   6.705   2.299   5.122  0.3778 -0.2325 -0.3895
10033TIP3    H151514   6.674   2.367   5.182 -0.8052 -0.3157 -0.8690
10033TIP3    H251515   6.625   2.267   5.079  1.1156 -0.6694 -1.4812
10034TIP3   OH251516   3.434   2.370  12.012 -0.1495  0.4307 -0.1877
10034TIP3    H151517   3.349   2.402  11.981 -0.3925 -0.9005 -0.9815
10034TIP3    H251518   3.428   2.275  12.003  0.5549  0.1267  2.0372
10035TIP3   OH251519   1.246   5.223   0.267  0.0841  0.6234  0.1542
10035TIP3    H151520   1.256   5.134   0.301  3.2893  0.1250 -1.6348
10035TIP3    H251521   1.217   5.274   0.342  2.5533 -1.1670  2.5534
10036TIP3   OH251522   0.219   5.901   1.580 -0.7456  0.2091  0.0135
10036TIP3    H151523   0.202   5.976   1.638  1.3304 -0.2946  1.3985
10036TIP3    H251524   0.312   5.907   1.559 -0.6568 -1.6418 -0.3245
10037TIP3   OH251525   6.252   6.565  10.879  0.3770 -0.3445 -0.5998
10037TIP3    H151526   6.270   6.649  10.921 -0.6017 -0.6360  0.4681
10037TIP3    H251527   6.156   6.556  10.885  0.4150 -1.2853 -1.1981
10038TIP3   OH251528   6.116   4.252  14.376  0.2477 -0.8471 -0.3908
10038TIP3    H151529   6.189   4.306  14.406 -1.2689  1.8978 -1.2306
10038TIP3    H251530   6.039   4.309  14.384 -0.9566 -1.3896 -5.0219
10039TIP3   OH251531   5.816   4.781   3.916  0.6217 -0.2850 -0.3030
10039TIP3    H151532   5.897   4.809   3.874  0.2833 -0.9307 -1.4172
10039TIP3    H251533   5.792   4.855   3.972  1.1082  0.5954 -1.2219
10040TIP3   OH251534   3.699   5.628  16.368  0.6758  0.2194 -0.4283
10040TIP3    H151535   3.637   5.570  16.324  1.1648 -0.9482  0.3892
10040TIP3    H251536   3.753   5.570  16.421 -0.5836  1.6197  2.6227
10041TIP3   OH251537   4.514   2.807   2.889  0.2286 -0.1413  0.1021
10041TIP3    H151538   4.595   2.759   2.904  0.1756 -0.5952 -0.9333
10041TIP3    H251539   4.542   2.895   2.865  0.4842 -0.5612 -1.2399
10042TIP3   OH251540   4.172   0.964   2.130 -0.6638  0.8267 -0.2556
10042TIP3    H151541   4.156   1.006   2.046 -1.6113 -0.4014 -0.7211
10042TIP3    H251542   4.217   0.882   2.107 -0.1689  0.8747  0.5082
10043TIP3   OH251543   5.420   5.799  14.832 -0.6160 -0.2375  0.3709
10043TIP3    H151544   5.363   5.852  14.888 -1.8767  1.2940 -2.1461
10043TIP3    H251545   5.482   5.862  14.796 -2.2889 -0.2055 -2.8794
10044TIP3   OH251546   6.493   1.248   2.022 -0.2700 -0.1715 -0.5352
10044TIP3    H151547   6.520   1.162   2.051  1.5512  0.8892  1.1141
10044TIP3    H251548   6.414   1.232   1.970 -1.1601 -2.6066  1.3792
10045TIP3   OH251549   2.788   5.838   1.725  0.5453 -0.0091  0.2941
10045TIP3    H151550   2.799   5.899   1.798  4.1235  0.9174 -0.8595
10045TIP3    H251551   2.793   5.892   1.647 -2.2262 -1.1260 -0.8028
10046TIP3   OH251552   4.897   6.744  13.282  0.5943  0.4911 -0.3124
10046TIP3    H151553   4.821   6.778  13.235  0.9332  0.1252 -1.1509
10046TIP3    H251554   4.861   6.701  13.359 -0.1550 -0.6555 -1.2686
10047TIP3   OH251555   2.339   3.978   3.319 -0.1856  0.5491  0.1666
10047TIP3    H151556   2.359   3.902   3.373 -0.1815  0.6249  0.2733
10047TIP3    H251557   2.257   3.956   3.274 -0.9811  1.0550  1.3157
10048TIP3   OH251558   2.686   2.036   0.370 -0.2727 -0.0870  0.4524
10048TIP3    H151559   2.698   1.960   0.313 -1.0175 -0.0685  0.2555
10048TIP3    H251560   2.661   2.107   0.311  0.4731  0.3323  0.6289
10049TIP3   OH251561   3.490   5.898   1.620 -0.1230 -0.0166 -0.1521
10049TIP3    H151562   3.507   5.962   1.551  1.1793 -1.6700 -1.4375
10049TIP3    H251563   3.567   5.903   1.677 -0.4020  0.1199  0.2212
10050TIP3   OH251564   1.435   3.933   5.313  0.0343 -0.1255 -0.7090
10050TIP3    H151565   1.362   3.962   5.259  0.7528 -1.4908 -2.5060
10050TIP3    H251566   1.513   3.965   5.268  0.6495 -1.3404 -0.5617
10051TIP3   OH251567   1.341   2.723   6.376 -0.6468 -0.1272  0.2012
10051TIP3    H151568   1.325   2.701   6.468 -0.3442 -0.8771  0.0807
10051TIP3    H251569   1.368   2.815   6.378 -2.3437  0.4030  0.6670
10052TIP3   OH251570   6.179   1.926   5.673  0.1546  0.2441  0.3699
10052TIP3    H151571   6.189   2.017   5.698 -0.6146  0.7256 -0.9769
10052TIP3    H251572   6.095   1.900   5.712  1.1251 -0.4189  2.1395
10053TIP3   OH251573   1.439   1.665  16.249 -0.6734 -0.4063  0.1816
10053TIP3    H151574   1.476   1.753  16.238 -2.1628  0.4385  1.4979
10053TIP3    H251575   1.515   1.607  16.252  0.2962  0.6996 -1.6253
10054TIP3   OH251576   5.375   1.600   2.071  0.1852  0.0409 -0.0197
10054TIP3    H151577   5.443   1.595   2.138 -0.3487 -0.8240  0.4861
10054TIP3    H251578   5.313   1.666   2.104 -0.8618 -1.4459  1.1322
10055TIP3   OH251579   4.291   3.176   2.804  0.0384 -0.0557 -0.6263
10055TIP3    H151580   4.257   3.166   2.715 -1.5759  1.8582 -0.2818
10055TIP3    H251581   4.217   3.208   2.855  0.2995 -3.0844  1.9652
10056TIP3   OH251582   2.663   0.001  15.238 -0.1112  0.3710 -0.4282
10056TIP3    H151583   2.744  -0.019  15.285  1.1211 -0.0230 -2.5931
10056TIP3    H251584   2.594  -0.031  15.296  1.4177 -2.1386  0.1569
10057TIP3   OH251585   6.139   4.799  14.491  0.2469 -0.4237  0.0852
10057TIP3    H151586   6.180   4.725  14.535 -0.5056 -0.3603  0.9208
10057TIP3    H251587   6.127   4.771  14.401 -0.3190 -1.4371  0.4659
10058TIP3   OH251588   2.092   4.986   0.995  0.3412  0.1259  0.4910
10058TIP3    H151589   2.101   4.946   0.909 -0.9843 -0.4187  0.5856
10058TIP3    H251590   2.181   5.011   1.019  1.0431 -1.6303 -0.1282
10059TIP3   OH251591   4.124   5.114   5.426  0.1017  0.0810 -0.4941
10059TIP3    H151592   4.179   5.138   5.500 -1.0818 -0.9489  0.7627
10059TIP3    H251593   4.134   5.187   5.364  0.9113  1.1008  0.7859
10060TIP3   OH251594   1.957   1.328  11.671  0.0925 -0.0155  0.2326
10060TIP3    H151595   1.975   1.332  11.765 -1.5651  0.6125  0.5550
10060TIP3    H251596   2.024   1.269  11.637  1.5863  0.8040  1.5732
10061TIP3   OH251597   0.388   2.661  16.910  0.1126 -0.5989  0.2603
10061TIP3    H151598   0.442   2.588  16.940 -0.5625 -1.3300 -0.2527
10061TIP3    H251599   0.414   2.674  16.819  0.0831 -0.3386  0.2897
10062TIP3   OH251600   6.334   2.676  16.252  0.2637  0.1329 -0.5283
10062TIP3    H151601   6.321   2.764  16.287  0.8792  0.4266 -1.0323
10062TIP3    H251602   6.383   2.630  16.321 -0.8857 -0.1148  0.1438
10063TIP3   OH251603   2.993   3.155   4.360  0.3472 -0.0181 -0.3897
10063TIP3    H151604   2.944   3.091   4.411 -2.7454  0.9318 -1.9078
10063TIP3    H251605   3.034   3.104   4.290  1.7144 -0.8306  0.9294
10064TIP3   OH251606   2.622   3.822   2.659 -0.1841 -0.0862  0.6201
10064TIP3    H151607   2.588   3.909   2.682  0.1647 -0.3005  2.0073
10064TIP3    H251608   2.552   3.762   2.685 -0.4297 -0.2396 -0.3507
10065TIP3   OH251609   1.353   3.581  10.593 -0.0873  0.4788  0.3782
10065TIP3    H151610   1.354   3.504  10.536 -1.7017  1.6714 -1.3596
10065TIP3    H251611   1.378   3.654  10.537  2.0361  1.2177  2.1436
10066TIP3   OH251612   4.065   1.641   1.564  0.6153 -0.6471 -0.4351
10066TIP3    H151613   4.090   1.549   1.571 -0.2217 -0.8285  0.3056
10066TIP3    H251614   4.140   1.682   1.520  0.8827 -1.7202 -1.0379
10067TIP3   OH251615   4.867   3.339   4.608 -0.0503  0.4892  0.7565
10067TIP3    H151616   4.778   3.358   4.640 -0.5561 -2.2551  1.2186
10067TIP3    H251617   4.854   3.312   4.517  0.1652 -0.7877  1.0902
10068TIP3   OH251618   3.816   3.240   5.182  0.4348 -0.2032  0.4930
10068TIP3    H151619   3.897   3.207   5.143  0.2309 -0.7176  0.4962
10068TIP3    H251620   3.803   3.186   5.259 -1.3988 -2.0665 -1.0228
10069TIP3   OH251621   0.901   1.932   3.033  0.5477 -0.0652  0.3940
10069TIP3    H151622   0.934   1.855   2.987  0.8689 -0.2018  0.8508
10069TIP3    H251623   0.928   1.920   3.124 -0.6157 -0.0925  0.7445
10070TIP3   OH251624   0.085   1.094  12.915  0.5062 -0.0500 -0.2070
10070TIP3    H151625   0.047   1.125  12.833  2.3322 -0.8734 -1.4218
10070TIP3    H251626   0.129   1.171  12.951 -1.9263  0.8547  1.1022
10071TIP3   OH251627   6.336   4.632  13.764 -0.2363 -0.2126 -0.2383
10071TIP3    H151628   6.392   4.563  13.799 -0.0208  0.4932  0.8793
10071TIP3    H251629   6.391   4.677  13.700  0.0481 -0.3085 -0.0647
10072TIP3   OH251630   3.866   0.086  13.294  0.0991 -0.0977  0.0954
10072TIP3    H151631   3.884   0.163  13.240  0.2882 -1.0041 -1.1843
10072TIP3    H251632   3.952   0.046  13.307 -0.1351 -0.7366 -0.2721
10073TIP3   OH251633   6.012   5.408  16.803 -0.0576 -0.1595  0.1361
10073TIP3    H151634   5.992   5.429  16.895 -0.0793 -0.0988  0.1178
10073TIP3    H251635   6.030   5.493  16.762  2.0396 -0.3383  0.5627
10074TIP3   OH251636   1.025   4.023  15.805 -0.1011 -0.4920  0.1559
10074TIP3    H151637   1.017   4.095  15.868 -0.8603 -1.8699  1.7061
10074TIP3    H251638   1.085   3.961  15.847  0.0205 -1.0813 -0.8518
10075TIP3   OH251639   4.236   0.347   2.067 -1.1315 -0.4378  0.0780
10075TIP3    H151640   4.170   0.294   2.111 -2.0248 -0.3938 -1.1745
10075TIP3    H251641   4.315   0.335   2.121 -2.1275 -0.4992  1.5791
10076TIP3   OH251642   3.254   6.428   3.536 -0.0792  0.1767 -0.2659
10076TIP3    H151643   3.276   6.489   3.606  1.3421  0.2838 -0.7610
10076TIP3    H251644   3.162   6.406   3.550 -0.4133  1.8620  0.3437
10077TIP3   OH251645   6.770   2.526   5.316  0.1271  0.4378 -0.4847
10077TIP3    H151646   6.732   2.614   5.322  0.8263  0.8826 -2.1107
10077TIP3    H251647   6.862   2.537   5.340 -0.1743 -0.2178  1.1185
10078TIP3   OH251648   5.459   2.069  16.879 -0.2734  0.0029  0.1203
10078TIP3    H151649   5.462   2.022  16.796 -1.7652  0.3706 -0.1695
10078TIP3    H251650   5.383   2.034  16.925  0.8195 -0.5638  1.5890
10079TIP3   OH251651   1.106   5.235   6.409  0.3636  0.4867  0.1609
10079TIP3    H151652   1.131   5.167   6.472 -0.0183  1.2502  1.1627
10079TIP3    H251653   1.101   5.315   6.461 -0.1524  1.1066 -0.8133
10080TIP3   OH251654   1.221   0.328  16.447 -0.6659  0.2089  0.0494
10080TIP3    H151655   1.129   0.301  16.442 -1.5579  1.9503  3.7254
10080TIP3    H251656   1.265   0.256  16.491 -1.1461  0.8801  1.7043
10081TIP3   OH251657   2.820   4.612   2.176  0.2862 -0.0517 -0.3208
10081TIP3    H151658   2.817   4.548   2.105  1.7632  0.4545 -0.8874
10081TIP3    H251659   2.739   4.599   2.225 -0.2448 -1.1477 -1.4631
10082TIP3   OH251660   1.614   3.063  17.132 -0.4367 -0.6789 -0.1158
10082TIP3    H151661   1.532   3.057  17.082 -0.6050 -1.3402  0.2330
10082TIP3    H251662   1.616   3.154  17.161 -1.0329 -0.6428 -0.1594
10083TIP3   OH251663   6.315   1.702  10.749 -0.2334 -0.0027  0.2029
10083TIP3    H151664   6.357   1.664  10.672 -1.6458  0.3331 -0.7618
10083TIP3    H251665   6.258   1.770  10.715 -0.2901  0.6978  1.6257
10084TIP3   OH251666   6.460   0.842   4.408 -0.2087  0.3138 -0.1735
10084TIP3    H151667   6.479   0.752   4.379 -1.4401 -0.2333  0.6427
10084TIP3    H251668   6.371   0.859   4.377 -0.3881  0.8511  0.5998
10085TIP3   OH251669   3.636   1.687   0.372 -0.2925  0.2936  0.3302
10085TIP3    H151670   3.662   1.707   0.282  1.7942 -0.7582  0.6339
10085TIP3    H251671   3.583   1.608   0.364  0.2528 -0.0506  0.0550
10086TIP3   OH251672   2.924   2.267  15.694  0.0268  0.5315  0.4467
10086TIP3    H151673   2.906   2.217  15.774 -3.4807 -0.6454 -0.8672
10086TIP3    H251674   2.885   2.353  15.710  0.6837  0.8078  0.5571
10087TIP3   OH251675   2.698   3.956  11.235 -0.3643  0.2286  0.1090
10087TIP3    H151676   2.620   3.901  11.243 -0.0540 -0.1858  0.3556
10087TIP3    H251677   2.706   3.972  11.141  0.8198 -2.0663 -0.2518
10088TIP3   OH251678   5.376   4.449   6.035 -0.0548 -0.2493  0.1944
10088TIP3    H151679   5.389   4.463   5.941  3.0160 -1.2830  0.3504
10088TIP3    H251680   5.447   4.497   6.077 -0.7561 -0.6508  1.9442
10089TIP3   OH251681   1.657   2.712  16.639  0.3863  0.1333 -0.8678
10089TIP3    H151682   1.610   2.777  16.691  0.4323 -0.0740 -0.5555
10089TIP3    H251683   1.652   2.744  16.549 -1.8210 -0.7097 -1.1188
10090TIP3   OH251684   3.482   3.229   1.289  0.1712 -0.5940 -0.1395
10090TIP3    H151685   3.542   3.214   1.215  0.5346 -2.9223  0.5302
10090TIP3    H251686   3.397   3.200   1.256 -0.0582  0.1860 -0.2417
10091TIP3   OH251687   3.322   2.419   2.990  0.2967 -0.1012 -0.6503
10091TIP3    H151688   3.306   2.513   2.982 -1.1923 -0.0656  1.7486
10091TIP3    H251689   3.405   2.412   3.037 -0.6529  0.1150  1.1240
10092TIP3   OH251690   3.131   5.982  13.309 -0.4648  0.7893 -0.2772
10092TIP3    H151691   3.036   5.989  13.324 -0.2507 -0.1640  1.9502
10092TIP3    H251692   3.168   5.969  13.397  1.7624  1.2886 -1.0842
10093TIP3   OH251693   1.375   0.468  13.391 -0.0391 -0.2414  0.4323
10093TIP3    H151694   1.306   0.419  13.436 -0.7584 -0.7971 -1.2256
10093TIP3    H251695   1.457   0.435  13.429 -0.5732 -1.6502  0.4010
10094TIP3   OH251696   0.887   0.276   1.861 -0.5995  0.0463 -0.2215
10094TIP3    H151697   0.859   0.366   1.879  1.7193  0.7893  0.0301
10094TIP3    H251698   0.896   0.273   1.765  1.5379  0.8940 -0.1148
10095TIP3   OH251699   2.395   0.492  16.590 -0.3874  0.4440  0.1933
10095TIP3    H151700   2.374   0.454  16.505  0.1576 -0.8258  0.6109
10095TIP3    H251701   2.449   0.568  16.568 -2.1602  1.5258 -0.6860
10096TIP3   OH251702   6.023   4.963   0.667 -0.2326  0.0148 -0.2118
10096TIP3    H151703   6.065   4.951   0.752 -2.2204 -0.1130  0.8146
10096TIP3    H251704   6.060   4.895   0.612  2.7320  1.4542 -0.1801
10097TIP3   OH251705   6.474   4.491   1.643 -0.0497  0.0524 -0.3306
10097TIP3    H151706   6.471   4.472   1.549 -0.3819  1.9355 -0.7417
10097TIP3    H251707   6.383   4.486   1.672 -0.0729  0.4898 -0.3298
10098TIP3   OH251708   5.493   5.384   2.289  0.8865 -0.4586 -0.2450
10098TIP3    H151709   5.468   5.412   2.201  0.2515 -0.7716 -0.1692
10098TIP3    H251710   5.493   5.464   2.341 -0.4548 -0.5098 -0.1381
10099TIP3   OH251711   1.098   0.721   3.121  0.2667 -0.3668  0.2112
10099TIP3    H151712   1.072   0.672   3.043  3.7561 -1.8912 -0.1577
10099TIP3    H251713   1.076   0.664   3.195  1.8859 -1.3924 -0.0596
10100TIP3   OH251714   1.689   0.762   2.620 -0.0006  0.0605 -0.5330
10100TIP3    H151715   1.660   0.716   2.542  1.2639 -0.2252 -0.8641
10100TIP3    H251716   1.735   0.696   2.671 -0.0642  0.4517  0.0438
10101TIP3   OH251717   2.174   1.450   1.113 -1.0214 -0.1140 -0.3555
10101TIP3    H151718   2.190   1.357   1.126  1.7565 -0.0681 -2.4745
10101TIP3    H251719   2.243   1.494   1.162 -1.4512  0.7666 -0.5099
10102TIP3   OH251720   2.349   2.765   2.372 -0.4826 -0.4724 -0.2713
10102TIP3    H151721   2.254   2.756   2.386 -0.8963  2.2498 -0.6878
10102TIP3    H251722   2.379   2.676   2.353 -2.8388 -1.5123  0.4770
10103TIP3   OH251723   4.259   2.179   3.545  0.4108 -0.3362  0.4242
10103TIP3    H151724   4.189   2.214   3.490 -0.4205  0.4683  1.9664
10103TIP3    H251725   4.223   2.178   3.633  2.4096  0.3048  1.2975
10104TIP3   OH251726   3.011   5.864  16.410  0.2298  0.5316 -0.3655
10104TIP3    H151727   3.028   5.958  16.413  1.4134  0.2974  0.7728
10104TIP3    H251728   3.085   5.827  16.363  0.0968  0.0944 -0.2393
10105TIP3   OH251729   3.692   6.462   2.699 -0.2190 -0.2269  0.3500
10105TIP3    H151730   3.718   6.515   2.775 -0.7033  1.2341 -0.4681
10105TIP3    H251731   3.753   6.488   2.630 -1.7810  0.9055 -0.6812
10106TIP3   OH251732   6.590   2.810  12.365 -0.1966  0.1765  0.1293
10106TIP3    H151733   6.510   2.842  12.324 -0.2633 -0.1824 -0.0178
10106TIP3    H251734   6.612   2.731  12.316 -1.0080 -1.0151  1.6284
10107TIP3   OH251735   0.057   5.939  14.068 -0.5313 -0.2240 -0.1332
10107TIP3    H151736   0.021   5.899  14.148 -0.9317 -3.1899 -1.6598
10107TIP3    H251737  -0.020   5.966  14.018 -0.3878 -0.3552 -0.4304
10108TIP3   OH251738   3.653   5.740  11.253 -0.1397 -0.3859 -0.5976
10108TIP3    H151739   3.716   5.803  11.217  0.7398 -0.3868  0.8681
10108TIP3    H251740   3.573   5.757  11.204  0.6778  0.3801 -1.7498
10109TIP3   OH251741   0.085   3.858  13.672 -0.3749 -0.1236 -0.0788
10109TIP3    H151742   0.089   3.914  13.595 -0.7034 -0.1618 -0.1234
10109TIP3    H251743   0.168   3.811  13.671 -0.4651 -0.2786 -0.5250
10110TIP3   OH251744   4.399   3.410  13.882  0.3232  0.5822 -0.1641
10110TIP3    H151745   4.333   3.390  13.816 -0.0254 -0.7525  0.5426
10110TIP3    H251746   4.477   3.434  13.833 -1.0324  3.6271 -1.0381
10111TIP3   OH251747   5.559   5.102  16.693 -0.1946  0.5857  0.5349
10111TIP3    H151748   5.561   5.025  16.636 -0.5912  2.2284 -1.8248
10111TIP3    H251749   5.491   5.082  16.758  1.1025 -1.8351  1.2884
10112TIP3   OH251750   3.871   4.218   0.819 -0.0751 -0.0035 -0.3363
10112TIP3    H151751   3.959   4.245   0.844 -0.4503  2.3558 -1.2854
10112TIP3    H251752   3.879   4.193   0.727 -0.3833  0.1459 -0.4037
10113TIP3   OH251753   4.634   5.536   4.163 -0.2804 -0.3045 -0.7689
10113TIP3    H151754   4.654   5.447   4.192  0.7843 -0.0071 -0.5445
10113TIP3    H251755   4.686   5.548   4.083  1.8503  1.0214  0.6838
10114TIP3   OH251756   4.652   1.412  15.118 -0.0443 -1.1096 -0.1512
10114TIP3    H151757   4.586   1.402  15.049  0.3209 -0.8095 -0.5441
10114TIP3    H251758   4.608   1.381  15.197 -0.7859 -0.5498 -0.3370
10115TIP3   OH251759   5.829   2.721   5.777  0.3885  0.1457  0.8041
10115TIP3    H151760   5.848   2.628   5.770 -0.9549 -0.3524  2.8462
10115TIP3    H251761   5.784   2.743   5.695  0.8623 -0.9382  0.2375
10116TIP3   OH251762   0.488   5.074   6.033  0.2646  0.3466 -0.2098
10116TIP3    H151763   0.465   4.994   6.079  1.4270 -0.4555 -0.9865
10116TIP3    H251764   0.444   5.066   5.948  0.0677  0.7240 -0.1483
10117TIP3   OH251765   1.349   4.735  15.993 -0.1189 -0.7134 -0.6377
10117TIP3    H151766   1.371   4.828  15.997 -0.0573 -0.7274 -0.6497
10117TIP3    H251767   1.333   4.718  15.900  0.6458 -0.8934 -0.7383
10118TIP3   OH251768   6.206   2.055  16.097  0.2681  0.9762  0.1594
10118TIP3    H151769   6.266   2.106  16.043 -0.1027  0.3883 -0.8364
10118TIP3    H251770   6.241   2.063  16.186  1.7511  0.7560 -0.3669
10119TIP3   OH251771   5.203   3.458  11.954  0.4069  0.1506 -0.2268
10119TIP3    H151772   5.134   3.525  11.953 -1.7083 -1.8091  1.7403
10119TIP3    H251773   5.264   3.488  12.021 -0.6317  0.0650  0.7912
10120TIP3   OH251774   2.010   3.978   2.723 -0.3756 -0.1149  0.4727
10120TIP3    H151775   2.101   3.960   2.745 -1.3842 -5.0686  1.9075
10120TIP3    H251776   1.996   3.932   2.640 -1.9516 -1.1989  1.2798
10121TIP3   OH251777   4.875   4.221   5.604  0.4468 -0.2992 -0.0039
10121TIP3    H151778   4.969   4.216   5.586  0.5279 -0.2735  0.4036
10121TIP3    H251779   4.868   4.282   5.677  0.1807 -0.8278  0.4223
10122TIP3   OH251780   1.994   2.409   5.932  0.2475  0.2687  0.1237
10122TIP3    H151781   1.936   2.380   6.003 -0.7050  0.6971 -0.4594
10122TIP3    H251782   1.939   2.464   5.877  1.3752  1.1696 -0.1372
10123TIP3   OH251783   3.165   3.618  10.863 -0.1962  0.6017  0.1083
10123TIP3    H151784   3.152   3.615  10.768 -0.2256  0.8876  0.1035
10123TIP3    H251785   3.107   3.550  10.897 -0.0281  0.3528 -0.0951
10124TIP3   OH251786   2.332   0.282  15.447  0.2334  0.3447 -0.0231
10124TIP3    H151787   2.421   0.290  15.413  0.2258  0.4899 -0.0086
10124TIP3    H251788   2.307   0.192  15.426 -0.4561  0.9565 -2.0892
10125TIP3   OH251789   6.780   3.983   6.259  0.3485  0.4349 -0.4047
10125TIP3    H151790   6.817   3.912   6.311  0.8297 -0.6488 -2.1357
10125TIP3    H251791   6.814   4.063   6.299  1.1431 -0.3732  0.5829
10126TIP3   OH251792   2.563   5.116   2.038  0.1446 -0.0865  0.0566
10126TIP3    H151793   2.544   5.208   2.059  1.9909  0.3923 -0.2277
10126TIP3    H251794   2.551   5.069   2.121 -3.6290 -0.1724 -0.3425
10127TIP3   OH251795   1.630   3.661  11.594 -0.2908 -0.1932 -0.6152
10127TIP3    H151796   1.637   3.679  11.500 -1.4882 -1.4764 -0.9805
10127TIP3    H251797   1.664   3.572  11.604  1.5129  0.5699  0.4733
10128TIP3   OH251798   1.974   2.833   2.972 -0.3020  0.7261  0.8006
10128TIP3    H151799   2.038   2.777   2.926 -0.1057  1.2264  0.4539
10128TIP3    H251800   1.969   2.912   2.918  0.9188  1.8968  2.3298
10129TIP3   OH251801   2.479   3.466   5.277  0.6479 -0.5646  0.1244
10129TIP3    H151802   2.573   3.484   5.276  1.1514 -2.8580  0.3480
10129TIP3    H251803   2.453   3.483   5.368  0.7356  0.4957 -0.0391
10130TIP3   OH251804   6.334   6.621   5.986  0.3148 -0.2774 -0.0184
10130TIP3    H151805   6.427   6.628   5.964  0.3300  0.4197  0.2431
10130TIP3    H251806   6.333   6.599   6.079  0.2188  1.4176  0.4110
10131TIP3   OH251807   5.450   2.692  13.387 -0.6800 -0.1870 -0.8704
10131TIP3    H151808   5.458   2.714  13.295  1.3213 -0.0420 -0.7110
10131TIP3    H251809   5.389   2.618  13.389  0.7345 -1.4737 -2.5351
10132TIP3   OH251810   2.612   6.349   5.585  0.7652 -0.1689 -0.3356
10132TIP3    H151811   2.637   6.407   5.513  0.8308  0.6542  0.3311
10132TIP3    H251812   2.545   6.398   5.633  0.2084 -1.0041 -0.2440
10133TIP3   OH251813   4.169   6.087  16.150 -0.4550 -0.1079 -0.2080
10133TIP3    H151814   4.174   6.005  16.199 -1.7344 -0.2114 -0.2231
10133TIP3    H251815   4.189   6.155  16.214  1.3541 -0.4394 -0.3547
10134TIP3   OH251816   3.625   6.144   1.519  0.6029 -0.0957 -0.5163
10134TIP3    H151817   3.680   6.074   1.553  0.6939 -0.5628 -1.5765
10134TIP3    H251818   3.598   6.193   1.596  1.1162 -0.8746  0.1761
10135TIP3   OH251819   0.603   4.844   2.803 -0.4153 -0.0642 -0.3839
10135TIP3    H151820   0.608   4.826   2.897 -2.8757 -0.8633 -0.3320
10135TIP3    H251821   0.671   4.789   2.764  0.1413 -0.2825  0.8536
10136TIP3   OH251822   0.807   3.839  12.959  0.5270  0.2332  0.4596
10136TIP3    H151823   0.793   3.841  12.865 -0.0136  2.0372  0.5348
10136TIP3    H251824   0.892   3.881  12.972  0.6969 -0.1955  0.7656
10137TIP3   OH251825   0.352   2.263   1.056  0.2006  0.0947 -0.4250
10137TIP3    H151826   0.347   2.202   0.982  0.6602 -1.3022  0.6474
10137TIP3    H251827   0.432   2.238   1.102  0.2722  1.3695  0.1963
10138TIP3   OH251828   6.634   1.433  14.647  0.2534  0.5475 -0.0359
10138TIP3    H151829   6.599   1.346  14.629 -2.1652  0.9693  1.9986
10138TIP3    H251830   6.613   1.484  14.569 -3.3205  0.5643  0.7503
10139TIP3   OH251831   4.783   5.743   3.649 -0.1295  0.6299 -0.4693
10139TIP3    H151832   4.748   5.819   3.695  2.8923  2.6253 -1.1269
10139TIP3    H251833   4.869   5.729   3.688 -0.2280 -1.9490 -1.0068
10140TIP3   OH251834   2.027   5.730   4.469  0.0112  0.0174 -0.4658
10140TIP3    H151835   1.945   5.694   4.504 -0.5176  0.0884 -1.5778
10140TIP3    H251836   2.001   5.773   4.388  0.9744  1.0970 -0.2285
10141TIP3   OH251837   0.523   1.072   0.410  0.1162  0.0981  0.0912
10141TIP3    H151838   0.501   0.981   0.389  0.8606  0.1494 -1.0290
10141TIP3    H251839   0.592   1.066   0.476  0.6736 -0.1757 -0.5055
10142TIP3   OH251840   5.809   3.726  14.777  0.1485  0.3931 -0.2881
10142TIP3    H151841   5.774   3.750  14.863  0.2932  1.2192 -0.4516
10142TIP3    H251842   5.841   3.636  14.788 -1.8299 -0.3352 -0.0802
10143TIP3   OH251843   0.939   5.014   5.387  0.3913  0.0020 -0.8396
10143TIP3    H151844   0.911   5.101   5.414 -0.2767  0.2631 -2.3016
10143TIP3    H251845   0.939   4.963   5.468  0.0001  1.1331 -0.0958
10144TIP3   OH251846   4.914   5.775   5.337  0.0624 -0.5973  0.8075
10144TIP3    H151847   4.926   5.826   5.417  0.8668 -1.5357  1.3072
10144TIP3    H251848   5.000   5.736   5.320 -0.7121 -2.4594  0.9211
10145TIP3   OH251849   3.299   2.963  16.380  0.5071  0.5873  0.1622
10145TIP3    H151850   3.334   3.002  16.300  0.2742  2.2455  0.8295
10145TIP3    H251851   3.375   2.946  16.434  0.5658  0.5800  0.0776
10146TIP3   OH251852   3.783   2.621   1.403  0.0511  0.3408  0.1742
10146TIP3    H151853   3.731   2.592   1.477  1.6751 -1.6535  0.6081
10146TIP3    H251854   3.850   2.677   1.441  2.7168 -2.9744  0.8346
10147TIP3   OH251855   3.206   3.821   0.665 -0.9720 -0.1468 -0.0270
10147TIP3    H151856   3.207   3.816   0.760 -1.2299  2.0010  0.1402
10147TIP3    H251857   3.200   3.915   0.646 -0.0537 -0.4687 -2.1759
10148TIP3   OH251858   5.833   1.430   1.180  0.4175  0.2057 -0.0989
10148TIP3    H151859   5.835   1.526   1.174 -3.0410  0.3550 -0.9018
10148TIP3    H251860   5.807   1.413   1.271  2.2118 -0.1105  0.4078
10149TIP3   OH251861   2.022   0.512   5.906  0.1629  0.3704 -0.2327
10149TIP3    H151862   2.065   0.429   5.924  0.0356  0.2551 -0.4567
10149TIP3    H251863   2.086   0.578   5.930  0.2630  0.2074 -0.0478
10150TIP3   OH251864   5.164   1.990   3.696  0.2492  0.1706 -0.6919
10150TIP3    H151865   5.130   1.929   3.762  2.0795  0.9321  1.0484
10150TIP3    H251866   5.091   2.048   3.678 -0.9981 -1.4450 -1.0962
10151TIP3   OH251867   4.816   3.894   5.779  0.3873 -0.0813  0.0913
10151TIP3    H151868   4.862   3.920   5.699  1.5029 -1.9648  0.0628
10151TIP3    H251869   4.748   3.961   5.790  1.2452  1.1307 -1.5102
10152TIP3   OH251870   0.136   0.866  16.509  0.0408  0.2942 -0.0769
10152TIP3    H151871   0.160   0.926  16.438 -0.4774  1.7982  0.9781
10152TIP3    H251872   0.210   0.869  16.569 -0.4460  0.7125  0.5079
10153TIP3   OH251873   3.205   5.610  14.012  1.0929  0.1989 -0.2584
10153TIP3    H151874   3.297   5.593  13.991  1.4996  3.0079 -1.1373
10153TIP3    H251875   3.158   5.599  13.929  0.6507 -0.8121  0.1007
10154TIP3   OH251876   5.491   1.067   1.368 -0.0272 -0.2990  0.0346
10154TIP3    H151877   5.526   1.156   1.363  0.4110 -0.3965  1.0167
10154TIP3    H251878   5.553   1.014   1.319 -0.8367  0.0710 -1.4298
10155TIP3   OH251879   6.213   5.685  11.516  0.6102 -0.2539 -0.4287
10155TIP3    H151880   6.184   5.762  11.468  1.6030  0.1931 -0.3200
10155TIP3    H251881   6.172   5.693  11.602  0.7576  0.1742 -0.4002
10156TIP3   OH251882   1.274   2.755  15.847 -0.1222 -0.1425 -0.0726
10156TIP3    H151883   1.272   2.801  15.931  0.2580 -0.3230  0.0399
10156TIP3    H251884   1.367   2.748  15.826 -0.2163 -0.0764 -0.5245
10157TIP3   OH251885   2.198   1.957   0.870 -0.2428  0.2308 -0.1775
10157TIP3    H151886   2.112   1.931   0.902 -0.3817  0.4324 -0.3818
10157TIP3    H251887   2.236   1.877   0.834 -0.4687  0.2049 -0.3620
10158TIP3   OH251888   3.674   5.188  13.014  0.2547  0.1779 -0.3013
10158TIP3    H151889   3.578   5.183  13.007  0.2168  1.4510 -1.0754
10158TIP3    H251890   3.696   5.273  12.976  1.8916 -0.9963 -2.1181
10159TIP3   OH251891   3.519   6.049  15.465 -0.0558 -0.3014 -0.9487
10159TIP3    H151892   3.463   6.075  15.391 -0.0743  1.5815 -0.3259
10159TIP3    H251893   3.464   6.063  15.542  1.0434  0.9817 -0.3693
10160TIP3   OH251894   4.450   3.204  11.917 -0.2738 -0.0932 -0.1620
10160TIP3    H151895   4.535   3.174  11.948 -0.5394 -1.4944 -0.7403
10160TIP3    H251896   4.459   3.204  11.821 -0.6053  0.7350 -0.1999
10161TIP3   OH251897   6.083   3.452   2.102  0.5831  0.1044 -0.1221
10161TIP3    H151898   6.082   3.357   2.095 -0.5941  0.1911 -1.6837
10161TIP3    H251899   6.038   3.471   2.185  0.6271 -0.6956  0.0860
10162TIP3   OH251900   6.078   2.222  11.929 -0.4346  0.1669  0.6172
10162TIP3    H151901   6.034   2.145  11.966  0.3865  0.1876  1.6820
10162TIP3    H251902   6.059   2.293  11.990  0.3617  0.3746  0.6337
10163TIP3   OH251903   5.715   2.719  12.921  0.2342 -0.2984  0.1265
10163TIP3    H151904   5.678   2.651  12.976 -0.3125 -0.0117  0.1241
10163TIP3    H251905   5.709   2.685  12.832  0.0423 -0.2848  0.1341
10164TIP3   OH251906   5.642   3.710  17.009  0.6554  0.0881  0.5173
10164TIP3    H151907   5.714   3.758  17.050  1.7847 -0.9162 -0.2271
10164TIP3    H251908   5.632   3.631  17.062  1.3829 -0.6804 -0.4526
10165TIP3   OH251909   1.215   3.082  11.502  0.2106 -0.4408 -0.0477
10165TIP3    H151910   1.121   3.080  11.484  0.3937  0.2099 -1.1680
10165TIP3    H251911   1.235   2.994  11.536 -0.3426 -1.4985 -2.2766
10166TIP3   OH251912   2.832   1.149  11.325  0.2975 -1.2037  0.2773
10166TIP3    H151913   2.922   1.147  11.358 -0.0040  1.3711  1.5339
10166TIP3    H251914   2.841   1.138  11.230  1.9942 -0.4892  0.3183
10167TIP3   OH251915   4.255   5.850  14.357  0.0425  0.2584 -0.1591
10167TIP3    H151916   4.220   5.936  14.383 -0.5142 -0.0840  0.2552
10167TIP3    H251917   4.186   5.788  14.382  0.9229 -0.4316  0.6341
10168TIP3   OH251918   0.756   2.506   1.606 -0.0224 -0.1162 -0.4172
10168TIP3    H151919   0.694   2.573   1.635  1.3072  1.6700 -1.4784
10168TIP3    H251920   0.715   2.466   1.530 -0.8884 -0.6285  0.3030
10169TIP3   OH251921   4.621   5.050  15.138 -0.2103  0.6329  0.2980
10169TIP3    H151922   4.526   5.055  15.153 -0.4120 -1.3421 -0.0689
10169TIP3    H251923   4.630   5.053  15.043  0.2870  2.8018  0.3696
10170TIP3   OH251924   0.894   2.201  13.660  0.2201 -0.0575 -0.2755
10170TIP3    H151925   0.967   2.241  13.708 -0.4840  0.2492  0.5696
10170TIP3    H251926   0.878   2.118  13.705  1.1832 -0.9972 -1.5624
10171TIP3   OH251927   1.442   4.726  11.516  0.0271 -0.6845  0.1014
10171TIP3    H151928   1.531   4.706  11.546 -0.6179 -1.4243  1.6272
10171TIP3    H251929   1.449   4.813  11.477  1.6960 -1.3233 -1.1318
10172TIP3   OH251930   0.805   5.308  11.765  0.1044 -0.2409 -0.1737
10172TIP3    H151931   0.727   5.260  11.793 -2.1038  2.8169 -0.5580
10172TIP3    H251932   0.844   5.341  11.846 -1.1108  1.1160 -0.0895
10173TIP3   OH251933   4.212   6.539  15.365 -0.1526  0.3839  0.9205
10173TIP3    H151934   4.256   6.458  15.390 -1.1712  0.0052  1.5139
10173TIP3    H251935   4.126   6.512  15.334  1.1122  0.7143 -3.7197
10174TIP3   OH251936   1.925   4.300  15.952 -0.6343  0.0475  0.1819
10174TIP3    H151937   1.961   4.332  15.869  0.2864 -1.8688 -0.2042
10174TIP3    H251938   1.840   4.344  15.959 -0.3087  0.9885 -1.2815
10175TIP3   OH251939   0.475   3.695   5.309 -0.8590  0.3270 -0.2084
10175TIP3    H151940   0.453   3.686   5.216 -2.5775 -0.0527  0.1911
10175TIP3    H251941   0.405   3.751   5.344  0.9063  2.2338  0.4798
10176TIP3   OH251942   6.633   4.850  16.168  0.3794 -0.7141 -0.0617
10176TIP3    H151943   6.653   4.843  16.261 -2.0421  0.9609  0.6643
10176TIP3    H251944   6.562   4.787  16.154  0.6920 -0.9160 -0.7876
10177TIP3   OH251945   6.692   5.731   1.713  0.5979  0.3796  0.3579
10177TIP3    H151946   6.759   5.795   1.734  1.5149 -0.5126  0.2282
10177TIP3    H251947   6.661   5.756   1.625  1.1389  0.4808  0.1941
10178TIP3   OH251948   6.665   3.042  14.394  0.5562  0.0845 -0.2054
10178TIP3    H151949   6.631   3.076  14.312  0.5435  0.9692  0.1482
10178TIP3    H251950   6.594   2.991  14.431  0.6088 -0.4327 -0.8017
10179TIP3   OH251951   0.398   5.180  13.956  0.4867 -0.0208  0.0046
10179TIP3    H151952   0.369   5.099  13.997 -1.0757  0.7296  0.4535
10179TIP3    H251953   0.319   5.218  13.918  1.1854  1.3062 -0.1930
10180TIP3   OH251954   2.723   4.914   0.340 -0.0812  0.3009  0.2413
10180TIP3    H151955   2.760   4.845   0.284  0.0073  1.5225 -1.2626
10180TIP3    H251956   2.737   4.882   0.429  2.0711 -0.5831 -0.3396
10181TIP3   OH251957   3.750   1.817  14.980 -0.5234  0.4215 -0.4209
10181TIP3    H151958   3.752   1.810  15.076 -0.4946  0.5795 -0.4087
10181TIP3    H251959   3.779   1.732  14.949 -0.2995  0.4471 -0.2869
10182TIP3   OH251960   4.759   4.315  13.288  0.4036 -0.4845 -0.8124
10182TIP3    H151961   4.699   4.295  13.360  1.2779 -0.5003 -0.0779
10182TIP3    H251962   4.710   4.376  13.233  0.4949  1.2403  0.9215
10183TIP3   OH251963   6.084   3.434  16.146 -0.0316 -0.6456 -0.0794
10183TIP3    H151964   6.104   3.432  16.240 -0.5936 -0.4623  0.0470
10183TIP3    H251965   6.126   3.355  16.111 -1.6310 -1.9168  0.7106
10184TIP3   OH251966   6.463   3.162   2.649  0.6724  0.3049 -0.3283
10184TIP3    H151967   6.450   3.120   2.564  1.0203  1.2911 -0.8876
10184TIP3    H251968   6.377   3.196   2.673  0.9619  1.7888 -1.2711
10185TIP3   OH251969   3.043   3.569  11.763 -0.1979 -0.2966  0.5502
10185TIP3    H151970   3.001   3.493  11.803 -2.0637 -0.3374 -1.3075
10185TIP3    H251971   2.985   3.594  11.691  2.7119  0.0341 -1.8981
10186TIP3   OH251972   2.064   5.621   3.334 -0.1141 -0.1579 -0.4922
10186TIP3    H151973   2.089   5.714   3.338  0.2936 -0.3073  1.4081
10186TIP3    H251974   1.968   5.623   3.324  0.0622  0.4213 -2.5020
10187TIP3   OH251975   3.631   5.526  15.337  0.3191 -0.1747  0.0521
10187TIP3    H151976   3.611   5.603  15.390 -1.9461 -0.9781  0.4564
10187TIP3    H251977   3.689   5.559  15.268  1.6272  1.3117  1.7711
10188TIP3   OH251978   0.873   3.874   4.742 -0.0189  0.1134 -0.2796
10188TIP3    H151979   0.919   3.873   4.658 -1.5422 -3.0947 -1.2352
10188TIP3    H251980   0.929   3.826   4.802  0.6999  1.7234  0.4063
10189TIP3   OH251981   0.463   2.249   5.180  0.2920 -0.1642 -0.1309
10189TIP3    H151982   0.414   2.170   5.203  1.0192 -0.3021  1.0746
10189TIP3    H251983   0.513   2.269   5.259 -0.3086  1.8522 -0.2201
10190TIP3   OH251984   0.887   1.575   5.202 -0.2009 -0.6337  0.6408
10190TIP3    H151985   0.855   1.570   5.112 -1.6082  0.0030  1.0720
10190TIP3    H251986   0.889   1.484   5.232 -2.4433 -0.6681  0.8389
10191TIP3   OH251987   6.601   0.352   0.183  0.2291 -0.2401 -0.0654
10191TIP3    H151988   6.545   0.315   0.114  0.2226 -0.9422  0.3050
10191TIP3    H251989   6.541   0.367   0.256  0.3546 -0.1055  0.0087
10192TIP3   OH251990   2.106   4.210  13.167 -0.2539 -0.5666 -0.5583
10192TIP3    H151991   2.056   4.199  13.249  1.6630 -1.5384  0.5515
10192TIP3    H251992   2.105   4.123  13.127  0.3761 -0.5558 -0.6111
10193TIP3   OH251993   1.420   2.641   6.657 -0.2061  0.3581 -0.0179
10193TIP3    H151994   1.411   2.552   6.624  1.7458  0.0343  0.1999
10193TIP3    H251995   1.451   2.630   6.747  2.3036  1.1949 -0.6901
10194TIP3   OH251996   6.665   2.439  14.383  0.2962  0.4147 -0.4027
10194TIP3    H151997   6.662   2.503  14.454  1.3202 -0.8186  0.8244
10194TIP3    H251998   6.592   2.380  14.401  0.8310 -0.1611 -0.0965
10195TIP3   OH251999   6.278   6.319   6.349 -0.0061  0.5772  0.0141
10195TIP3    H152000   6.361   6.327   6.397 -0.4093  0.2154  0.7874
10195TIP3    H252001   6.276   6.227   6.320 -0.6081  0.2908  0.9066
10196TIP3   OH252002   5.623   4.228   0.542 -0.3208  0.6184 -0.0598
10196TIP3    H152003   5.650   4.138   0.524 -0.9752  0.0595  1.5533
10196TIP3    H252004   5.598   4.263   0.457  0.3153 -0.5938 -0.7700
10197TIP3   OH252005   3.838   3.404   1.297 -0.0032  0.1125 -0.9401
10197TIP3    H152006   3.765   3.436   1.350 -0.4630  0.6287 -1.8577
10197TIP3    H252007   3.801   3.391   1.210  0.3809 -2.1079 -0.8385
10198TIP3   OH252008   0.501   3.763  11.244  0.1843 -0.6387  0.0768
10198TIP3    H152009   0.594   3.771  11.223  0.2913 -1.8098  0.0739
10198TIP3    H252010   0.498   3.760  11.340 -0.0229  1.2530  0.1633
10199TIP3   OH252011   5.351   3.723   3.271 -0.0545 -0.9481 -0.3670
10199TIP3    H152012   5.283   3.748   3.209 -0.0267 -1.0402 -0.4348
10199TIP3    H252013   5.422   3.786   3.257 -1.5534  1.5365  2.2478
10200TIP3   OH252014   6.172   4.335   4.940  0.5654 -0.3645 -0.1052
10200TIP3    H152015   6.226   4.367   5.013 -0.6891  0.1565  0.6200
10200TIP3    H252016   6.226   4.350   4.863  1.7702 -0.5745  0.6722
10201TIP3   OH252017   1.041   6.463   1.226  0.0038 -0.3139  0.1708
10201TIP3    H152018   1.105   6.442   1.158 -1.6514  1.5799 -2.1739
10201TIP3    H252019   1.056   6.556   1.245 -2.6839  0.5583 -1.3883
10202TIP3   OH252020   1.069   2.827  10.427 -0.2045  0.4888 -0.5394
10202TIP3    H152021   1.152   2.798  10.463 -1.6461 -2.5688  0.6386
10202TIP3    H252022   1.041   2.755  10.369 -2.2039  1.2373 -0.5999
10203TIP3   OH252023   5.367   1.341  12.562 -0.4079  0.3646  0.1313
10203TIP3    H152024   5.371   1.409  12.495  1.6856  0.9140  0.7488
10203TIP3    H252025   5.381   1.387  12.644  0.1122 -0.6883  0.6558
10204TIP3   OH252026   3.824   0.087   2.409  0.0063 -0.5060  0.0381
10204TIP3    H152027   3.764   0.024   2.448 -0.4655 -1.2400 -1.7810
10204TIP3    H252028   3.911   0.051   2.427 -0.2051 -0.9830  0.1283
10205TIP3   OH252029   5.335   3.415   5.552 -0.4644  0.5753  0.0486
10205TIP3    H152030   5.324   3.399   5.646  2.6440  1.0124  0.5920
10205TIP3    H252031   5.422   3.379   5.532  0.0264  2.7159 -2.0793
10206TIP3   OH252032   1.227   0.038  16.923  1.0391 -0.6844  0.5714
10206TIP3    H152033   1.240  -0.030  16.857 -0.7075  0.3992 -0.9748
10206TIP3    H252034   1.141   0.019  16.961  1.3840 -0.4271  1.5106
10207TIP3   OH252035   4.919   2.643   3.938  0.4894  0.8467  0.1679
10207TIP3    H152036   4.856   2.710   3.911 -2.6778 -1.7255  0.4966
10207TIP3    H252037   4.916   2.644   4.034 -0.4933 -0.4510  0.1790
10208TIP3   OH252038   2.792   5.151  11.123 -0.1884 -0.4273  0.1159
10208TIP3    H152039   2.879   5.176  11.155 -1.0271  1.3224  1.2063
10208TIP3    H252040   2.805   5.130  11.031  1.5842 -1.4100  0.5516
10209TIP3   OH252041   4.424   6.508  10.939  0.3626  0.7526 -0.6069
10209TIP3    H152042   4.350   6.570  10.937  0.2290  0.8591  2.3821
10209TIP3    H252043   4.477   6.538  11.013  0.5686 -2.3410  0.6348
10210TIP3   OH252044   0.616   5.290  14.376  0.2934  0.0470  0.2656
10210TIP3    H152045   0.545   5.250  14.326  0.1335  1.0515 -0.3186
10210TIP3    H252046   0.696   5.255  14.337  0.1577 -1.5828  1.3259
10211TIP3   OH252047   2.838   1.494   4.920 -0.5682  0.1119  0.3476
10211TIP3    H152048   2.862   1.571   4.972 -0.8466 -0.2086  0.9617
10211TIP3    H252049   2.781   1.529   4.852  0.2111  0.6137 -0.0601
10212TIP3   OH252050   6.147   3.093  16.674  0.5569 -0.2824 -0.0391
10212TIP3    H152051   6.188   3.133  16.596  2.0212  0.1357  0.8968
10212TIP3    H252052   6.221   3.072  16.731 -0.4039 -1.8422  0.6696
10213TIP3   OH252053   1.976   4.627  11.704 -0.5604  0.4479  0.2532
10213TIP3    H152054   2.052   4.684  11.711 -1.3435  1.5043  0.3412
10213TIP3    H252055   1.992   4.558  11.769  0.1742  0.8174  0.4755
10214TIP3   OH252056   1.680   4.045   3.718  0.1714  0.2641 -0.3127
10214TIP3    H152057   1.744   3.979   3.744  1.0963  1.3889  0.3549
10214TIP3    H252058   1.619   4.050   3.791 -0.0111  0.0287 -0.4457
10215TIP3   OH252059   2.713   4.293  15.741  0.5692  0.0645  0.2870
10215TIP3    H152060   2.762   4.314  15.661 -2.1829  0.3894 -1.4638
10215TIP3    H252061   2.696   4.378  15.781  0.3789  0.0615  0.2129
10216TIP3   OH252062   4.418   1.396   4.570  0.6863 -0.0392 -0.2348
10216TIP3    H152063   4.403   1.452   4.494  0.4937  1.4440  0.8409
10216TIP3    H252064   4.511   1.408   4.591  0.2630  1.3054  1.0340
10217TIP3   OH252065   0.281   2.421   5.761  0.4998 -0.5487 -0.1592
10217TIP3    H152066   0.251   2.335   5.729 -0.2893 -0.3676  0.0581
10217TIP3    H252067   0.308   2.405   5.851 -0.3437 -0.4379  0.1240
10218TIP3   OH252068   0.563   4.765  14.930 -0.0220 -0.1244 -0.0601
10218TIP3    H152069   0.612   4.844  14.951 -0.7969  0.6122 -0.9153
10218TIP3    H252070   0.472   4.786  14.953 -0.1990 -0.8646 -0.0420
10219TIP3   OH252071   2.760   3.753   3.057 -0.0074  0.5671  0.2936
10219TIP3    H152072   2.807   3.827   3.019 -0.5430  1.0538  0.5514
10219TIP3    H252073   2.755   3.689   2.987  1.7108  0.1697  0.4955
10220TIP3   OH252074   5.216   4.834   1.628 -0.0853 -0.2954 -0.1846
10220TIP3    H152075   5.123   4.814   1.616 -0.0976 -0.8756  0.7751
10220TIP3    H252076   5.223   4.927   1.608 -0.5437 -0.6068 -1.9843
10221TIP3   OH252077   1.438   2.481  16.582 -0.1679 -0.5030 -0.3755
10221TIP3    H152078   1.441   2.576  16.588 -2.9253 -0.2191 -1.8521
10221TIP3    H252079   1.471   2.450  16.666 -0.1490  1.7805  0.5152
10222TIP3   OH252080   6.406   2.495   1.728  0.6612  0.5549 -0.1426
10222TIP3    H152081   6.357   2.432   1.782 -1.1889  2.2045  0.2547
10222TIP3    H252082   6.403   2.577   1.778  2.1510  1.2214 -1.0681
10223TIP3   OH252083   0.859   6.039  13.062  0.1031  0.5523 -0.9445
10223TIP3    H152084   0.911   6.070  13.136  0.1443 -1.8441  0.1340
10223TIP3    H252085   0.779   6.091  13.065  0.5744  1.2456  0.1159
10224TIP3   OH252086   4.464   4.586   5.920 -0.4836  0.3260 -0.3540
10224TIP3    H152087   4.380   4.631   5.922 -1.2812 -1.0764 -0.5703
10224TIP3    H252088   4.503   4.612   5.837 -1.0755  0.3685 -0.6227
10225TIP3   OH252089   1.770   6.602   0.274 -0.0082 -0.0308  0.1639
10225TIP3    H152090   1.731   6.579   0.190 -1.6833  0.5615  0.7248
10225TIP3    H252091   1.859   6.568   0.270  0.6051  1.6457 -2.5618
10226TIP3   OH252092   4.041   6.582   2.886  0.0158  0.1573  0.3862
10226TIP3    H152093   4.108   6.526   2.847 -0.7756 -0.7824  0.3242
10226TIP3    H252094   4.021   6.542   2.970 -1.0954 -0.1213  0.0173
10227TIP3   OH252095   2.108   0.205   1.037 -0.2554 -0.0167 -0.3256
10227TIP3    H152096   2.150   0.122   1.013  0.9934  0.2634  0.7415
10227TIP3    H252097   2.147   0.270   0.979 -0.3578  0.0028 -0.3723
10228TIP3   OH252098   6.185   0.148   0.507 -0.2773 -0.0906  0.1830
10228TIP3    H152099   6.250   0.092   0.465  0.1344  0.1921  0.4352
10228TIP3    H252100   6.216   0.237   0.492 -0.6520  0.0510  0.2300
10229TIP3   OH252101   6.525   5.717   0.044 -0.2122 -0.0981 -0.0802
10229TIP3    H152102   6.558   5.627   0.040 -0.8780 -0.3227 -0.8734
10229TIP3    H252103   6.566   5.754   0.121  0.3622 -0.9750  0.0520
10230TIP3   OH252104   3.091   6.434  14.328 -0.1622  0.5437 -0.1410
10230TIP3    H152105   3.028   6.497  14.364 -0.3742  0.0108  0.4457
10230TIP3    H252106   3.177   6.474  14.344 -0.1296 -0.3322  2.4553
10231TIP3   OH252107   6.664   1.474  14.904 -0.0075  0.0519 -0.2736
10231TIP3    H152108   6.669   1.500  14.812  0.3117  0.5795 -0.1150
10231TIP3    H252109   6.641   1.555  14.950 -0.6154 -0.3020  0.0664
10232TIP3   OH252110   2.972   4.853  13.767 -0.0827  0.5955 -0.1813
10232TIP3    H152111   2.951   4.813  13.852  2.4946  1.3871  0.9123
10232TIP3    H252112   3.018   4.784  13.719 -2.1248 -0.0772 -1.2912
10233TIP3   OH252113   1.330   3.923  14.047 -0.4173 -0.3740 -0.5607
10233TIP3    H152114   1.326   3.827  14.054  0.7366 -0.4683 -0.8582
10233TIP3    H252115   1.423   3.941  14.031 -0.5297  0.8372  0.0547
10234TIP3   OH252116   4.304   3.183  15.140  0.1895 -0.0307  0.3100
10234TIP3    H152117   4.227   3.183  15.197 -0.1805  0.8288 -0.1666
10234TIP3    H252118   4.293   3.261  15.085 -0.2946 -1.6702 -2.0665
10235TIP3   OH252119   1.211   4.747  13.802  0.1452 -0.0155 -0.2620
10235TIP3    H152120   1.185   4.835  13.827  4.2975  0.4661  3.5361
10235TIP3    H252121   1.164   4.690  13.863  0.1546 -0.1296 -0.3607
10236TIP3   OH252122   0.878   6.693   0.028  0.1833  0.0913 -0.4184
10236TIP3    H152123   0.799   6.748   0.034 -1.1734 -1.7744 -0.4319
10236TIP3    H252124   0.845   6.604   0.026  2.3484 -0.7694 -0.1136
10237TIP3   OH252125   1.838   2.515   2.888 -0.4340 -0.1543  0.1624
10237TIP3    H152126   1.824   2.484   2.977  1.4757 -2.1181 -0.1415
10237TIP3    H252127   1.930   2.541   2.886 -0.8716  1.4549 -0.8282
10238TIP3   OH252128   2.722   3.982   1.356  1.0638 -0.2026  0.4743
10238TIP3    H152129   2.795   3.965   1.416  0.5315 -1.9787  0.6727
10238TIP3    H252130   2.644   3.958   1.406  0.5150 -0.4821 -0.5050
10239TIP3   OH252131   0.052   4.987   0.573  0.4549 -0.7298  0.5097
10239TIP3    H152132   0.038   5.001   0.667 -1.9792 -0.2234  0.1447
10239TIP3    H252133   0.062   5.075   0.537  2.1031 -0.9545  0.3408
10240TIP3   OH252134   6.700   5.518  12.617  0.4001  0.1328  0.4021
10240TIP3    H152135   6.661   5.534  12.704  1.6134 -0.8035  1.1488
10240TIP3    H252136   6.766   5.586  12.608  2.0714 -1.2669  1.3910
10241TIP3   OH252137   3.665   2.164  13.992  0.2563  0.2518  0.3408
10241TIP3    H152138   3.753   2.168  13.955  1.0882 -2.3174  1.8348
10241TIP3    H252139   3.651   2.252  14.027  2.0299  0.8472 -0.3193
10242TIP3   OH252140   2.537   2.559  14.341 -0.3310  0.0607  0.0861
10242TIP3    H152141   2.611   2.593  14.292 -0.8891  0.9750 -0.1319
10242TIP3    H252142   2.467   2.622  14.327 -1.6482 -1.5456 -0.9819
10243TIP3   OH252143   6.587   3.798  12.618 -0.5820 -0.0119 -0.8835
10243TIP3    H152144   6.635   3.750  12.685 -2.0380  0.3647  0.4782
10243TIP3    H252145   6.633   3.881  12.611  0.7497 -0.7755 -1.8204
10244TIP3   OH252146   0.573   2.135  12.413 -0.4253  0.2112  0.2574
10244TIP3    H152147   0.571   2.052  12.365 -2.1482  0.3898 -0.0769
10244TIP3    H252148   0.480   2.159  12.421  0.0582  2.8666 -1.0398
10245TIP3   OH252149   2.972   5.484  13.135 -0.4134 -0.1315  0.1688
10245TIP3    H152150   2.947   5.520  13.220 -2.7781 -1.3138  0.0634
10245TIP3    H252151   2.923   5.402  13.128  1.2395 -1.0643 -1.5224
10246TIP3   OH252152   0.907   6.163   1.162  0.3166 -0.4234  0.2304
10246TIP3    H152153   0.950   6.084   1.129 -2.1003 -2.2399  1.1763
10246TIP3    H252154   0.881   6.211   1.084  1.2357 -0.8888 -0.3699
10247TIP3   OH252155   2.209   2.962  14.348  0.1275  0.0810  0.0177
10247TIP3    H152156   2.198   2.967  14.253  1.9347  1.1880 -0.1920
10247TIP3    H252157   2.257   3.042  14.371  1.0266 -0.8563  1.6344
10248TIP3   OH252158   6.199   4.202   3.478 -0.3643  0.2809 -0.1022
10248TIP3    H152159   6.263   4.271   3.461  0.0794  0.5158  2.2106
10248TIP3    H252160   6.243   4.144   3.541 -1.4330 -1.0884 -0.5743
10249TIP3   OH252161   6.352   1.577   2.586  0.2936 -0.4599  0.3069
10249TIP3    H152162   6.274   1.548   2.539  0.2645 -2.7378  1.6052
10249TIP3    H252163   6.426   1.549   2.532  0.2351 -0.0167 -0.0051
10250TIP3   OH252164   1.426   0.580   2.829  0.3487 -0.2600  0.2738
10250TIP3    H152165   1.416   0.604   2.737  1.1855 -0.0877  0.2234
10250TIP3    H252166   1.415   0.485   2.830  0.1826 -0.2456  0.0256
10251TIP3   OH252167   1.451   4.411   0.889 -0.0947 -0.5902  0.4688
10251TIP3    H152168   1.415   4.488   0.932 -1.4769 -0.2114 -1.2481
10251TIP3    H252169   1.428   4.338   0.947  0.6133  0.1870  1.7538
10252TIP3   OH252170   5.362   3.647   3.714 -0.2432  0.6786 -0.3460
10252TIP3    H152171   5.375   3.577   3.649  1.1299  0.8956 -0.3314
10252TIP3    H252172   5.445   3.650   3.762 -0.4238  2.0705 -0.1013
10253TIP3   OH252173   1.952   5.095   3.058 -0.4050  0.4025 -0.0371
10253TIP3    H152174   1.959   5.170   3.116 -3.5647  2.2125 -1.7113
10253TIP3    H252175   1.961   5.133   2.970 -1.0357 -1.3570 -0.8958
10254TIP3   OH252176   4.762   1.610  15.407 -0.0758  0.2651 -0.2880
10254TIP3    H152177   4.678   1.614  15.452  0.3835 -1.5432  0.8625
10254TIP3    H252178   4.819   1.668  15.457 -0.2405  0.2520 -0.0861
10255TIP3   OH252179   1.932   4.929  15.558 -0.1020  0.7580 -0.4543
10255TIP3    H152180   1.861   4.884  15.513 -0.7028 -0.7660  1.8616
10255TIP3    H252181   1.996   4.861  15.577  0.2749  1.3982  0.6695
10256TIP3   OH252182   1.595   1.945   1.079 -0.5237  0.1144  0.3771
10256TIP3    H152183   1.555   1.903   1.003  0.8750  1.5608 -1.2542
10256TIP3    H252184   1.644   1.875   1.122  1.9112 -0.0809 -2.3666
10257TIP3   OH252185   2.245   1.733  11.833 -0.2469  0.0061 -0.3447
10257TIP3    H152186   2.192   1.806  11.865 -0.7119 -1.3003  2.0775
10257TIP3    H252187   2.328   1.742  11.879 -0.8859 -1.8458  1.2890
10258TIP3   OH252188   2.618   1.510  12.764  0.2786  0.1577  0.0380
10258TIP3    H152189   2.526   1.515  12.787 -0.0414  2.1811 -1.5105
10258TIP3    H252190   2.653   1.597  12.782  1.3244  0.1304 -1.6491
10259TIP3   OH252191   3.670   3.266   2.867 -0.1157  0.2590 -0.0447
10259TIP3    H152192   3.654   3.329   2.797 -2.3028 -0.0988  0.0633
10259TIP3    H252193   3.698   3.186   2.821  0.7803  0.7154 -0.3132
10260TIP3   OH252194   4.795   1.457  12.993 -0.2386 -0.3049  0.3349
10260TIP3    H152195   4.700   1.458  12.985 -0.2679 -0.1368  0.7104
10260TIP3    H252196   4.817   1.546  13.021  0.0966 -0.0930 -0.5668
10261TIP3   OH252197   6.535   1.908  15.880  0.2297  0.3182  0.0373
10261TIP3    H152198   6.554   1.876  15.791 -0.7529 -0.3213  0.0481
10261TIP3    H252199   6.467   1.850  15.913  0.6112  0.5278  1.2406
10262TIP3   OH252200   0.525   3.676  12.318 -0.0673  0.2139 -0.0514
10262TIP3    H152201   0.568   3.759  12.298  0.1310 -0.1356 -1.1778
10262TIP3    H252202   0.552   3.655  12.407 -1.0556  1.9178  0.6999
10263TIP3   OH252203   3.057   3.215   1.601 -0.2272  0.0777 -0.4440
10263TIP3    H152204   3.001   3.191   1.675  0.1505  1.9359  0.5101
10263TIP3    H252205   3.125   3.270   1.639  0.5880  0.2299 -2.0324
10264TIP3   OH252206   0.882   2.203   3.755 -0.8415  0.0549 -0.6618
10264TIP3    H152207   0.953   2.268   3.757 -1.1017  0.3571 -1.0866
10264TIP3    H252208   0.812   2.243   3.806 -0.3930 -0.6267  0.5120
10265TIP3   OH252209   0.090   0.496   0.191 -0.5553 -0.3839  0.2276
10265TIP3    H152210  -0.001   0.465   0.191 -1.2881  1.6220  0.4003
10265TIP3    H252211   0.114   0.501   0.099 -0.2266 -1.8904  0.2032
10266TIP3   OH252212   6.596   5.881   0.776  0.3326  0.1228  0.0013
10266TIP3    H152213   6.592   5.789   0.801 -0.0472  0.2299  0.3497
10266TIP3    H252214   6.579   5.929   0.857  3.2688  0.5867  0.4546
10267TIP3   OH252215   5.397   4.445   2.286  0.4945 -0.1360  0.1719
10267TIP3    H152216   5.377   4.405   2.371 -0.5859  1.1903  0.6051
10267TIP3    H252217   5.318   4.431   2.234  1.2095 -1.0714 -0.6940
10268TIP3   OH252218   4.364   5.586   5.602  0.4994 -0.0142  0.8824
10268TIP3    H152219   4.397   5.670   5.568  0.3453 -0.1964  0.2773
10268TIP3    H252220   4.275   5.580   5.567  0.6471 -0.6114  0.6061
10269TIP3   OH252221   6.620   2.658   4.933 -0.1083  0.8565  0.4311
10269TIP3    H152222   6.655   2.705   4.858  1.3876  0.3969  0.7954
10269TIP3    H252223   6.697   2.620   4.975 -1.1523 -1.0180  0.7555
10270TIP3   OH252224   5.618   0.408  15.810 -0.4673 -0.3260 -0.5626
10270TIP3    H152225   5.593   0.402  15.903  0.2712 -1.4818 -0.4109
10270TIP3    H252226   5.560   0.474  15.774 -0.0985  0.8836  0.9456
10271TIP3   OH252227   1.563   2.500   4.158  0.0928  0.1596 -0.3392
10271TIP3    H152228   1.472   2.525   4.147  0.0112  0.6784  1.2677
10271TIP3    H252229   1.611   2.561   4.102 -0.3455  2.0702  1.2038
10272TIP3   OH252230   6.586   1.418   5.010 -0.1387 -0.5076 -0.0323
10272TIP3    H152231   6.520   1.350   5.026  0.6160 -1.2595 -0.0233
10272TIP3    H252232   6.579   1.477   5.084  1.2238 -2.2501  1.5999
10273TIP3   OH252233   0.410   4.561   1.359 -0.1818 -0.2964 -0.3291
10273TIP3    H152234   0.335   4.621   1.354  0.8398  1.1878  1.0885
10273TIP3    H252235   0.391   4.506   1.435  0.7858  1.0725  0.9626
10274TIP3   OH252236   5.720   0.464   3.580 -0.2664  0.0622  0.0186
10274TIP3    H152237   5.755   0.408   3.649  1.1884  2.4848  1.3838
10274TIP3    H252238   5.629   0.480   3.606 -0.3338 -0.6658  0.2444
10275TIP3   OH252239   1.759   1.955   2.319 -0.6096  0.1108 -0.0922
10275TIP3    H152240   1.676   1.995   2.346 -0.3210  1.0192 -0.5026
10275TIP3    H252241   1.821   2.028   2.318 -0.1394 -0.2849 -1.1578
10276TIP3   OH252242   4.255   6.084   2.380 -0.1889  0.2027 -0.5173
10276TIP3    H152243   4.188   6.127   2.327 -0.5206 -0.5533 -0.7413
10276TIP3    H252244   4.331   6.078   2.321 -0.1879  0.3594 -0.5317
10277TIP3   OH252245   5.376   0.566   5.937  0.1452 -0.6523 -0.1386
10277TIP3    H152246   5.330   0.632   5.989  0.6888 -1.1688  1.0422
10277TIP3    H252247   5.351   0.483   5.976 -0.2346 -1.1389 -1.3767
10278TIP3   OH252248   0.375   6.001   0.330 -0.4810  0.1033 -0.2338
10278TIP3    H152249   0.433   5.969   0.261 -2.3229  0.5811 -2.1163
10278TIP3    H252250   0.423   6.072   0.372  0.4337  0.2310 -1.4602
10279TIP3   OH252251   2.918   3.929   0.936  0.4430 -0.1240  0.1639
10279TIP3    H152252   2.898   4.015   0.900  0.1324 -1.0815 -2.1535
10279TIP3    H252253   3.013   3.920   0.924  0.2612 -0.6737 -1.1244
10280TIP3   OH252254   2.150   5.212   4.971  0.2240 -0.0583 -0.0637
10280TIP3    H152255   2.098   5.136   4.943 -1.1641  0.6449  0.5188
10280TIP3    H252256   2.175   5.193   5.061  0.8977 -0.3406 -0.3036
10281TIP3   OH252257   3.826   5.993   0.773 -0.6684  0.6465  0.3356
10281TIP3    H152258   3.837   5.903   0.741 -0.1891  0.9956 -0.4979
10281TIP3    H252259   3.776   6.037   0.704  0.2159  1.3653  0.1439
10282TIP3   OH252260   4.985   1.188  15.217 -0.7139  0.3497  0.6898
10282TIP3    H152261   4.953   1.100  15.233 -2.4421  0.9692  0.9410
10282TIP3    H252262   5.029   1.183  15.132 -0.1838 -0.8839  1.0299
10283TIP3   OH252263   0.009   6.000  12.675  0.2449 -0.0357  0.7284
10283TIP3    H152264   0.041   5.932  12.734  1.3463 -0.4499 -0.3169
10283TIP3    H252265  -0.064   6.040  12.723 -1.2036 -2.6692  0.9417
10284TIP3   OH252266   2.350   3.520  13.909 -0.6789 -0.1211 -0.4784
10284TIP3    H152267   2.317   3.441  13.866  0.0403 -0.2150 -0.8686
10284TIP3    H252268   2.401   3.565  13.841 -0.3514  0.2317 -0.0042
10285TIP3   OH252269   1.688   2.051   5.983  0.2265 -0.0033 -0.0073
10285TIP3    H152270   1.629   1.979   6.004 -1.0150  1.0987  0.3825
10285TIP3    H252271   1.773   2.023   6.019 -0.8812 -0.0005  2.9424
10286TIP3   OH252272   6.211   0.811  10.483  0.5817 -0.3861  0.3705
10286TIP3    H152273   6.243   0.734  10.530 -1.6003 -1.1339  0.7430
10286TIP3    H252274   6.253   0.806  10.398  0.2897 -2.1793  0.2872
10287TIP3   OH252275   3.860   2.482  16.884 -0.1540 -0.3862  0.1297
10287TIP3    H152276   3.873   2.391  16.856 -0.7544 -0.1175 -1.0766
10287TIP3    H252277   3.769   2.485  16.915 -0.2545 -0.1088 -0.1926
10288TIP3   OH252278   3.666   1.605   1.839  0.1569  0.3185 -0.2980
10288TIP3    H152279   3.644   1.615   1.932 -0.5129  0.2713 -0.4425
10288TIP3    H252280   3.581   1.604   1.795  0.1737 -3.6001 -0.5700
10289TIP3   OH252281   2.319   0.012   3.819 -0.0727 -0.7137 -0.0457
10289TIP3    H152282   2.366  -0.034   3.889  0.2894 -2.8717 -1.6027
10289TIP3    H252283   2.383   0.074   3.785 -0.5728  1.1015  2.1085
10290TIP3   OH252284   1.521   5.888   0.451  0.0751  0.6109  0.0475
10290TIP3    H152285   1.552   5.948   0.383  1.4766  1.3809  1.3263
10290TIP3    H252286   1.517   5.941   0.530 -0.6379 -0.5047  0.7879
10291TIP3   OH252287   5.177   1.503  12.063  0.1652 -0.0174 -0.3289
10291TIP3    H152288   5.256   1.454  12.038 -0.5964 -0.8579 -1.1776
10291TIP3    H252289   5.206   1.562  12.132  1.7676  0.4182 -1.3295
10292TIP3   OH252290   0.303   0.966   1.773 -0.4563  0.2193  0.2121
10292TIP3    H152291   0.307   0.874   1.748  0.7217  0.2587  0.2198
10292TIP3    H252292   0.382   0.981   1.823 -2.2555  0.3830  3.2494
10293TIP3   OH252293   5.436   5.004  15.795  0.0473  0.1620 -0.2546
10293TIP3    H152294   5.454   4.922  15.841 -1.1540  0.2482  0.4153
10293TIP3    H252295   5.442   4.981  15.702  2.3832 -0.0472 -0.1307
10294TIP3   OH252296   2.208   3.602   4.313 -0.3723  0.2067  0.3874
10294TIP3    H152297   2.241   3.609   4.402  1.5583 -0.5065 -0.2374
10294TIP3    H252298   2.133   3.543   4.320  1.5423 -2.3032  1.1597
10295TIP3   OH252299   3.327   5.081   3.789 -0.1324  0.4494  0.7280
10295TIP3    H152300   3.316   5.175   3.804  0.9849  0.2970  2.8671
10295TIP3    H252301   3.422   5.068   3.787 -0.2641 -0.6703  0.8134
10296TIP3   OH252302   1.982   6.194  15.608  0.4862 -0.1582 -0.2241
10296TIP3    H152303   1.922   6.132  15.649  2.7595 -2.2128  0.2227
10296TIP3    H252304   1.996   6.261  15.675 -1.0408  0.2057 -0.2390
10297TIP3   OH252305   3.161   4.717   3.005 -0.4288 -0.1143 -0.3301
10297TIP3    H152306   3.109   4.650   3.049 -0.4845  0.0848 -0.0922
10297TIP3    H252307   3.126   4.719   2.916 -0.8799  0.0727 -0.1498
10298TIP3   OH252308   0.905   1.190  16.760  0.6782 -0.4886 -0.4553
10298TIP3    H152309   0.815   1.215  16.739  1.0984  0.5995 -1.0799
10298TIP3    H252310   0.948   1.181  16.674  1.4939  0.3234 -0.1503
10299TIP3   OH252311   1.208   3.292  12.385  0.1243  0.2731 -0.0594
10299TIP3    H152312   1.240   3.331  12.304 -0.9349 -1.4283 -1.3710
10299TIP3    H252313   1.120   3.260  12.364  0.4826 -1.7893  1.1959
10300TIP3   OH252314   6.294   6.025   6.288 -0.1639 -0.3015  0.3935
10300TIP3    H152315   6.365   5.962   6.274  1.6200  0.8883  3.0540
10300TIP3    H252316   6.235   5.982   6.349  0.0356 -0.1039  0.7276
10301TIP3   OH252317   6.292   2.398  14.615 -0.0828 -0.4996 -0.4696
10301TIP3    H152318   6.348   2.444  14.677  0.3901 -1.3693 -0.2429
10301TIP3    H252319   6.350   2.340  14.567 -0.7060 -1.0424 -0.5871
10302TIP3   OH252320   3.642   3.801   4.074  0.0883 -0.2068  0.6176
10302TIP3    H152321   3.687   3.721   4.046 -0.6457 -1.2110  2.1389
10302TIP3    H252322   3.706   3.870   4.060  0.7756 -1.0584 -0.6849
10303TIP3   OH252323   1.954   2.307  12.804 -0.0965 -0.2730 -0.0330
10303TIP3    H152324   2.012   2.231  12.808  0.8649  0.4563  0.5036
10303TIP3    H252325   1.870   2.272  12.775  0.4903 -1.4355 -0.4060
10304TIP3   OH252326   4.253   6.404   1.014 -0.1703 -0.0591 -0.3402
10304TIP3    H152327   4.193   6.336   0.981  0.2739 -1.8563  2.2355
10304TIP3    H252328   4.305   6.429   0.938 -2.9484  0.3127 -2.2926
10305TIP3   OH252329   3.200   1.488  16.391  0.5050 -0.0281 -0.6526
10305TIP3    H152330   3.181   1.582  16.379 -2.0422 -0.5431 -1.3566
10305TIP3    H252331   3.286   1.476  16.351  0.9001  2.0082 -0.5462
10306TIP3   OH252332   3.737   3.816  14.339 -0.3585 -0.3557 -0.3281
10306TIP3    H152333   3.646   3.804  14.367  0.2270  0.8336  2.4973
10306TIP3    H252334   3.743   3.909  14.316  0.3103 -0.2285  0.3187
10307TIP3   OH252335   6.652   3.225  17.179  0.0985  0.0832  0.3799
10307TIP3    H152336   6.703   3.151  17.146 -0.1520 -0.4008  1.0472
10307TIP3    H252337   6.639   3.205  17.272 -1.4545  0.1066  0.1935
10308TIP3   OH252338   3.878   6.415   3.993 -0.3239  0.6949  0.2862
10308TIP3    H152339   3.822   6.417   3.915  0.1630  1.4315 -0.0573
10308TIP3    H252340   3.959   6.373   3.963  0.3445  2.1058  0.0476
10309TIP3   OH252341   1.031   5.860  12.859  0.1473  0.1106 -0.1803
10309TIP3    H152342   1.120   5.837  12.886 -0.4845 -0.1136  1.9158
10309TIP3    H252343   1.018   5.948  12.895 -0.8403 -0.3043  0.5044
10310TIP3   OH252344   4.098   2.685   5.366 -0.7253 -0.6876  0.3447
10310TIP3    H152345   4.014   2.687   5.321 -0.3745 -0.4616 -0.3028
10310TIP3    H252346   4.132   2.598   5.350 -0.3187 -0.4064 -0.3587
10311TIP3   OH252347   2.184   1.188  12.761 -0.5737  0.1705  0.3347
10311TIP3    H152348   2.091   1.182  12.785 -0.5077  0.5453  0.6893
10311TIP3    H252349   2.220   1.255  12.819 -0.5715  1.6460 -1.2575
10312TIP3   OH252350   0.849   4.180   5.230  0.4436  0.6216 -0.0310
10312TIP3    H152351   0.766   4.228   5.232 -1.1993 -1.8901 -2.1579
10312TIP3    H252352   0.887   4.201   5.145  0.3737 -0.7581 -0.4100
10313TIP3   OH252353   0.208   0.233   5.531 -0.2884  0.0820 -0.0501
10313TIP3    H152354   0.158   0.197   5.604 -2.1908 -0.0663 -1.3688
10313TIP3    H252355   0.228   0.158   5.476  0.2366  0.3399 -0.2165
10314TIP3   OH252356   6.668   4.342  12.785 -0.1561 -0.2106 -0.4362
10314TIP3    H152357   6.671   4.248  12.799 -2.9041 -0.3085 -0.1418
10314TIP3    H252358   6.675   4.380  12.872 -0.0024 -0.1501 -0.4727
10315TIP3   OH252359   1.922   0.417   2.471 -0.1599 -0.1210 -0.6397
10315TIP3    H152360   1.826   0.414   2.480 -0.0925 -1.3174 -0.1768
10315TIP3    H252361   1.940   0.371   2.389  0.1805 -2.9372  0.8802
10316TIP3   OH252362   5.346   5.366  17.217 -0.1497  0.6690 -0.3174
10316TIP3    H152363   5.269   5.360  17.274 -0.5440  4.2350 -0.2258
10316TIP3    H252364   5.318   5.325  17.135 -1.5529  0.4071  0.2585
10317TIP3   OH252365   1.152   6.037  16.575  0.7962  0.4538 -0.1610
10317TIP3    H152366   1.129   6.117  16.622  2.1267  1.1733 -0.7113
10317TIP3    H252367   1.156   6.063  16.483 -1.0116 -0.7678 -0.6421
10318TIP3   OH252368   4.377   4.120  12.042 -0.6170 -0.2117 -0.1791
10318TIP3    H152369   4.374   4.211  12.071 -0.6461 -0.3994  0.4261
10318TIP3    H252370   4.308   4.077  12.092 -0.0546 -0.7328  0.1653
10319TIP3   OH252371   5.889   6.506  16.490 -0.2161  0.3459  0.4052
10319TIP3    H152372   5.977   6.531  16.517  0.3882 -1.8453  0.6522
10319TIP3    H252373   5.839   6.588  16.493  0.9562  1.0694  3.4932
10320TIP3   OH252374   4.429   6.192  14.053  0.1314  0.0865 -0.1108
10320TIP3    H152375   4.515   6.183  14.095 -0.1539  0.2369  0.5144
10320TIP3    H252376   4.448   6.192  13.959  0.6002 -2.1957 -0.0559
10321TIP3   OH252377   3.261   0.638  16.173 -0.0518  0.4334  0.1778
10321TIP3    H152378   3.345   0.618  16.131 -1.2172 -0.6967 -1.7170
10321TIP3    H252379   3.241   0.727  16.143 -0.9267 -0.3960 -1.9015
10322TIP3   OH252380   4.254   0.281  12.189  0.2591  0.0053 -0.0698
10322TIP3    H152381   4.209   0.220  12.131  0.4699  1.3485 -1.7209
10322TIP3    H252382   4.190   0.301  12.257 -0.3886 -0.7547 -0.4366
10323TIP3   OH252383   3.917   3.965   4.294  0.0027  0.2441  0.3191
10323TIP3    H152384   3.993   4.007   4.335  0.6510  0.9383 -1.4998
10323TIP3    H252385   3.847   4.029   4.302 -0.3153 -0.2300  1.6271
10324TIP3   OH252386   5.978   4.631  13.624 -0.5694 -0.3847  0.4736
10324TIP3    H152387   5.959   4.654  13.533  1.1168 -5.0504 -1.3738
10324TIP3    H252388   6.055   4.683  13.647  0.1420 -0.5041 -1.5100
10325TIP3   OH252389   4.899   0.401   0.278 -0.0965 -0.4952  0.0990
10325TIP3    H152390   4.905   0.495   0.295  0.0200 -0.4553 -0.1548
10325TIP3    H252391   4.912   0.360   0.363 -1.5479 -0.2371  0.4722
10326TIP3   OH252392   0.909   2.602   4.942 -0.2885  0.1007  0.0231
10326TIP3    H152393   0.878   2.549   5.016 -2.3103  0.9108 -0.1828
10326TIP3    H252394   0.936   2.685   4.982  0.5938 -0.1882  0.0590
10327TIP3   OH252395   3.780   2.106   3.738  0.7334  0.1246 -0.1008
10327TIP3    H152396   3.737   2.124   3.822  0.7556 -0.8583  0.1360
10327TIP3    H252397   3.853   2.048   3.761  0.0881 -1.0531 -0.9171
10328TIP3   OH252398   4.944   1.685  14.329  0.0127 -0.7322  0.3471
10328TIP3    H152399   4.860   1.724  14.353 -1.0845 -2.9424  0.3200
10328TIP3    H252400   4.931   1.651  14.241  1.1391 -0.5611  0.0971
10329TIP3   OH252401   5.748   6.737  13.792 -0.1705 -0.2509 -0.3565
10329TIP3    H152402   5.714   6.678  13.859  1.2479  1.5228  2.0899
10329TIP3    H252403   5.830   6.696  13.764 -0.4045 -0.6406 -0.4765
10330TIP3   OH252404   2.962   3.581   2.484  0.2594 -0.0007  0.2149
10330TIP3    H152405   3.019   3.615   2.416 -0.9998  1.1765 -0.2936
10330TIP3    H252406   2.979   3.487   2.485  0.7152  0.0448 -1.3155
10331TIP3   OH252407   6.194   5.025  11.223  0.4301 -0.3957  0.1281
10331TIP3    H152408   6.115   5.049  11.176  0.4643  0.1088  0.3150
10331TIP3    H252409   6.164   5.004  11.312  0.7379  2.3527  1.0061
10332TIP3   OH252410   3.799   1.823   3.286 -0.8347  0.1684  0.0886
10332TIP3    H152411   3.836   1.859   3.367 -1.2379  0.4968  0.1327
10332TIP3    H252412   3.791   1.899   3.228 -2.8867  0.4335  0.6221
10333TIP3   OH252413   3.097   4.211  15.439  0.2253 -0.2743  0.2465
10333TIP3    H152414   3.125   4.119  15.436 -0.7691 -0.5682 -1.7507
10333TIP3    H252415   3.152   4.255  15.375 -1.8166 -0.2994 -1.6257
10334TIP3   OH252416   6.332   5.541   6.184 -0.3353  0.3978  0.0424
10334TIP3    H152417   6.387   5.525   6.261 -0.1572 -0.3246 -0.2221
10334TIP3    H252418   6.242   5.526   6.215 -0.2809  0.3231  0.1621
10335TIP3   OH252419   1.388   3.207  15.977  0.0575 -0.0538  0.2520
10335TIP3    H152420   1.307   3.207  16.029 -0.2644  0.8353 -0.2392
10335TIP3    H252421   1.442   3.274  16.017  0.1138  0.1094 -0.0984
10336TIP3   OH252422   4.530   6.378   6.173 -0.2779  0.2898  0.2374
10336TIP3    H152423   4.488   6.353   6.256 -1.4386  1.0763 -0.0799
10336TIP3    H252424   4.497   6.467   6.156  1.5183  0.9361 -0.0696
10337TIP3   OH252425   3.919   5.282   1.635 -0.6581  0.8979 -0.3238
10337TIP3    H152426   3.981   5.338   1.682 -1.3093 -0.2896  2.1338
10337TIP3    H252427   3.836   5.329   1.639 -1.0160  0.1951  0.9896
10338TIP3   OH252428   1.737   4.748   2.156  0.2869 -0.7495  0.5531
10338TIP3    H152429   1.711   4.821   2.102  1.0669 -0.5489  0.4338
10338TIP3    H252430   1.824   4.771   2.188  0.6240 -1.6941  0.3677
10339TIP3   OH252431   1.380   1.848   1.601 -0.1281 -0.0799 -0.2847
10339TIP3    H152432   1.459   1.892   1.572 -0.3164 -0.1246 -0.8687
10339TIP3    H252433   1.411   1.773   1.652  0.2151  1.2054  1.5229
10340TIP3   OH252434   2.667   1.769   1.796 -0.2157 -0.3425 -0.1326
10340TIP3    H152435   2.629   1.718   1.724 -0.9896 -0.3117  0.2563
10340TIP3    H252436   2.594   1.818   1.833 -0.0384 -1.1712  1.3685
10341TIP3   OH252437   1.980   0.138   5.576 -0.8386 -0.0842 -0.0798
10341TIP3    H152438   2.056   0.190   5.601 -0.4628 -0.9533  0.6380
10341TIP3    H252439   1.960   0.085   5.653 -1.2889 -0.9046 -0.7420
10342TIP3   OH252440   0.778   6.379  13.942  0.0107 -0.0507  0.6103
10342TIP3    H152441   0.813   6.291  13.955 -1.6816 -0.6816  1.2188
10342TIP3    H252442   0.789   6.422  14.027 -0.8605 -0.3508  0.8959
10343TIP3   OH252443   3.719   1.727   0.117  0.1397 -0.0494  0.2567
10343TIP3    H152444   3.706   1.677   0.037  0.1499 -0.9660  0.8219
10343TIP3    H252445   3.648   1.792   0.117  1.3376  1.3776 -1.5333
10344TIP3   OH252446   0.630   4.152   3.351 -0.4778 -0.3032 -0.3255
10344TIP3    H152447   0.610   4.074   3.403 -0.0301  0.2479  0.6992
10344TIP3    H252448   0.546   4.200   3.347 -0.5291 -0.3774 -0.1498
10345TIP3   OH252449   2.884   2.377   5.528  0.1714 -0.4224  0.0421
10345TIP3    H152450   2.874   2.282   5.527 -1.2537 -0.2921  0.1599
10345TIP3    H252451   2.871   2.402   5.619 -1.7940  0.0794 -0.3377
10346TIP3   OH252452   6.184   3.036  16.970 -0.3115  0.2102  0.2070
10346TIP3    H152453   6.229   3.115  16.939  0.3141 -0.5867 -1.0347
10346TIP3    H252454   6.254   2.983  17.009 -0.5473 -0.1218  0.1824
10347TIP3   OH252455   2.431   2.720  12.222 -0.3065  1.0987  0.4239
10347TIP3    H152456   2.492   2.690  12.155  1.7161  1.9501  1.7733
10347TIP3    H252457   2.476   2.794  12.264 -1.5046  0.6683  2.6366
10348TIP3   OH252458   5.118   3.877  15.074 -0.0553 -0.9397  0.3197
10348TIP3    H152459   5.163   3.927  15.005 -1.6343  2.8909  1.8158
10348TIP3    H252460   5.186   3.860  15.139  0.2415  0.9734  0.5819
10349TIP3   OH252461   5.733   2.612   1.505 -0.0022  0.1068  0.8507
10349TIP3    H152462   5.741   2.521   1.476 -0.4115  0.0377  0.9519
10349TIP3    H252463   5.820   2.649   1.490 -0.6722  0.6507 -2.4667
10350TIP3   OH252464   0.292   6.488   0.078  0.2233  0.2311 -0.0751
10350TIP3    H152465   0.232   6.448   0.141 -0.5142  0.4812 -0.6165
10350TIP3    H252466   0.364   6.424   0.071 -0.7411 -0.8299 -0.6258
10351TIP3   OH252467   3.390   3.015   3.837 -0.1247  0.6265  0.2540
10351TIP3    H152468   3.434   3.074   3.776 -1.1983  0.1136 -1.0771
10351TIP3    H252469   3.304   3.001   3.798 -0.1214 -1.3209  0.8453
10352TIP3   OH252470   1.467   4.998  16.004  0.3065 -0.0030 -1.0052
10352TIP3    H152471   1.400   4.998  15.935  0.2005  1.0276 -0.9144
10352TIP3    H252472   1.490   5.090  16.016 -0.3262 -0.0384  0.9516
10353TIP3   OH252473   2.983   4.366   2.568  0.4948  0.5257  0.6034
10353TIP3    H152474   2.946   4.306   2.504  0.5090  1.1076  0.0389
10353TIP3    H252475   3.014   4.440   2.516  0.3987  1.0614  1.2930
10354TIP3   OH252476   6.026   2.095   4.249  0.5866 -0.1272 -0.2638
10354TIP3    H152477   5.991   2.127   4.166  1.1387  0.5973 -0.2262
10354TIP3    H252478   5.963   2.029   4.278 -1.3772  1.8911  0.3786
10355TIP3   OH252479   1.170   4.930  16.796  0.0599  0.0817  0.0026
10355TIP3    H152480   1.253   4.922  16.749  0.4642  0.5351  0.6264
10355TIP3    H252481   1.114   4.861  16.758 -0.3568  1.7240 -2.6230
10356TIP3   OH252482   4.982   6.134   1.514 -0.0059 -0.0468  0.0599
10356TIP3    H152483   5.075   6.143   1.495  0.0692 -0.8973 -0.0088
10356TIP3    H252484   4.954   6.061   1.460 -1.5590  2.4498 -2.8366
10357TIP3   OH252485   6.608   5.217  10.887 -0.2401 -0.0997  0.1109
10357TIP3    H152486   6.703   5.220  10.876 -0.3621 -0.0860 -1.0720
10357TIP3    H252487   6.594   5.220  10.981  0.9643 -0.7657  0.3279
10358TIP3   OH252488   5.557   0.701  16.531  0.4089 -0.5579  0.5036
10358TIP3    H152489   5.463   0.687  16.517  0.1978  0.1507  1.1312
10358TIP3    H252490   5.561   0.780  16.585  1.3727 -0.5497  0.4268
10359TIP3   OH252491   3.014   5.935  10.785 -0.0884  0.2501 -0.3841
10359TIP3    H152492   2.942   5.991  10.811 -0.4414 -1.0650  1.7437
10359TIP3    H252493   3.091   5.992  10.787 -0.5413  0.8485  0.9675
10360TIP3   OH252494   2.632   0.576   2.966  0.1390 -0.3722 -0.3233
10360TIP3    H152495   2.574   0.624   2.906  2.3663  0.9681 -1.5285
10360TIP3    H252496   2.593   0.589   3.052 -1.8788 -0.3710 -1.1824
10361TIP3   OH252497   0.003   5.222   4.078 -0.3130 -0.5586 -0.3465
10361TIP3    H152498   0.018   5.306   4.121 -0.1074 -1.1394  0.7557
10361TIP3    H252499  -0.057   5.242   4.006  1.8216  0.9829 -1.7982
10362TIP3   OH252500   4.171   2.412   5.338  0.3265 -0.3403 -0.2116
10362TIP3    H152501   4.125   2.372   5.412  0.5934 -1.0106 -0.3982
10362TIP3    H252502   4.205   2.338   5.288 -1.8262 -0.0379 -2.3143
10363TIP3   OH252503   5.278   2.585  11.829  0.3122  0.3071  0.2161
10363TIP3    H152504   5.217   2.578  11.756  2.1480 -0.2967 -1.3616
10363TIP3    H252505   5.231   2.636  11.895 -1.4105  0.9319 -1.3928
10364TIP3   OH252506   2.708   0.951   1.974 -0.2787 -1.2237  0.1837
10364TIP3    H152507   2.775   1.014   1.948 -0.7823  0.5339  2.7857
10364TIP3    H252508   2.752   0.866   1.968  1.2076 -0.4135 -1.0609
10365TIP3   OH252509   6.037   5.973  13.483 -0.0632  0.1653 -0.1093
10365TIP3    H152510   5.959   6.027  13.476  0.1927  0.7872  1.4019
10365TIP3    H252511   6.074   5.972  13.395 -0.7852  1.3506 -0.4436
10366TIP3   OH252512   1.096   2.756   2.112  0.3912 -0.4863 -0.3335
10366TIP3    H152513   1.153   2.681   2.095  1.2033 -0.4013  1.7415
10366TIP3    H252514   1.074   2.749   2.205  0.9488  2.1303  0.0684
10367TIP3   OH252515   5.547   1.362   2.994  0.3697 -0.0077  0.8368
10367TIP3    H152516   5.595   1.284   2.966 -0.2915 -0.5079  1.0811
10367TIP3    H252517   5.535   1.413   2.914 -0.4011 -0.8167  0.4210
10368TIP3   OH252518   3.719   2.234   1.698 -0.0454  0.3718  0.1945
10368TIP3    H152519   3.749   2.286   1.623  4.4106 -0.9390  0.7826
10368TIP3    H252520   3.653   2.175   1.661  0.4868  1.1811 -2.2354
10369TIP3   OH252521   4.563   3.449  12.094  0.0487 -0.6386  0.1176
10369TIP3    H152522   4.523   3.536  12.104  0.9744 -0.2336  0.4480
10369TIP3    H252523   4.635   3.463  12.033 -0.3744 -1.3864 -0.5798
10370TIP3   OH252524   0.683   1.132  17.257 -0.2393  0.0898 -0.0733
10370TIP3    H152525   0.776   1.155  17.251  0.1094 -0.8575  1.2894
10370TIP3    H252526   0.646   1.195  17.318 -0.6640  0.8757 -1.1080
10371TIP3   OH252527   3.893   4.323  16.961  0.1472  0.1316 -0.3787
10371TIP3    H152528   3.944   4.382  16.905 -1.1811  0.3381 -1.4247
10371TIP3    H252529   3.919   4.236  16.933 -0.1330  0.2351 -0.9901
10372TIP3   OH252530   1.208   3.137  16.804 -0.5729  0.4428 -0.1293
10372TIP3    H152531   1.206   3.233  16.797 -1.9496  0.3315 -2.4713
10372TIP3    H252532   1.288   3.112  16.758 -1.4446  0.4268 -1.7249
10373TIP3   OH252533   3.025   4.689  11.612  0.6548 -0.5792 -0.3381
10373TIP3    H152534   2.998   4.726  11.696  1.3779 -0.7687 -0.0176
10373TIP3    H252535   2.987   4.601  11.611  0.3360 -0.4407 -0.3694
10374TIP3   OH252536   5.432   5.882   1.172  0.4842 -0.1437 -0.5480
10374TIP3    H152537   5.509   5.833   1.200 -0.7485 -2.4782 -1.0042
10374TIP3    H252538   5.428   5.867   1.077  0.4852  1.5044 -0.8338
10375TIP3   OH252539   6.617   2.563  13.322 -0.2347 -0.0362  0.2987
10375TIP3    H152540   6.530   2.600  13.336 -0.7209 -1.5049  1.2892
10375TIP3    H252541   6.609   2.471  13.345  1.7437 -0.0710  1.0760
10376TIP3   OH252542   2.521   0.723  12.419 -0.0157 -0.1817 -0.1918
10376TIP3    H152543   2.591   0.711  12.355  1.1385 -0.6099  1.0989
10376TIP3    H252544   2.535   0.811  12.454 -1.0815  0.3354 -1.0039
10377TIP3   OH252545   5.419   2.346  12.187 -0.0456  1.0590 -0.0197
10377TIP3    H152546   5.397   2.286  12.258  1.8268  1.7233  1.1662
10377TIP3    H252547   5.482   2.298  12.133 -1.7651  0.3921 -1.5666
10378TIP3   OH252548   4.534   5.195  13.540  0.1741 -0.3400  0.1965
10378TIP3    H152549   4.601   5.162  13.600 -0.2939 -0.7186  0.5144
10378TIP3    H252550   4.485   5.117  13.514  0.9871 -0.3587 -1.4674
10379TIP3   OH252551   3.870   4.395   1.653  0.1091  0.5043 -0.5202
10379TIP3    H152552   3.793   4.405   1.596  0.2411 -0.9114 -0.9994
10379TIP3    H252553   3.853   4.452   1.728 -1.2015  0.5635 -0.8439
10380TIP3   OH252554   0.025   2.410  10.746 -0.3778 -0.2940 -0.4165
10380TIP3    H152555  -0.002   2.449  10.663  0.5136 -0.2150 -0.6846
10380TIP3    H252556   0.016   2.480  10.810  0.1030  0.0179 -0.6817
10381TIP3   OH252557   5.622   4.395   3.116 -0.3591 -0.5009  0.2937
10381TIP3    H152558   5.581   4.348   3.189 -2.2689  0.7952  0.1477
10381TIP3    H252559   5.549   4.441   3.074  0.9177 -0.0827 -1.5789
10382TIP3   OH252560   5.702   3.905  12.642  0.0572  0.1055 -0.3119
10382TIP3    H152561   5.766   3.857  12.589  0.2147  1.3415 -1.2720
10382TIP3    H252562   5.667   3.971  12.583  0.1511  1.4544  1.0963
10383TIP3   OH252563   1.219   3.453   4.879 -0.1300  0.0667 -0.2180
10383TIP3    H152564   1.187   3.408   4.957 -1.7588  0.9947 -0.3072
10383TIP3    H252565   1.172   3.412   4.806 -0.0514  0.4967 -0.5167
10384TIP3   OH252566   2.761   5.347   0.432  0.1196 -0.6142 -0.2747
10384TIP3    H152567   2.671   5.334   0.463  0.2242 -3.1024 -0.8127
10384TIP3    H252568   2.751   5.376   0.341 -0.1200  0.6426  0.1344
10385TIP3   OH252569   4.809   1.046  15.391 -0.0849 -0.3485 -0.0536
10385TIP3    H152570   4.715   1.032  15.391 -0.0804 -0.4085  0.6879
10385TIP3    H252571   4.820   1.141  15.398 -0.0976 -0.3817  0.5147
10386TIP3   OH252572   4.796   2.682  14.631 -0.0233  0.6957 -0.0377
10386TIP3    H152573   4.808   2.594  14.665 -0.7946  0.6583  0.1599
10386TIP3    H252574   4.793   2.671  14.536 -0.1181  0.5108 -0.0127
10387TIP3   OH252575   2.205   5.436  11.859  0.0993 -0.2256  0.1924
10387TIP3    H152576   2.226   5.360  11.913 -0.4628 -1.5265 -1.3586
10387TIP3    H252577   2.116   5.460  11.885  0.3780  0.0969  0.8765
10388TIP3   OH252578   6.587   3.338  12.035 -0.1580 -0.2448 -0.6417
10388TIP3    H152579   6.570   3.390  12.114  0.2379  1.2843 -1.5281
10388TIP3    H252580   6.513   3.356  11.977 -0.5609 -1.5390 -0.5667
10389TIP3   OH252581   2.851   2.380  14.333 -0.0067 -0.3765  0.3578
10389TIP3    H152582   2.782   2.348  14.275 -0.1010  0.2633  0.1052
10389TIP3    H252583   2.914   2.308  14.338 -0.4259 -0.7586  0.1521
10390TIP3   OH252584   3.869   5.507  14.597  0.1938  0.3587  0.2584
10390TIP3    H152585   3.847   5.418  14.571  0.7196  0.0493  0.8583
10390TIP3    H252586   3.788   5.557  14.581 -0.6243 -0.5369  1.4235
10391TIP3   OH252587   3.338   3.592   1.641 -0.1846  0.0201 -0.0600
10391TIP3    H152588   3.247   3.565   1.658 -0.8861  1.8792 -0.6405
10391TIP3    H252589   3.356   3.558   1.554 -1.5314  2.3787 -1.3565
10392TIP3   OH252590   2.923   1.426  14.709 -0.1742  0.1558  0.5086
10392TIP3    H152591   2.926   1.335  14.679  0.0716  0.3734 -0.1498
10392TIP3    H252592   2.996   1.469  14.664 -0.3692  0.7082  0.7090
10393TIP3   OH252593   1.127   1.100   1.420 -0.0347  0.0332 -0.5553
10393TIP3    H152594   1.071   1.024   1.436 -0.5137  0.5583  0.3482
10393TIP3    H252595   1.066   1.169   1.393  0.1419  0.6408  0.5504
10394TIP3   OH252596   5.104   6.094   0.116 -0.0132 -0.0155  0.5583
10394TIP3    H152597   5.074   6.164   0.057  0.7147 -0.9180 -0.9512
10394TIP3    H252598   5.192   6.122   0.143  0.4038 -0.4464 -0.2893
10395TIP3   OH252599   2.292   1.750   5.517  0.4470 -0.1477 -0.9344
10395TIP3    H152600   2.269   1.720   5.605 -2.0338 -0.1176 -1.5029
10395TIP3    H252601   2.325   1.839   5.531 -0.1276 -0.0571 -0.0463
10396TIP3   OH252602   1.918   4.549  17.008  0.1912  0.3370  0.6678
10396TIP3    H152603   1.925   4.454  17.017  0.5697  0.2463 -0.4911
10396TIP3    H252604   1.824   4.567  17.012  0.0648 -0.1769  0.0287
10397TIP3   OH252605   6.502   5.272  12.988 -0.2184  0.2715 -0.1367
10397TIP3    H152606   6.513   5.209  13.059 -0.5617  1.4503  1.0144
10397TIP3    H252607   6.421   5.245  12.944  0.2535 -0.7524 -0.3957
10398TIP3   OH252608   6.048   4.492  15.751 -0.8493  0.2050 -0.0306
10398TIP3    H152609   5.955   4.510  15.743 -0.6558  1.5984  0.5685
10398TIP3    H252610   6.087   4.577  15.773  0.2549 -0.8088  2.2621
10399TIP3   OH252611   0.396   1.102  13.148  0.4130 -0.1524  0.3074
10399TIP3    H152612   0.479   1.117  13.193  1.2037 -0.8250 -0.8654
10399TIP3    H252613   0.364   1.019  13.184  0.2598  0.0936  0.7410
10400TIP3   OH252614   5.764   0.043   4.021  0.2006 -0.0075  0.2084
10400TIP3    H152615   5.716  -0.018   4.076 -0.1977 -1.1203 -1.2882
10400TIP3    H252616   5.726   0.128   4.040  0.1346 -0.3519  1.6769
10401TIP3   OH252617   3.764   2.236  14.458 -0.0160 -0.3379 -0.1805
10401TIP3    H152618   3.836   2.280  14.503 -1.1810  1.8328 -0.2920
10401TIP3    H252619   3.765   2.274  14.370 -1.4473 -0.0596 -0.0943
10402TIP3   OH252620   3.310   6.223  16.784 -0.6475 -0.1061 -0.0989
10402TIP3    H152621   3.383   6.273  16.747 -0.7832  1.8390  2.0336
10402TIP3    H252622   3.232   6.261  16.744 -0.6416 -0.2578 -0.2578
10403TIP3   OH252623   6.228   2.117  14.964  0.1196 -0.0500 -0.5360
10403TIP3    H152624   6.274   2.192  15.002  0.8035 -0.6236 -0.2355
10403TIP3    H252625   6.194   2.150  14.881 -0.1632  0.7939 -0.0978
10404TIP3   OH252626   2.912   1.470   2.706  0.4081  0.6197  0.5017
10404TIP3    H152627   2.881   1.537   2.768 -0.4694  1.2298 -0.5633
10404TIP3    H252628   2.863   1.488   2.626  2.3487  0.5531 -0.7397
10405TIP3   OH252629   5.102   1.780  15.196  0.3502  0.5783 -0.5667
10405TIP3    H152630   5.102   1.706  15.135 -0.2188 -0.4004  0.5839
10405TIP3    H252631   5.161   1.753  15.266 -1.1774  0.4461  0.7138
10406TIP3   OH252632   4.569   0.508  12.784  0.1392 -0.2030  0.4249
10406TIP3    H152633   4.564   0.413  12.787  0.1450 -0.1979  0.6566
10406TIP3    H252634   4.478   0.537  12.798 -0.0571 -0.1897 -0.8114
10407TIP3   OH252635   3.305   5.407   2.024 -0.0403  0.6745  0.3156
10407TIP3    H152636   3.209   5.401   2.020  0.0712 -1.1134 -1.1292
10407TIP3    H252637   3.324   5.410   2.118 -1.4325 -3.8194  1.0171
10408TIP3   OH252638   0.874   4.989  17.081 -0.4451 -0.0873  0.2345
10408TIP3    H152639   0.904   4.971  16.992 -1.2914 -0.9128  0.1027
10408TIP3    H252640   0.887   5.083  17.092 -0.1720 -0.0041 -0.6953
10409TIP3   OH252641   2.539   2.575   2.288 -0.5370 -0.0194 -0.2231
10409TIP3    H152642   2.594   2.618   2.353  0.3326  0.6335 -1.3557
10409TIP3    H252643   2.569   2.484   2.288 -0.3501  0.0399  0.0870
10410TIP3   OH252644   5.683   1.153  15.912 -0.0116  0.0535 -0.6634
10410TIP3    H152645   5.713   1.075  15.865  1.6475  0.9858 -1.2387
10410TIP3    H252646   5.667   1.218  15.844  3.0295  1.6283 -0.0899
10411TIP3   OH252647   5.250   3.035   3.977  0.3843 -0.2875  0.1310
10411TIP3    H152648   5.244   2.942   3.958  1.8022 -0.1500 -1.2166
10411TIP3    H252649   5.344   3.050   3.991  0.4600  1.2568 -1.6446
10412TIP3   OH252650   0.092   1.489   4.550  0.3262 -0.4030  1.1207
10412TIP3    H152651   0.117   1.412   4.601  1.9766 -0.1732  0.6967
10412TIP3    H252652   0.153   1.557   4.578 -0.2349  0.3756  0.4870
10413TIP3   OH252653   2.440   4.588  16.170 -0.0994 -0.7102 -0.5694
10413TIP3    H152654   2.358   4.589  16.219 -0.1888 -4.8465 -0.2698
10413TIP3    H252655   2.418   4.545  16.087  1.6966 -1.9380 -0.4673
10414TIP3   OH252656   3.745   4.107  14.058  0.0471 -0.2390 -0.4163
10414TIP3    H152657   3.693   4.092  14.136  1.0987  1.1295  0.6030
10414TIP3    H252658   3.693   4.167  14.005  0.0720  0.2171  0.0667
10415TIP3   OH252659   6.670   3.428   1.983 -0.8570  0.1209 -0.6636
10415TIP3    H152660   6.653   3.413   1.890 -0.9392 -0.6567 -0.5285
10415TIP3    H252661   6.739   3.495   1.985 -2.0090  1.3840 -1.2561
10416TIP3   OH252662   5.637   2.833   4.805  0.1185 -0.0614  0.1482
10416TIP3    H152663   5.660   2.923   4.781  1.4075 -0.2316  0.6642
10416TIP3    H252664   5.721   2.790   4.822 -0.5373 -0.9804  1.2518
10417TIP3   OH252665   5.296   4.303  12.966  0.2805  0.0903  0.1498
10417TIP3    H152666   5.391   4.294  12.968  0.2497 -0.2920 -0.1222
10417TIP3    H252667   5.274   4.310  12.874  0.1148  0.9918  0.2490
10418TIP3   OH252668   3.196   2.156  11.416  0.2667  0.1958 -0.0424
10418TIP3    H152669   3.276   2.203  11.439  0.7856 -0.6022 -0.1677
10418TIP3    H252670   3.211   2.126  11.327 -1.1788  2.1134 -1.0128
10419TIP3   OH252671   0.630   3.539   4.160 -0.4521 -0.1964  0.4544
10419TIP3    H152672   0.691   3.466   4.147 -1.2490 -0.9893  1.0978
10419TIP3    H252673   0.562   3.504   4.217 -1.3865  0.7620 -0.0459
10420TIP3   OH252674   2.913   3.788  15.688 -0.0904 -0.2481 -0.2268
10420TIP3    H152675   2.920   3.747  15.774 -0.7503 -1.5041 -0.7495
10420TIP3    H252676   2.983   3.748  15.637 -1.5647 -1.7662 -1.1307
10421TIP3   OH252677   2.056   0.390  16.496 -0.0377  0.1443 -0.0881
10421TIP3    H152678   2.074   0.481  16.520 -0.3134  0.0009  0.6950
10421TIP3    H252679   2.042   0.345  16.580  0.5516 -0.7219 -0.4423
10422TIP3   OH252680   2.497   2.294   5.709  0.3599  0.2833  0.5957
10422TIP3    H152681   2.430   2.330   5.651  1.8856 -0.2161 -1.5991
10422TIP3    H252682   2.521   2.368   5.766  1.4646  2.0359 -1.9450
10423TIP3   OH252683   5.822   6.151  16.912  0.7244  0.1052 -0.0538
10423TIP3    H152684   5.914   6.143  16.937  0.4420  0.0782  0.9947
10423TIP3    H252685   5.821   6.222  16.848  1.7629 -1.2526 -1.6707
10424TIP3   OH252686   3.716   5.812  12.650  0.3455 -0.0547 -0.3571
10424TIP3    H152687   3.772   5.792  12.725 -1.1178 -0.4876  0.6531
10424TIP3    H252688   3.730   5.905  12.634 -0.6311  0.4787  1.6208
10425TIP3   OH252689   3.191   5.647  13.142  0.0794  0.0916 -0.2748
10425TIP3    H152690   3.100   5.629  13.117 -1.0136  0.6307  2.8136
10425TIP3    H252691   3.222   5.565  13.180  0.3303  0.3355  0.0540
10426TIP3   OH252692   6.102   4.312   1.107 -0.6021 -0.0442 -0.1859
10426TIP3    H152693   6.132   4.329   1.196  0.1105  0.0334 -0.4368
10426TIP3    H252694   6.057   4.228   1.112 -0.6101 -0.0157  0.2524
10427TIP3   OH252695   1.029   4.090  15.547  0.3541  0.2968  0.2585
10427TIP3    H152696   1.123   4.110  15.549  0.4476 -0.1407  1.6693
10427TIP3    H252697   1.013   4.045  15.630 -1.0565  0.1215 -0.0901
10428TIP3   OH252698   4.063   2.699   4.558  0.5164  0.1097 -0.0156
10428TIP3    H152699   4.102   2.729   4.476  0.2020  1.9546  0.4526
10428TIP3    H252700   3.990   2.644   4.532 -1.4476  3.0064 -1.1594
10429TIP3   OH252701   5.567   4.013  14.981 -0.2514  0.4249  0.4683
10429TIP3    H152702   5.524   3.968  15.054  0.1219  0.9729  1.0312
10429TIP3    H252703   5.611   4.088  15.021  1.8100 -0.4846  0.0071
10430TIP3   OH252704   4.102   1.219   1.826  0.5506  0.1363  0.2661
10430TIP3    H152705   4.174   1.278   1.807  0.1621  0.7632  0.6944
10430TIP3    H252706   4.031   1.247   1.768  0.3282  0.1637  0.5468
10431TIP3   OH252707   3.985   3.687   5.103  0.1302 -0.1541  0.8181
10431TIP3    H152708   3.993   3.743   5.180  3.4597  0.0220  0.5007
10431TIP3    H252709   4.010   3.600   5.133  1.4473 -0.0891 -0.0228
10432TIP3   OH252710   5.266   2.907  11.236 -0.4834  0.8281 -0.0655
10432TIP3    H152711   5.228   2.993  11.256  0.0884  1.0889 -0.0977
10432TIP3    H252712   5.275   2.907  11.140 -1.9844  0.0938 -0.2452
10433TIP3   OH252713   2.969   0.424   0.309  0.7539  0.3084  0.1129
10433TIP3    H152714   3.034   0.421   0.240  0.1886  1.1619 -0.4768
10433TIP3    H252715   2.898   0.478   0.274  0.3833  0.6365  1.2921
10434TIP3   OH252716   6.104   4.524  14.662  0.2884 -0.2763  0.4232
10434TIP3    H152717   6.156   4.443  14.666  0.1833 -0.3430  0.4353
10434TIP3    H252718   6.170   4.594  14.662  0.3910 -0.3738 -0.0352
10435TIP3   OH252719   2.171   6.479   1.274 -0.0563  0.0008  0.0878
10435TIP3    H152720   2.250   6.427   1.287 -0.8597 -1.2992 -0.0632
10435TIP3    H252721   2.147   6.463   1.183 -0.2372  0.7585 -0.0022
10436TIP3   OH252722   4.029   2.878  12.854 -0.1393  0.2732 -0.0146
10436TIP3    H152723   4.049   2.906  12.943  0.9793  1.2148 -0.5408
10436TIP3    H252724   4.045   2.955  12.800 -1.8765  0.0440 -0.9217
10437TIP3   OH252725   0.491   6.517  14.424 -0.2493  0.7520  0.4699
10437TIP3    H152726   0.532   6.603  14.436 -1.0587  1.0646  1.1549
10437TIP3    H252727   0.431   6.509  14.499 -1.1081  0.1377 -0.2645
10438TIP3   OH252728   0.520   4.338   2.301  0.0768  0.4864 -0.2222
10438TIP3    H152729   0.505   4.255   2.257  0.8632  1.5440 -2.6789
10438TIP3    H252730   0.472   4.332   2.383 -0.1413 -2.2347 -0.4829
10439TIP3   OH252731   1.581   0.436   1.038  0.0740 -0.4282  0.3744
10439TIP3    H152732   1.663   0.388   1.038  0.3701  0.0557  0.9488
10439TIP3    H252733   1.606   0.528   1.029 -0.2679 -0.1126  2.2168
10440TIP3   OH252734   0.628   2.274   4.411 -0.3869  0.0466  0.0572
10440TIP3    H152735   0.714   2.313   4.394 -0.6131  0.7226  0.4465
10440TIP3    H252736   0.565   2.337   4.376 -0.7687  0.2543  1.0623
10441TIP3   OH252737   0.038   2.001   5.550 -0.1789  0.1346 -0.2498
10441TIP3    H152738  -0.042   2.036   5.589 -1.5314 -1.4792 -1.4225
10441TIP3    H252739   0.034   2.028   5.459  2.1257  2.4765  0.2431
10442TIP3   OH252740   4.711   6.615  15.804  0.0768 -0.1133 -0.0059
10442TIP3    H152741   4.674   6.599  15.890 -0.6117  3.1681  0.4361
10442TIP3    H252742   4.799   6.577  15.808 -0.9952 -2.7243  0.9883
10443TIP3   OH252743   5.209   5.911   3.625  0.3150  0.5288  0.1545
10443TIP3    H152744   5.302   5.895   3.613  0.8164  2.1098  1.4975
10443TIP3    H252745   5.176   5.831   3.667  1.0906  0.0227 -0.1913
10444TIP3   OH252746   1.946   4.281  10.178 -0.4270 -0.2823  0.6245
10444TIP3    H152747   2.041   4.277  10.190 -0.6552  0.8735  3.9916
10444TIP3    H252748   1.918   4.189  10.176  0.6874 -0.6252  0.3742
10445TIP3   OH252749   4.783   5.111  11.710 -0.1971 -0.2104 -0.6028
10445TIP3    H152750   4.802   5.078  11.798 -0.4890 -0.8027 -0.7550
10445TIP3    H252751   4.859   5.163  11.686  0.4776 -1.1459 -0.5335
10446TIP3   OH252752   2.794   6.312   4.407  0.0390 -0.1129 -0.0541
10446TIP3    H152753   2.827   6.275   4.489  4.3798  1.1911 -0.9592
10446TIP3    H252754   2.852   6.276   4.340 -3.4407 -1.2628 -2.7311
10447TIP3   OH252755   4.412   0.339  13.754 -0.5808 -0.2176 -0.1372
10447TIP3    H152756   4.329   0.311  13.792 -1.4720  0.2818 -1.6344
10447TIP3    H252757   4.434   0.271  13.690 -0.5437  0.3376 -0.7193
10448TIP3   OH252758   2.303   5.659   1.885  0.4892  0.2576 -0.9597
10448TIP3    H152759   2.211   5.684   1.895 -0.6092 -3.5745  0.6531
10448TIP3    H252760   2.341   5.673   1.972  1.2652  1.1359 -1.4277
10449TIP3   OH252761   4.675   4.704  16.544  0.4865  0.3037  0.1349
10449TIP3    H152762   4.684   4.608  16.544  0.6075  0.2535 -2.3154
10449TIP3    H252763   4.590   4.720  16.585  2.2603 -0.4917  4.6351
10450TIP3   OH252764   4.796   3.232   6.075  0.6330  0.1167  0.0045
10450TIP3    H152765   4.719   3.175   6.076 -0.8459  1.9196 -1.9455
10450TIP3    H252766   4.804   3.264   6.164 -0.7623 -0.2445  0.2780
10451TIP3   OH252767   5.198   1.036  13.400 -0.0333 -0.7052  0.2115
10451TIP3    H152768   5.113   1.072  13.424  0.1347 -0.9427  1.2035
10451TIP3    H252769   5.184   0.995  13.314 -0.8351 -0.4731  0.2275
10452TIP3   OH252770   6.123   1.507   4.183  0.0137 -0.3133  0.1860
10452TIP3    H152771   6.202   1.550   4.216 -0.2472 -1.5782  2.7748
10452TIP3    H252772   6.066   1.578   4.155  2.3539  0.6003 -2.7480
10453TIP3   OH252773   1.953   0.271  16.988 -0.5173 -0.0875  0.5087
10453TIP3    H152774   2.027   0.325  17.017 -0.0690 -1.0069  1.1219
10453TIP3    H252775   1.939   0.209  17.059 -2.2164  0.3747  0.6265
10454TIP3   OH252776   4.330   3.977   2.327  0.6102  0.7044  0.1106
10454TIP3    H152777   4.319   3.925   2.248 -1.5930 -0.9195  1.3712
10454TIP3    H252778   4.284   4.059   2.308 -0.3068  0.1397 -0.1628
10455TIP3   OH252779   3.821   5.367   2.206 -0.2590  0.0293  0.0369
10455TIP3    H152780   3.878   5.385   2.132  0.1862  0.6852  0.5310
10455TIP3    H252781   3.878   5.329   2.272 -0.6424 -0.4927  0.0785
10456TIP3   OH252782   5.909   6.506   2.065 -0.4909 -0.2622 -0.2510
10456TIP3    H152783   5.886   6.535   2.153 -0.6765 -0.8588 -0.0963
10456TIP3    H252784   5.985   6.450   2.077  0.1710  0.5473 -0.6041
10457TIP3   OH252785   3.278   3.737   1.975 -0.3707 -0.5878 -0.2113
10457TIP3    H152786   3.340   3.768   1.909  1.0846 -2.4337  0.1902
10457TIP3    H252787   3.196   3.780   1.954  0.8403  1.3191 -1.2763
10458TIP3   OH252788   1.679   4.171  13.710  0.5360 -0.0716 -0.1855
10458TIP3    H152789   1.641   4.171  13.622 -2.4238 -1.2067  0.9687
10458TIP3    H252790   1.645   4.251  13.750  0.8106 -0.2182  0.3411
10459TIP3   OH252791   4.252   3.176   3.234 -0.0092  0.4771 -0.1879
10459TIP3    H152792   4.290   3.101   3.279  1.7725  1.1536 -0.4600
10459TIP3    H252793   4.231   3.145   3.146 -0.6062 -0.0558  0.1417
10460TIP3   OH252794   4.845   5.324   0.870  0.1667 -0.1248  0.6948
10460TIP3    H152795   4.901   5.248   0.887 -1.7233 -1.3189  1.9254
10460TIP3    H252796   4.812   5.350   0.956 -1.9602 -0.1343 -0.0602
10461TIP3   OH252797   6.751   6.371  13.819 -0.5694 -0.4316 -0.0568
10461TIP3    H152798   6.657   6.368  13.799 -0.4404  0.5966 -0.8498
10461TIP3    H252799   6.754   6.387  13.913 -1.1847 -0.2138 -0.0662
10462TIP3   OH252800   2.929   4.455  11.496  0.6617 -0.9661  0.5507
10462TIP3    H152801   2.937   4.397  11.572  0.3152 -0.7325  0.7706
10462TIP3    H252802   2.853   4.422  11.448 -1.4720  1.0451  2.2661
10463TIP3   OH252803   5.728   1.446  11.499 -0.2813  0.1173  0.2771
10463TIP3    H152804   5.641   1.414  11.477 -0.4433  0.4978  0.3632
10463TIP3    H252805   5.731   1.444  11.594  0.4657 -1.6594  0.2507
10464TIP3   OH252806   6.011   6.096  14.485 -0.0986 -0.2857  0.1305
10464TIP3    H152807   5.947   6.070  14.419 -0.3071  1.4337 -0.4001
10464TIP3    H252808   6.096   6.084  14.442 -0.2198  0.4871 -0.3487
10465TIP3   OH252809   3.872   4.546   1.887 -1.0523 -0.6345  0.2677
10465TIP3    H152810   3.911   4.509   1.966 -2.4975 -2.5386  0.1491
10465TIP3    H252811   3.806   4.608   1.918 -1.0742 -0.7955  0.5413
10466TIP3   OH252812   2.714   3.470   2.615 -0.6404 -0.0182  0.4436
10466TIP3    H152813   2.806   3.479   2.589  0.5200 -0.1953  3.9739
10466TIP3    H252814   2.674   3.553   2.589  0.6854  0.3662 -0.5042
10467TIP3   OH252815   4.503   6.629  12.927  0.5638 -0.0180 -0.6041
10467TIP3    H152816   4.422   6.616  12.977 -0.7340 -0.4475 -2.6987
10467TIP3    H252817   4.542   6.708  12.964 -1.2777  0.7017 -0.0968
10468TIP3   OH252818   2.911   2.643   1.496  0.1980 -0.4313  0.1596
10468TIP3    H152819   2.903   2.716   1.558  2.1253 -0.8141  0.9263
10468TIP3    H252820   2.884   2.680   1.412  0.5823  1.0050  0.6337
10469TIP3   OH252821   3.580   0.113  12.924  1.0932 -0.3954 -0.6045
10469TIP3    H152822   3.584   0.038  12.983  4.4386 -1.6783 -2.1776
10469TIP3    H252823   3.606   0.078  12.839 -1.0293  1.8647 -2.3518
10470TIP3   OH252824   2.647   2.378  11.678  0.6861  0.5113 -0.4684
10470TIP3    H152825   2.618   2.290  11.652  2.4208 -0.1099 -0.4160
10470TIP3    H252826   2.727   2.392  11.628  2.2532  0.6946  1.9594
10471TIP3   OH252827   2.319   4.557  15.557 -0.0920  0.1997  0.0077
10471TIP3    H152828   2.244   4.526  15.506  0.2025 -0.7142  0.1110
10471TIP3    H252829   2.341   4.484  15.615  0.9476  0.4053 -0.1024
10472TIP3   OH252830   1.331   4.128   4.286  0.6052  0.1421 -0.3080
10472TIP3    H152831   1.425   4.132   4.308  0.3315  0.6788  0.8474
10472TIP3    H252832   1.326   4.067   4.212  1.4368 -3.2489  2.1842
10473TIP3   OH252833   0.705   6.143   5.219 -0.6799  0.1206  0.1093
10473TIP3    H152834   0.691   6.236   5.203  0.6798  0.2037 -0.7833
10473TIP3    H252835   0.745   6.110   5.138 -1.6957 -1.3825  0.1631
10474TIP3   OH252836   0.302   1.563   6.320  0.3779  0.2695  0.3696
10474TIP3    H152837   0.239   1.566   6.392  0.9297 -0.0233  0.8734
10474TIP3    H252838   0.373   1.508   6.353  0.3886 -0.3069 -0.6016
10475TIP3   OH252839   1.551   5.974   2.742 -0.4637  0.1520  0.4636
10475TIP3    H152840   1.645   5.993   2.739 -0.6230  0.9405  0.3233
10475TIP3    H252841   1.518   6.030   2.812 -0.8388 -0.0991  0.4873
10476TIP3   OH252842   5.954   2.327  13.096  0.5391 -0.9007  0.4586
10476TIP3    H152843   6.046   2.355  13.104  0.4244  0.2826 -1.5325
10476TIP3    H252844   5.958   2.246  13.045  0.4587 -0.1125 -0.8641
10477TIP3   OH252845   1.804   3.876   3.167  0.9816 -0.4108  0.3014
10477TIP3    H152846   1.768   3.940   3.106 -0.4291 -0.7894  0.6900
10477TIP3    H252847   1.809   3.795   3.117  2.1488 -0.1637 -0.0017
10478TIP3   OH252848   0.248   0.052   4.108  0.3717 -0.3691 -0.5078
10478TIP3    H152849   0.295  -0.027   4.083  1.7891 -0.0420  0.9911
10478TIP3    H252850   0.275   0.118   4.044  1.5037 -0.3456 -0.0217
10479TIP3   OH252851   0.465   1.096   3.063 -0.1979 -0.2618  0.6397
10479TIP3    H152852   0.526   1.028   3.036  0.5447  0.6400 -0.0481
10479TIP3    H252853   0.484   1.169   3.004  0.0414  1.0472  2.2674
10480TIP3   OH252854   5.105   5.040  13.235  0.1640  0.3969 -0.5584
10480TIP3    H152855   5.176   4.976  13.229  0.6244  0.9934 -2.1005
10480TIP3    H252856   5.034   5.001  13.183 -0.2730  0.2669  0.1287
10481TIP3   OH252857   4.709   3.978   4.165  0.0452 -0.2144  0.2654
10481TIP3    H152858   4.794   3.939   4.142  0.6319  1.5197 -0.7480
10481TIP3    H252859   4.676   4.014   4.082 -0.4382  1.3872  1.1014
10482TIP3   OH252860   4.279   0.508  12.747  0.2381  0.3949  0.3068
10482TIP3    H152861   4.218   0.435  12.761  0.9665 -0.1514  0.7090
10482TIP3    H252862   4.283   0.553  12.831  1.9924 -0.8424  0.9399
10483TIP3   OH252863   6.359   5.646   1.864 -0.4134 -0.2376  0.7344
10483TIP3    H152864   6.287   5.598   1.823 -1.6691  1.2983  1.0629
10483TIP3    H252865   6.396   5.699   1.794  2.7576 -3.4673 -0.3470
10484TIP3   OH252866   5.136   2.743   1.529 -0.1306 -0.3032  0.0090
10484TIP3    H152867   5.197   2.785   1.468 -1.2622 -0.2702 -1.1497
10484TIP3    H252868   5.121   2.809   1.596  1.6489 -0.5773  0.7372
10485TIP3   OH252869   6.638   1.458   2.737 -0.1325  0.0881  0.3969
10485TIP3    H152870   6.625   1.552   2.748 -2.0853 -0.2319  1.1866
10485TIP3    H252871   6.719   1.451   2.687  0.8317  2.1403  1.5299
10486TIP3   OH252872   4.869   4.901  15.080  0.3715 -0.2617 -0.0539
10486TIP3    H152873   4.813   4.941  15.015  0.7636  2.2739  1.0598
10486TIP3    H252874   4.958   4.923  15.053  0.8867 -3.0235 -1.0168
10487TIP3   OH252875   5.825   0.497  11.313 -0.9987 -1.0972  0.1276
10487TIP3    H152876   5.760   0.528  11.249 -0.6474 -1.0256 -0.2000
10487TIP3    H252877   5.909   0.511  11.270 -0.7035 -0.1978  0.9778
10488TIP3   OH252878   3.815   0.617  11.251 -0.2123  0.0922 -0.0320
10488TIP3    H152879   3.782   0.531  11.225 -1.4117  0.7656 -0.8311
10488TIP3    H252880   3.769   0.637  11.333 -3.2476  1.7029 -1.9052
10489TIP3   OH252881   1.468   4.798   1.194 -0.5827  0.0912 -0.3507
10489TIP3    H152882   1.382   4.839   1.181 -0.6300  0.1609  0.1791
10489TIP3    H252883   1.530   4.866   1.167 -0.6719  0.3671  0.1305
10490TIP3   OH252884   2.012   2.741  14.124 -0.0116  0.6780  0.1452
10490TIP3    H152885   2.004   2.836  14.117  0.0510  0.9176  2.4155
10490TIP3    H252886   1.939   2.716  14.182 -0.1320 -0.6880 -0.5624
10491TIP3   OH252887   6.053   6.281   5.097  0.3357 -0.5841  0.4203
10491TIP3    H152888   6.029   6.196   5.132 -0.3662 -2.0682 -3.1920
10491TIP3    H252889   5.969   6.325   5.081  0.6813  0.7822  2.0298
10492TIP3   OH252890   1.363   3.183   6.034 -0.3696 -0.2342  0.4305
10492TIP3    H152891   1.338   3.105   5.985 -0.1835  0.8600 -1.5242
10492TIP3    H252892   1.294   3.247   6.014  1.2469  1.1978 -0.9096
10493TIP3   OH252893   0.563   4.052   0.136 -0.6705 -0.1921  0.8658
10493TIP3    H152894   0.523   3.970   0.165 -1.4193 -0.7452 -1.4535
10493TIP3    H252895   0.493   4.117   0.144 -0.3607  0.0311  1.8332
10494TIP3   OH252896   3.626   5.456  14.281  0.4037 -0.3567  0.0367
10494TIP3    H152897   3.560   5.434  14.216 -0.8085  0.5021  0.9188
10494TIP3    H252898   3.606   5.399  14.356  1.3972 -0.9052 -0.0950
10495TIP3   OH252899   5.259   1.583   3.408 -0.0714  0.5517  0.2690
10495TIP3    H152900   5.291   1.654   3.351  3.2185 -0.2555  0.8855
10495TIP3    H252901   5.275   1.503   3.358 -0.8147  0.0507  0.8125
10496TIP3   OH252902   0.646   4.783  12.062 -0.5795  0.0938 -0.2505
10496TIP3    H152903   0.566   4.731  12.053 -0.6426 -0.0764  1.1024
10496TIP3    H252904   0.696   4.737  12.129 -0.7431  1.8871  1.1624
10497TIP3   OH252905   2.869   1.938  16.375  0.1364  0.4170 -0.4924
10497TIP3    H152906   2.784   1.898  16.391  0.4188 -0.1344 -0.3324
10497TIP3    H252907   2.893   1.979  16.458 -0.2393  1.0944 -0.7108
10498TIP3   OH252908   2.553   3.625   1.487  0.3433 -0.2505  0.2418
10498TIP3    H152909   2.519   3.668   1.408 -3.0312 -3.4882 -0.3733
10498TIP3    H252910   2.489   3.646   1.555  2.1518  0.8669  1.6675
10499TIP3   OH252911   6.330   0.652   1.979 -0.3157  0.1316 -0.4976
10499TIP3    H152912   6.391   0.579   1.989 -1.6288 -1.1368 -1.3897
10499TIP3    H252913   6.349   0.687   1.892 -0.8123 -0.2230 -0.7488
10500TIP3   OH252914   2.806   5.858   6.014  0.2023 -0.3024 -0.0794
10500TIP3    H152915   2.824   5.765   6.021 -3.0049 -1.0223  0.3910
10500TIP3    H252916   2.831   5.894   6.099  0.7251 -0.8840  0.0170
10501TIP3   OH252917   0.472   6.273   2.790  0.4089 -0.2376 -0.1104
10501TIP3    H152918   0.541   6.311   2.735  0.6465 -1.1576 -0.4626
10501TIP3    H252919   0.509   6.271   2.878  0.1054  1.0510  0.0635
10502TIP3   OH252920   0.952   0.725  14.509 -0.2036 -0.1388  0.3366
10502TIP3    H152921   0.964   0.802  14.454 -0.6702 -1.3415 -1.5548
10502TIP3    H252922   1.035   0.715  14.556  0.4355  0.5787 -0.6185
10503TIP3   OH252923   0.095   2.201  11.396 -0.4048  0.0758  0.1837
10503TIP3    H152924   0.152   2.277  11.405 -0.4988  0.4880 -2.0991
10503TIP3    H252925   0.030   2.211  11.466  0.0753  1.6349  0.4467
10504TIP3   OH252926   5.105   0.156  16.001 -0.2883 -0.5322 -0.0503
10504TIP3    H152927   5.149   0.238  15.977  0.5293 -1.5957 -2.5366
10504TIP3    H252928   5.135   0.138  16.090  1.6114  0.5686 -0.4019
10505TIP3   OH252929   5.989   1.701  13.984  0.4613  0.2431  0.2715
10505TIP3    H152930   5.909   1.748  14.009  1.4883  0.6837  3.1822
10505TIP3    H252931   6.004   1.640  14.057  2.7204  0.1124 -0.2371
10506TIP3   OH252932   5.077   3.530  11.452 -0.1929  0.0242 -0.0717
10506TIP3    H152933   5.142   3.502  11.387 -1.4131  0.4454 -1.5524
10506TIP3    H252934   5.027   3.598  11.407 -0.7355  0.7269  1.5418
10507TIP3   OH252935   3.251   1.625   3.004 -0.2450  0.2829 -0.2510
10507TIP3    H152936   3.270   1.627   2.910 -1.3936 -3.6216 -0.7747
10507TIP3    H252937   3.336   1.613   3.046  0.0712 -0.2045 -1.0070
10508TIP3   OH252938   4.162   2.241   5.966 -0.4454 -0.3079  0.5946
10508TIP3    H152939   4.118   2.161   5.935 -1.1564 -0.1996  1.2885
10508TIP3    H252940   4.223   2.210   6.032 -1.1012 -0.2391  1.2488
10509TIP3   OH252941   5.256   1.798  16.059 -0.0312 -0.2420 -0.0665
10509TIP3    H152942   5.351   1.799  16.062  0.0376  0.3993 -1.5151
10509TIP3    H252943   5.233   1.707  16.037  0.2763 -0.2689 -0.2747
10510TIP3   OH252944   3.428   3.677  14.944  0.2586  0.1815  0.6758
10510TIP3    H152945   3.399   3.729  15.020 -1.0198  0.5355 -0.0310
10510TIP3    H252946   3.432   3.587  14.977  2.1668  0.6136  1.8269
10511TIP3   OH252947   2.007   5.556  14.252 -0.3774 -0.5951 -0.0462
10511TIP3    H152948   2.012   5.609  14.331 -0.4099 -1.6697  0.7106
10511TIP3    H252949   1.946   5.486  14.275 -1.6040 -0.0622 -1.5723
10512TIP3   OH252950   1.945   2.453   4.046  0.3053  0.4460  0.7723
10512TIP3    H152951   2.015   2.393   4.023 -1.0468 -0.9195  0.0240
10512TIP3    H252952   1.981   2.540   4.031  1.4625 -0.2551 -0.6641
10513TIP3   OH252953   3.094   6.770   0.710  0.2607 -0.6111 -0.4843
10513TIP3    H152954   3.136   6.826   0.645  1.6334  2.2492  2.5486
10513TIP3    H252955   3.001   6.775   0.690  0.6479 -0.0429 -2.3262
10514TIP3   OH252956   2.723   3.759  13.219  0.7428 -0.4955 -0.6239
10514TIP3    H152957   2.691   3.713  13.141  0.3690 -0.8335 -0.2723
10514TIP3    H252958   2.767   3.692  13.270 -1.3033 -0.8797  0.7348
10515TIP3   OH252959   1.521   4.654   4.887 -0.1936 -0.5257 -0.2956
10515TIP3    H152960   1.446   4.703   4.921 -1.7750 -1.8138 -1.7369
10515TIP3    H252961   1.597   4.703   4.917 -1.6274  2.0435 -0.5420
10516TIP3   OH252962   3.817   3.171   6.686  0.8479 -0.1801  0.1253
10516TIP3    H152963   3.723   3.168   6.669  0.6265  0.7777  1.0857
10516TIP3    H252964   3.841   3.262   6.674  1.4788 -0.2592  0.7236
10517TIP3   OH252965   5.769   5.818   1.813  0.2504  0.4750  0.4432
10517TIP3    H152966   5.809   5.810   1.899 -1.4956 -0.1004  1.2527
10517TIP3    H252967   5.740   5.909   1.808  1.3116  0.7947  0.0062
10518TIP3   OH252968   3.068   5.878  16.743  0.6509 -0.1379 -0.1461
10518TIP3    H152969   3.152   5.876  16.696  1.6185 -0.1965  1.5137
10518TIP3    H252970   3.044   5.786  16.753  0.7714 -0.1506  0.0296
10519TIP3   OH252971   4.759   3.822  13.792  0.2302 -0.3818 -0.0908
10519TIP3    H152972   4.844   3.817  13.749 -0.0863  0.9262 -0.9362
10519TIP3    H252973   4.770   3.890  13.859 -0.5142  0.8796 -1.1894
10520TIP3   OH252974   5.897   1.044  13.653 -0.3166  0.5465 -0.7647
10520TIP3    H152975   5.957   0.985  13.699  0.4182 -0.3119 -2.6886
10520TIP3    H252976   5.831   0.986  13.616 -1.3074  1.2950 -0.1975
10521TIP3   OH252977   0.359   5.055   5.747  0.2954  0.3803  0.0174
10521TIP3    H152978   0.359   5.150   5.738  0.1614  0.2695 -1.4550
10521TIP3    H252979   0.268   5.030   5.732  0.7565 -0.1478 -2.2758
10522TIP3   OH252980   1.306   2.946   3.048 -0.3261 -0.0754 -0.1652
10522TIP3    H152981   1.320   2.886   3.120  0.3902  0.7084  0.3604
10522TIP3    H252982   1.376   3.010   3.055 -0.6911  0.4558 -1.0993
10523TIP3   OH252983   4.789   5.571   1.348  0.1778  0.4501 -0.7663
10523TIP3    H152984   4.801   5.492   1.401 -0.6344  0.7087 -0.1815
10523TIP3    H252985   4.855   5.563   1.279  1.7806  0.4900  0.7031
10524TIP3   OH252986   6.214   5.675   5.961 -0.3183 -0.5712 -0.3036
10524TIP3    H152987   6.268   5.661   6.039  0.3772  4.5922  0.4943
10524TIP3    H252988   6.137   5.722   5.993 -0.8083  0.2104 -2.4654
10525TIP3   OH252989   0.977   3.789   3.786 -0.4199  0.6603 -0.3558
10525TIP3    H152990   0.997   3.736   3.709  1.6099  0.2448  0.4046
10525TIP3    H252991   1.025   3.747   3.857 -0.4103  2.3492  0.6828
10526TIP3   OH252992   4.770   4.508  15.098  0.1703  0.5326 -0.3731
10526TIP3    H152993   4.861   4.481  15.081 -0.0944  0.7567 -2.3567
10526TIP3    H252994   4.719   4.428  15.087  0.1790  0.1019  2.0242
10527TIP3   OH252995   3.717   6.741  17.126 -0.1460 -0.5661  0.3624
10527TIP3    H152996   3.726   6.700  17.039  0.5301  0.4947 -0.0885
10527TIP3    H252997   3.739   6.833  17.111  1.5954 -0.6677  1.9547
10528TIP3   OH252998   5.856   0.078  12.826  0.1197  0.2872 -0.1232
10528TIP3    H152999   5.762   0.091  12.814 -0.1395 -0.0083  1.4423
10528TIP3    H253000   5.894   0.166  12.818 -0.6426  0.8643  1.9883
10529TIP3   OH253001   1.197   3.440  15.687  0.2398  0.3153 -0.0478
10529TIP3    H153002   1.134   3.506  15.716 -2.2669 -1.3950 -1.2770
10529TIP3    H253003   1.205   3.379  15.761 -1.4954 -0.7676 -0.6981
10530TIP3   OH253004   1.982   3.278  11.191  0.4366  0.1061 -0.4562
10530TIP3    H153005   1.921   3.205  11.196  1.8627 -1.1205 -0.2832
10530TIP3    H253006   2.003   3.285  11.098  0.6204  0.0137 -0.4224
10531TIP3   OH253007   1.573   6.737   1.865  0.3261  0.0553  0.0003
10531TIP3    H153008   1.631   6.679   1.817 -0.5178  0.1875 -1.2015
10531TIP3    H253009   1.621   6.821   1.868  0.5649 -0.0710 -0.2308
10532TIP3   OH253010   2.555   6.444   5.307  0.2280 -0.1652  0.3351
10532TIP3    H153011   2.647   6.456   5.332  0.4190  0.3774 -0.5566
10532TIP3    H253012   2.522   6.533   5.293 -0.0884 -0.4010 -0.4875
10533TIP3   OH253013   1.699   2.221  11.352  0.3732  0.2704  0.5339
10533TIP3    H153014   1.748   2.299  11.324 -0.1371  0.3622 -0.1397
10533TIP3    H253015   1.749   2.147  11.318 -0.4149  0.3915 -0.9397
10534TIP3   OH253016   0.142   0.284   1.305 -0.2968  0.0676 -0.0398
10534TIP3    H153017   0.202   0.306   1.233 -0.5503  1.0902  0.0562
10534TIP3    H253018   0.200   0.260   1.378  0.0047 -3.3924 -1.2249
10535TIP3   OH253019   2.268   1.237   1.689 -0.2060  0.3460  0.6187
10535TIP3    H153020   2.244   1.276   1.605 -0.3339 -1.4259 -0.2137
10535TIP3    H253021   2.187   1.236   1.739 -0.4204  0.2646  0.2724
10536TIP3   OH253022   4.571   6.228   3.783 -0.5224  0.3282 -0.4385
10536TIP3    H153023   4.651   6.249   3.831  0.4752  0.8905 -2.2166
10536TIP3    H253024   4.500   6.247   3.844  0.6829 -1.1785  1.5602
10537TIP3   OH253025   5.672   6.039  14.503  0.4783 -0.4853 -0.2051
10537TIP3    H153026   5.662   6.041  14.408  1.6164  0.0205 -0.3346
10537TIP3    H253027   5.767   6.028  14.516  0.3067 -0.7428  0.8701
10538TIP3   OH253028   6.551   2.323  11.275 -0.5830 -0.4926  0.9438
10538TIP3    H153029   6.476   2.366  11.235  1.4930  2.4191 -0.2341
10538TIP3    H253030   6.565   2.244  11.224 -0.5732  0.9681 -1.4416
10539TIP3   OH253031   2.282   2.406   2.349 -0.0809  0.0254 -0.1240
10539TIP3    H153032   2.258   2.392   2.441  0.0201  2.8894  0.4297
10539TIP3    H253033   2.373   2.435   2.351 -0.2837  0.7773 -1.0713
10540TIP3   OH253034   4.194   5.256  12.813 -0.0312  0.1292  0.0504
10540TIP3    H153035   4.238   5.171  12.814 -0.7212 -0.2636 -1.0490
10540TIP3    H253036   4.247   5.310  12.755  0.4535  0.4937  0.8137
10541TIP3   OH253037   0.167   1.365  16.512 -0.2375 -0.6033  0.1543
10541TIP3    H153038   0.116   1.285  16.500 -0.9998 -0.0964 -0.0304
10541TIP3    H253039   0.195   1.362  16.603 -0.0343 -1.2110  0.0772
10542TIP3   OH253040   1.141   5.779   4.332  0.2065 -0.8060 -0.7922
10542TIP3    H153041   1.119   5.703   4.386 -1.9906 -0.7568 -1.5112
10542TIP3    H253042   1.192   5.835   4.390 -2.6768 -0.4005  1.5952
10543TIP3   OH253043   5.197   3.115  12.797  0.0682 -0.0100  0.0215
10543TIP3    H153044   5.191   3.045  12.862  1.5424  1.0204  1.3499
10543TIP3    H253045   5.264   3.084  12.735 -0.7292 -0.6219 -0.5560
10544TIP3   OH253046   4.305   3.825   0.238  0.2109 -0.5190  0.0661
10544TIP3    H153047   4.247   3.786   0.303  0.1539 -1.4084 -0.4954
10544TIP3    H253048   4.249   3.839   0.161  0.5151 -0.4863 -0.1538
10545TIP3   OH253049   1.384   5.661   1.216 -0.1501 -0.2448  0.5202
10545TIP3    H153050   1.395   5.743   1.168  0.6109 -0.3500  0.4967
10545TIP3    H253051   1.428   5.676   1.299 -1.6999  0.0331  1.3233
10546TIP3   OH253052   0.868   1.891   0.461  0.2785 -0.4531 -0.5379
10546TIP3    H153053   0.891   1.930   0.377 -0.4472  0.2366 -0.4360
10546TIP3    H253054   0.931   1.927   0.523  2.2472 -2.6670 -1.1070
10547TIP3   OH253055   6.443   1.514   5.232 -0.3383  0.2884  0.6477
10547TIP3    H153056   6.489   1.592   5.263 -0.3733  0.3619  0.5131
10547TIP3    H253057   6.480   1.443   5.285  0.5907  0.2117 -0.0758
10548TIP3   OH253058   3.801   4.465   5.490  0.1113 -0.0746  0.4029
10548TIP3    H153059   3.737   4.525   5.451 -2.0329 -2.5856 -0.2024
10548TIP3    H253060   3.886   4.505   5.470 -1.1128  1.7675 -1.6341
10549TIP3   OH253061   3.258   2.354  10.708  0.2794 -0.4743  0.2510
10549TIP3    H153062   3.271   2.443  10.674 -0.7837  0.4889  2.2010
10549TIP3    H253063   3.227   2.304  10.633 -1.0834  1.3060 -0.4493
10550TIP3   OH253064   0.317   2.882  11.268  0.0674  0.1823 -0.3393
10550TIP3    H153065   0.287   2.813  11.328 -0.5968  2.2927  1.9488
10550TIP3    H253066   0.241   2.901  11.213  0.0991 -0.5452 -0.6453
10551TIP3   OH253067   1.086   5.597  12.461  0.0567  0.0456 -0.0684
10551TIP3    H153068   1.169   5.571  12.501  0.7566 -0.4825 -1.7649
10551TIP3    H253069   1.045   5.656  12.525  2.1628  1.0685  0.4174
10552TIP3   OH253070   2.610   4.411  12.883  0.5148 -0.1697 -0.2090
10552TIP3    H153071   2.665   4.434  12.808 -1.1316 -0.2850 -1.5008
10552TIP3    H253072   2.659   4.343  12.929  1.5735 -0.0627 -1.1511
10553TIP3   OH253073   4.224   1.042  11.552  0.0375  0.1481 -0.0000
10553TIP3    H153074   4.134   1.019  11.528 -0.4142  1.9972 -0.1969
10553TIP3    H253075   4.274   1.023  11.472  0.2140 -2.5638  0.6345
10554TIP3   OH253076   3.045   0.837   2.888  0.0767 -0.2459 -0.6123
10554TIP3    H153077   2.985   0.896   2.934  0.1436 -1.2415  0.8036
10554TIP3    H253078   3.095   0.895   2.830  0.1090  1.0970  0.6806
10555TIP3   OH253079   1.559   5.995   4.620  0.2653  0.1327  0.1836
10555TIP3    H153080   1.492   6.025   4.683 -0.0968 -0.9720  0.3472
10555TIP3    H253081   1.602   5.922   4.664  0.8563  0.1445 -0.3641
10556TIP3   OH253082   3.184   0.998   2.713 -0.0488 -0.5167 -0.1208
10556TIP3    H153083   3.188   1.092   2.697  0.3505 -0.6068 -0.5970
10556TIP3    H253084   3.272   0.966   2.689 -0.2568 -1.0405 -0.2052
10557TIP3   OH253085   1.666   2.138   1.263  0.3943 -0.0798 -0.3580
10557TIP3    H153086   1.668   2.073   1.333  1.4458 -0.2043 -0.4862
10557TIP3    H253087   1.632   2.091   1.187  1.0988 -0.4815 -0.4346
10558TIP3   OH253088   5.270   3.775   2.645 -0.1001  0.3147 -0.1722
10558TIP3    H153089   5.279   3.800   2.553 -1.5356  2.4359  0.1945
10558TIP3    H253090   5.312   3.846   2.693 -0.2037 -0.2931  0.8423
10559TIP3   OH253091   3.436   4.896   0.943 -0.7076 -0.1156 -0.0746
10559TIP3    H153092   3.387   4.955   1.002  0.2636 -0.1551  0.8012
10559TIP3    H253093   3.504   4.952   0.906 -1.3552 -0.0745 -1.2547
10560TIP3   OH253094   5.715   6.555   2.797  0.1596  0.0767 -0.1534
10560TIP3    H153095   5.712   6.573   2.891 -0.2219  2.1856 -0.5160
10560TIP3    H253096   5.734   6.640   2.757 -3.0378  0.0096 -2.1702
10561TIP3   OH253097   0.105   4.545  16.783  0.1272 -0.1859  0.5280
10561TIP3    H153098   0.162   4.606  16.736  0.1933 -0.5592  0.1184
10561TIP3    H253099   0.031   4.531  16.725 -0.3430  0.2124  1.0142
10562TIP3   OH253100   1.993   6.049  15.272  0.5091 -0.2802  0.1148
10562TIP3    H153101   1.984   6.132  15.227  0.4365 -0.9582 -1.1777
10562TIP3    H253102   2.087   6.029  15.267  0.8623  0.6264  2.1606
10563TIP3   OH253103   2.380   0.389  14.669  0.4718  0.1428 -0.1531
10563TIP3    H153104   2.320   0.338  14.615  1.3460 -0.6381 -0.4110
10563TIP3    H253105   2.461   0.392  14.618  0.6185  1.3032  0.1236
10564TIP3   OH253106   1.957   1.314  10.696 -0.7347  0.4681  0.4251
10564TIP3    H153107   1.913   1.396  10.673 -0.5750  0.6748  0.8352
10564TIP3    H253108   2.031   1.342  10.751 -0.3256  0.0974  0.0698
10565TIP3   OH253109   2.648   2.173   5.035 -0.1539  0.5025 -0.4744
10565TIP3    H153110   2.688   2.194   5.119 -0.8040  0.2635 -0.0977
10565TIP3    H253111   2.709   2.110   4.995  0.1544  0.6122 -0.1821
10566TIP3   OH253112   3.170   0.854  11.654 -0.1879  0.7906 -0.2065
10566TIP3    H153113   3.130   0.838  11.568 -1.3702  2.3812  0.0079
10566TIP3    H253114   3.181   0.949  11.658 -1.6597  0.9301  2.0431
10567TIP3   OH253115   0.768   2.058  12.594 -0.3432 -0.0662  0.0615
10567TIP3    H153116   0.739   1.974  12.629  2.0068 -1.1789 -0.4762
10567TIP3    H253117   0.728   2.063  12.507  0.3819 -1.2136 -0.3678
10568TIP3   OH253118   4.067   0.627   2.156  0.3100  0.6254  0.0895
10568TIP3    H153119   4.025   0.676   2.085  0.9235  1.6156  0.3940
10568TIP3    H253120   4.013   0.548   2.165 -0.5832  1.1362 -0.5475
10569TIP3   OH253121   4.277   2.104   1.471 -0.4837 -0.6888 -0.0146
10569TIP3    H153122   4.359   2.147   1.495 -0.1041 -1.3842 -0.0374
10569TIP3    H253123   4.235   2.165   1.410 -1.1582  0.8024  1.8348
10570TIP3   OH253124   6.440   4.572   2.471  0.2599 -0.0914  0.1087
10570TIP3    H153125   6.448   4.584   2.566  1.0475  0.0148  0.0354
10570TIP3    H253126   6.355   4.530   2.459  0.7522 -1.3963  0.9754
10571TIP3   OH253127   0.954   1.240   0.198 -0.7011  0.0857 -0.2831
10571TIP3    H153128   0.967   1.200   0.112 -0.7774 -1.4962  0.4059
10571TIP3    H253129   0.965   1.168   0.260 -1.8321  0.9322  0.9629
10572TIP3   OH253130   6.404   5.905  13.321 -0.2196  0.0166 -0.3037
10572TIP3    H153131   6.342   5.834  13.340 -0.3782  0.4190  0.7857
10572TIP3    H253132   6.467   5.866  13.261  0.4092 -1.4539  1.2282
10573TIP3   OH253133   3.414   0.740  15.330 -0.1079  0.4812  0.4071
10573TIP3    H153134   3.483   0.724  15.395  0.5668  1.2115 -0.1043
10573TIP3    H253135   3.450   0.705  15.248 -0.2434  1.0742  0.0895
10574TIP3   OH253136   0.625   4.203  16.975  0.0724 -0.3938 -0.0770
10574TIP3    H153137   0.672   4.182  17.055 -0.6934 -2.2558 -0.0717
10574TIP3    H253138   0.534   4.216  17.003  0.0437  0.2810 -0.4659
10575TIP3   OH253139   2.522   0.233   0.217 -0.2814  0.4316 -0.1783
10575TIP3    H153140   2.518   0.317   0.171  0.7853  0.2500 -0.6412
10575TIP3    H253141   2.450   0.182   0.182 -0.7392  1.0400 -0.1279
10576TIP3   OH253142   3.816   3.299   5.851  0.0621 -0.5004  0.0901
10576TIP3    H153143   3.742   3.244   5.824  0.8669 -1.7518  0.3552
10576TIP3    H253144   3.823   3.364   5.781 -1.8671  0.2546  0.5261
10577TIP3   OH253145   3.919   6.521  12.281 -0.1588 -0.1520 -0.2394
10577TIP3    H153146   3.903   6.572  12.361 -2.1355  0.2758 -0.8540
10577TIP3    H253147   3.832   6.491  12.254  0.4939 -0.4817 -2.1131
10578TIP3   OH253148   5.168   4.188   5.412 -0.1595 -0.4405  0.4020
10578TIP3    H153149   5.172   4.103   5.455 -0.0959 -0.7554 -0.2227
10578TIP3    H253150   5.253   4.196   5.368 -0.5703 -0.5139 -0.4041
10579TIP3   OH253151   2.886   6.002   6.246  0.2510  0.2758  0.0234
10579TIP3    H153152   2.880   6.097   6.237  1.1697  0.1942 -2.0406
10579TIP3    H253153   2.979   5.984   6.255 -0.0126 -0.3687  2.2668
10580TIP3   OH253154   3.298   2.000   4.486 -0.0940 -0.3183  0.4365
10580TIP3    H153155   3.383   2.037   4.463 -0.7425  0.8574 -0.1447
10580TIP3    H253156   3.255   2.068   4.538 -0.9340 -0.6352  0.1835
10581TIP3   OH253157   0.850   1.127   2.672 -0.0041  0.0448  0.1166
10581TIP3    H153158   0.919   1.190   2.654  0.6751 -1.3654 -2.9760
10581TIP3    H253159   0.894   1.055   2.718  0.9678 -1.2641 -2.6424
10582TIP3   OH253160   4.564   2.843  16.602 -0.3243 -0.4718  0.4142
10582TIP3    H153161   4.588   2.794  16.523 -0.3678 -0.2800  0.2805
10582TIP3    H253162   4.611   2.799  16.673  0.8150  0.1733  0.0973
10583TIP3   OH253163   3.015   1.129  16.961  0.4445  0.1652  0.3596
10583TIP3    H153164   3.033   1.218  16.992  1.5237  0.3500 -0.7092
10583TIP3    H253165   2.986   1.082  17.039 -2.7208  2.0554  0.4873
10584TIP3   OH253166   5.565   4.702   2.615 -0.2120  0.4193  0.3802
10584TIP3    H153167   5.570   4.792   2.583 -0.4608  0.3327  0.0904
10584TIP3    H253168   5.472   4.687   2.628 -0.3129 -0.2960 -1.0317
10585TIP3   OH253169   3.121   5.235   5.212  0.1709 -0.1230  0.0117
10585TIP3    H153170   3.205   5.201   5.180 -0.4361  0.9622 -3.0839
10585TIP3    H253171   3.120   5.327   5.186 -2.8240 -0.6223 -2.2641
10586TIP3   OH253172   3.832   4.743  10.539  0.3202  0.3674 -0.7639
10586TIP3    H153173   3.800   4.660  10.502 -0.8696  0.4095  0.0886
10586TIP3    H253174   3.808   4.737  10.632  1.5017  1.0738 -0.4029
10587TIP3   OH253175   5.242   2.334   4.554  0.0908 -0.2714  0.4343
10587TIP3    H153176   5.336   2.340   4.570  0.1991  0.0480 -0.2811
10587TIP3    H253177   5.220   2.415   4.509 -0.7776  0.2460  1.7279
10588TIP3   OH253178   2.192   3.539   6.805 -0.6291 -0.3099 -0.8347
10588TIP3    H153179   2.265   3.544   6.866 -0.0828  1.8214 -1.5983
10588TIP3    H253180   2.114   3.544   6.861 -0.1426  0.6830 -0.2206
10589TIP3   OH253181   5.134   5.141   2.552 -0.5154 -0.0096 -0.3750
10589TIP3    H153182   5.155   5.050   2.531 -1.1854 -0.2209 -0.1540
10589TIP3    H253183   5.219   5.184   2.560 -0.1952 -0.6037 -0.5448
10590TIP3   OH253184   2.741   0.286  11.926  0.1778 -0.4417 -0.1259
10590TIP3    H153185   2.784   0.314  11.845  0.3984  1.2567  0.5261
10590TIP3    H253186   2.782   0.202  11.947  1.2748 -0.1322 -0.9189
10591TIP3   OH253187   5.681   6.430   1.684  0.1864 -0.0569 -0.2108
10591TIP3    H153188   5.717   6.395   1.603  0.1861  0.5702 -0.4879
10591TIP3    H253189   5.588   6.443   1.665 -0.0186 -0.8161  0.2092
10592TIP3   OH253190   4.958   2.316   3.288 -0.2069  0.4363  0.2694
10592TIP3    H153191   4.950   2.389   3.226  0.0287 -0.3370 -0.6989
10592TIP3    H253192   5.004   2.248   3.239  1.5862  0.4210  1.8520
10593TIP3   OH253193   2.088   3.751   1.627 -0.8185  0.3206 -0.5018
10593TIP3    H153194   2.103   3.659   1.604 -2.0939  0.1594 -0.7773
10593TIP3    H253195   2.140   3.800   1.563  2.6457 -0.1484  1.6701
10594TIP3   OH253196   5.759   0.208  12.347 -0.0667 -0.2293 -0.0054
10594TIP3    H153197   5.695   0.174  12.410  0.2874 -0.3845  0.2706
10594TIP3    H253198   5.804   0.130  12.314  1.0947 -0.0101  0.9940
10595TIP3   OH253199   3.660   2.477  11.620 -0.1333  0.0072 -0.1591
10595TIP3    H153200   3.569   2.508  11.614  0.0881  0.5877 -0.7434
10595TIP3    H253201   3.673   2.457  11.712 -0.9962 -0.5250 -0.1378
10596TIP3   OH253202   6.481   1.712   1.175  0.2095  0.5188 -0.1458
10596TIP3    H153203   6.508   1.636   1.123  0.3185 -0.6154  1.4829
10596TIP3    H253204   6.388   1.724   1.152  0.0987 -0.3209 -0.1991
10597TIP3   OH253205   1.129   3.093   5.396  0.1877 -0.0405  0.0089
10597TIP3    H153206   1.119   3.160   5.463 -1.3530  1.4526 -1.6364
10597TIP3    H253207   1.202   3.123   5.342 -0.5969  0.4429 -0.8173
10598TIP3   OH253208   1.745   3.895  12.100 -0.3282 -0.3251  0.5752
10598TIP3    H153209   1.678   3.832  12.074  0.0252 -0.2224 -0.6178
10598TIP3    H253210   1.810   3.892  12.030  0.4206  0.3069  1.2280
10599TIP3   OH253211   0.460   0.970  14.226  0.2556 -0.2373  0.1923
10599TIP3    H153212   0.400   0.966  14.301  1.8545  0.1139  1.5675
10599TIP3    H253213   0.496   1.058  14.229  2.1831 -0.9857  0.5551
10600TIP3   OH253214   3.278   4.594  11.635  0.0415  0.3151 -0.3001
10600TIP3    H153215   3.324   4.645  11.703 -1.3074 -0.9928  1.6801
10600TIP3    H253216   3.192   4.636  11.628 -0.3912 -0.5147 -0.0332
10601TIP3   OH253217   0.034   0.169  12.482 -0.2154 -0.1528 -0.2810
10601TIP3    H153218  -0.031   0.227  12.442 -0.8422 -0.3368  0.4553
10601TIP3    H253219   0.116   0.191  12.437 -0.8173 -0.0875 -1.4023
10602TIP3   OH253220   1.254   6.133   1.176 -0.3920 -0.0056  0.2455
10602TIP3    H153221   1.190   6.121   1.246  0.8452  0.6984  1.5520
10602TIP3    H253222   1.209   6.186   1.111 -2.2758 -2.3632 -0.5490
10603TIP3   OH253223   0.662   0.693  14.370 -0.0725 -0.5975  0.7337
10603TIP3    H153224   0.655   0.751  14.446  1.5069  0.7685 -0.1101
10603TIP3    H253225   0.737   0.637  14.390 -0.2549 -0.8958  0.5912
10604TIP3   OH253226   1.431   5.275  11.512 -0.6178  0.2095 -0.2052
10604TIP3    H153227   1.358   5.277  11.450 -1.1391  0.2485  0.3981
10604TIP3    H253228   1.419   5.354  11.565 -0.2900  0.0771  0.0667
10605TIP3   OH253229   2.916   3.372   0.644 -0.2920  0.3688  0.4173
10605TIP3    H153230   2.922   3.381   0.739 -1.0814  4.3870  0.2820
10605TIP3    H253231   2.823   3.383   0.624  0.0437  1.0560 -0.8833
10606TIP3   OH253232   4.335   4.815   1.575 -0.6555 -0.1190 -0.0076
10606TIP3    H153233   4.262   4.840   1.518 -0.6487 -0.0074  0.0333
10606TIP3    H253234   4.311   4.728   1.608 -0.0980 -0.7366 -1.1487
10607TIP3   OH253235   6.362   5.719   2.220  0.4385  0.2394  0.0281
10607TIP3    H153236   6.452   5.689   2.209  0.1859 -0.6009  0.2403
10607TIP3    H253237   6.345   5.711   2.314 -0.2158 -0.6417 -0.1588
10608TIP3   OH253238   1.628   4.820  12.775  0.2799  0.2988  0.3661
10608TIP3    H153239   1.678   4.741  12.753 -1.4058 -0.8388  0.4972
10608TIP3    H253240   1.619   4.817  12.870 -0.4559  0.2336  0.2941
10609TIP3   OH253241   1.141   0.964   5.264  0.0490 -0.1974  0.2781
10609TIP3    H153242   1.079   0.946   5.335  2.2531 -0.0131  2.4055
10609TIP3    H253243   1.206   0.894   5.272 -0.6623 -1.4078 -3.0063
10610TIP3   OH253244   2.379   2.887   5.245  0.0223  0.1604 -0.0400
10610TIP3    H153245   2.312   2.903   5.312 -0.9314  0.2784 -0.9867
10610TIP3    H253246   2.397   2.793   5.252 -1.4634 -0.2251 -0.8283
10611TIP3   OH253247   5.683   6.068   2.554 -0.2205 -0.5877  0.0086
10611TIP3    H153248   5.689   6.163   2.564  2.9897 -0.7957  1.0952
10611TIP3    H253249   5.750   6.046   2.490 -0.5980 -2.1652  0.1142
10612TIP3   OH253250   5.165   2.704  12.021 -0.8633  0.6476 -0.4195
10612TIP3    H153251   5.077   2.730  12.049 -0.7291  3.3997 -2.1446
10612TIP3    H253252   5.221   2.725  12.096 -1.6976 -1.9946  1.0455
10613TIP3   OH253253   5.899   5.021  15.378  0.5382 -0.0605  0.3515
10613TIP3    H153254   5.894   5.068  15.295  0.6642  0.1254  0.4471
10613TIP3    H253255   5.908   5.090  15.444  1.7180 -0.2475  0.4127
10614TIP3   OH253256   6.200   2.733   3.492 -0.1572  0.5320  0.7412
10614TIP3    H153257   6.282   2.777   3.470 -0.4115  1.3835  1.4479
10614TIP3    H253258   6.198   2.733   3.588 -1.4213  1.3880  0.7445
10615TIP3   OH253259   1.800   2.150  13.906  0.6561  0.3297 -0.0122
10615TIP3    H153260   1.742   2.074  13.901  0.6801  0.3126 -0.0309
10615TIP3    H253261   1.888   2.113  13.917  0.5813  0.3702  0.7461
10616TIP3   OH253262   6.760   0.490  13.412  0.2916 -0.3675 -0.3358
10616TIP3    H153263   6.842   0.499  13.461 -0.3637  1.5620  0.4965
10616TIP3    H253264   6.777   0.532  13.328 -0.3629  1.8189  0.5590
10617TIP3   OH253265   0.366   5.920  11.727 -0.4987 -0.1251  0.1503
10617TIP3    H153266   0.423   5.901  11.802 -2.2832 -0.1552  1.5777
10617TIP3    H253267   0.333   5.834  11.700 -1.7728  0.0767  0.9674
10618TIP3   OH253268   2.400   1.872  11.157 -0.3337 -0.3265 -0.2704
10618TIP3    H153269   2.473   1.862  11.096  0.6507  0.5291  0.7310
10618TIP3    H253270   2.326   1.831  11.113  0.5532 -0.4713 -1.6719
10619TIP3   OH253271   1.523   4.899  14.828 -0.2907 -0.1572  0.4236
10619TIP3    H153272   1.559   4.947  14.901  1.3238 -1.7535  0.7592
10619TIP3    H253273   1.598   4.884  14.770 -0.9846 -1.1870 -0.2399
10620TIP3   OH253274   0.665   5.868  13.601  0.1642  0.3577  0.1023
10620TIP3    H153275   0.753   5.881  13.637 -0.4860  2.4701  1.0246
10620TIP3    H253276   0.606   5.883  13.674 -1.0860  1.9494 -1.1696
10621TIP3   OH253277   3.312   4.998  16.417 -0.0093 -0.7931 -0.6306
10621TIP3    H153278   3.388   4.985  16.474 -0.0465  0.4587 -0.2701
10621TIP3    H253279   3.328   5.082  16.376 -1.1910 -0.5412 -0.5843
10622TIP3   OH253280   2.402   0.750  15.401  0.0042 -0.3698 -0.3385
10622TIP3    H153281   2.398   0.672  15.346  1.8246 -2.3567  2.1308
10622TIP3    H253282   2.487   0.789  15.383  0.1752 -0.4331  0.3193
10623TIP3   OH253283   0.349   5.455   0.569 -0.1657 -0.5157  0.0542
10623TIP3    H153284   0.313   5.514   0.635 -0.6361 -0.7267 -0.0060
10623TIP3    H253285   0.442   5.448   0.591  0.0206  0.7103 -0.3042
10624TIP3   OH253286   5.691   4.164   2.073  0.4072  0.6263  0.5114
10624TIP3    H153287   5.687   4.133   1.982 -0.4521 -1.6450  1.2415
10624TIP3    H253288   5.644   4.247   2.072 -0.7627 -0.0076 -0.8901
10625TIP3   OH253289   3.815   4.912  14.556 -0.3734  0.1251  0.5843
10625TIP3    H153290   3.761   4.834  14.565 -0.4906  0.1256 -0.1188
10625TIP3    H253291   3.892   4.894  14.609 -0.6468 -0.2456  0.8561
10626TIP3   OH253292   6.361   5.932  14.956  0.0383  0.2640  0.2764
10626TIP3    H153293   6.278   5.906  14.997  0.9423 -1.9003  0.8861
10626TIP3    H253294   6.407   5.981  15.024  0.0752 -0.2518  0.6249
10627TIP3   OH253295   1.578   2.847  14.736  0.5037  0.1219 -1.3742
10627TIP3    H153296   1.511   2.909  14.708  0.9430  0.9141 -0.7175
10627TIP3    H253297   1.658   2.898  14.739  0.4683  0.1924  1.4612
10628TIP3   OH253298   2.713   4.873  11.772  0.3332 -0.2026  0.0079
10628TIP3    H153299   2.651   4.893  11.842  1.8654  0.5758  1.2071
10628TIP3    H253300   2.791   4.843  11.817  1.0512 -0.5809 -1.4278
10629TIP3   OH253301   5.311   4.723   2.275  0.2675 -0.1503 -0.0692
10629TIP3    H153302   5.383   4.661   2.282  0.6720  0.2729 -0.3804
10629TIP3    H253303   5.298   4.733   2.180  0.6076  0.6859 -0.0367
10630TIP3   OH253304   3.061   2.056   1.600  0.1062 -0.2726 -0.6424
10630TIP3    H153305   3.007   2.128   1.632  1.0397  0.3457 -0.4226
10630TIP3    H253306   2.999   1.986   1.581 -1.0399  1.2006 -2.6279
10631TIP3   OH253307   3.558   3.822   2.311 -0.1353 -0.1693  0.0872
10631TIP3    H153308   3.591   3.876   2.383 -0.7440  0.4206 -0.0654
10631TIP3    H253309   3.542   3.885   2.240  2.2685 -0.9492 -1.2730
10632TIP3   OH253310   0.658   3.162   3.178  0.5076  0.3380 -0.1267
10632TIP3    H153311   0.610   3.194   3.102 -1.6105 -2.0720  0.0580
10632TIP3    H253312   0.741   3.130   3.143  0.1702  0.5877 -1.1777
10633TIP3   OH253313   0.236   1.948   4.465 -0.4278 -0.7142 -0.2711
10633TIP3    H153314   0.282   2.027   4.494 -0.9303 -0.1682 -0.9502
10633TIP3    H253315   0.231   1.893   4.544  0.9979 -0.6054 -0.0768
10634TIP3   OH253316   4.421   4.696  15.424 -0.4725 -0.3257 -0.4393
10634TIP3    H153317   4.499   4.717  15.371 -0.5238 -2.9441 -1.7164
10634TIP3    H253318   4.435   4.605  15.451 -2.1446 -0.1607  1.0969
10635TIP3   OH253319   0.535   0.201  12.386 -0.2655 -0.1991 -0.2629
10635TIP3    H153320   0.559   0.183  12.477 -0.5685  2.4623  0.4308
10635TIP3    H253321   0.533   0.297  12.380 -2.3667 -0.2800 -2.5151
10636TIP3   OH253322   3.820   4.932   4.698  0.3894 -0.3830 -0.0935
10636TIP3    H153323   3.811   5.026   4.715 -1.4619 -0.6193  0.4767
10636TIP3    H253324   3.898   4.925   4.644  0.3088  1.5325 -0.5387
10637TIP3   OH253325   4.822   1.943  11.231  0.2559  0.4688 -0.0924
10637TIP3    H153326   4.779   2.003  11.170  2.6309  1.1514 -1.2328
10637TIP3    H253327   4.910   1.980  11.242  1.2112 -1.8367  0.5810
10638TIP3   OH253328   1.352   4.029   1.353  0.1582 -0.1796  0.7200
10638TIP3    H153329   1.312   4.049   1.268  0.5749 -0.8732  0.3466
10638TIP3    H253330   1.278   4.020   1.413 -0.3489 -2.2315 -0.1240
10639TIP3   OH253331   3.989   1.710   2.627 -0.3906 -0.4864 -0.2811
10639TIP3    H153332   4.052   1.698   2.556  1.5702 -1.9920  1.5640
10639TIP3    H253333   3.919   1.763   2.589  1.0195 -0.4222 -3.0191
10640TIP3   OH253334   2.968   0.271  14.619  0.0229 -0.3377  0.0484
10640TIP3    H153335   2.923   0.200  14.573 -0.5124 -0.2606  0.4461
10640TIP3    H253336   2.971   0.343  14.555  0.5439 -0.7087 -0.3460
10641TIP3   OH253337   5.329   1.100   4.788  0.6318 -0.0804  0.3196
10641TIP3    H153338   5.259   1.070   4.846  0.3167  0.2406  0.1074
10641TIP3    H253339   5.299   1.185   4.756  0.3890 -0.6391 -0.9909
10642TIP3   OH253340   6.498   1.245  14.975  0.0596 -0.7107  0.2197
10642TIP3    H153341   6.571   1.305  14.963 -0.9477  0.9597  1.8916
10642TIP3    H253342   6.457   1.273  15.057 -2.2256 -1.8203 -0.4549
10643TIP3   OH253343   3.397   1.362  11.402  0.0988 -0.0951 -0.1348
10643TIP3    H153344   3.365   1.419  11.332 -1.0031  0.8816  1.0998
10643TIP3    H253345   3.349   1.391  11.480  2.0310 -0.4539  1.2487
10644TIP3   OH253346   2.092   3.947  14.406 -0.2047  0.4737 -0.3069
10644TIP3    H153347   2.007   3.908  14.384 -0.9975  1.5297  0.7736
10644TIP3    H253348   2.116   3.907  14.489  0.5433 -0.0591 -0.7591
10645TIP3   OH253349   2.205   3.365  10.950  0.3305 -0.0492  0.0882
10645TIP3    H153350   2.284   3.334  10.906 -1.2874 -3.0355 -1.0653
10645TIP3    H253351   2.235   3.434  11.009  3.6809 -0.7286 -0.6145
10646TIP3   OH253352   6.514   5.228  13.621 -0.5290 -0.6966  0.3299
10646TIP3    H153353   6.451   5.278  13.673  1.1244  0.6388  1.1322
10646TIP3    H253354   6.536   5.153  13.676  0.1735 -0.0166  1.0043
10647TIP3   OH253355   1.193   6.715  14.901  0.0133 -0.5431  0.4398
10647TIP3    H153356   1.272   6.720  14.955 -0.3855  0.9733  0.9339
10647TIP3    H253357   1.135   6.655  14.947  0.0552 -0.0122  1.1935
10648TIP3   OH253358   4.033   3.627  11.595  0.3539  0.1420  0.2467
10648TIP3    H153359   4.016   3.563  11.527  0.9213  0.4519 -0.2049
10648TIP3    H253360   3.987   3.706  11.566  0.1699  0.1192  0.4806
10649TIP3   OH253361   5.831   3.990  12.925  0.5489  0.0257  0.6132
10649TIP3    H153362   5.809   3.957  12.837 -0.2313 -0.0269  0.8177
10649TIP3    H253363   5.748   4.020  12.960  0.9100  0.3128  1.2317
10650TIP3   OH253364   0.581   4.396   2.974  0.0026  0.4263  0.0190
10650TIP3    H153365   0.508   4.335   2.978  0.5442 -0.3082 -0.8618
10650TIP3    H253366   0.644   4.355   2.915  1.2641  0.8990  0.9781
10651TIP3   OH253367   0.076   5.195  10.554 -0.4446  0.3532 -0.2234
10651TIP3    H153368   0.122   5.266  10.510 -2.9908  1.8663 -0.6746
10651TIP3    H253369   0.105   5.200  10.645  0.3602  1.1327 -0.5112
10652TIP3   OH253370   2.171   4.069  14.056 -0.0554 -0.0969  0.3989
10652TIP3    H153371   2.198   4.113  13.976  0.8053 -0.8904  0.2344
10652TIP3    H253372   2.091   4.022  14.033  0.1531 -0.2652  0.0232
10653TIP3   OH253373   1.151   6.088   3.475 -0.0661  0.2409  0.2706
10653TIP3    H153374   1.056   6.076   3.485 -0.3489  1.0341 -1.2887
10653TIP3    H253375   1.187   6.000   3.490 -0.9755  0.0186  1.3650
10654TIP3   OH253376   4.119   3.743   2.309 -0.6428 -0.2429  0.2917
10654TIP3    H153377   4.144   3.695   2.388  0.8095 -1.9056 -1.0769
10654TIP3    H253378   4.175   3.821   2.309 -0.1273 -0.6063  0.5510
10655TIP3   OH253379   2.642   1.157   1.046  0.4059  0.3954  0.7784
10655TIP3    H153380   2.683   1.195   1.124  0.2058 -0.6483  1.4061
10655TIP3    H253381   2.684   1.202   0.973  2.7297 -0.6396  1.3861
10656TIP3   OH253382   1.733   5.740  13.165  0.4764 -0.4612  0.1035
10656TIP3    H153383   1.809   5.760  13.221  0.6911 -1.0032  0.0157
10656TIP3    H253384   1.766   5.752  13.076  0.8346 -1.8910  0.0181
10657TIP3   OH253385   6.257   3.244   3.407 -0.1390 -0.1856 -0.8571
10657TIP3    H153386   6.197   3.275   3.340 -1.0526 -1.1191 -0.5005
10657TIP3    H253387   6.297   3.165   3.368 -0.2162 -0.3817 -0.5398
10658TIP3   OH253388   2.925   5.599  11.669 -0.4784  0.0074 -0.7230
10658TIP3    H153389   2.920   5.658  11.744 -2.7715  1.3318 -1.8219
10658TIP3    H253390   2.983   5.643  11.607  2.0426 -1.4406  0.4427
10659TIP3   OH253391   5.264   5.437  13.530 -0.3280  0.2869  0.3104
10659TIP3    H153392   5.305   5.448  13.444  1.1618 -3.1513  0.4252
10659TIP3    H253393   5.318   5.371  13.574 -2.9508 -0.5216  2.6085
10660TIP3   OH253394   6.476   1.159   0.198 -0.0814  0.1460 -0.9735
10660TIP3    H153395   6.427   1.135   0.277 -0.8389 -0.1236 -1.5113
10660TIP3    H253396   6.496   1.252   0.209 -0.8693  0.3013 -0.8234
10661TIP3   OH253397   4.864   1.002  13.896  0.5211 -0.3740 -0.4154
10661TIP3    H153398   4.907   0.918  13.906  0.3817 -0.3027  1.0215
10661TIP3    H253399   4.771   0.981  13.890  0.5000 -0.3435 -0.2165
10662TIP3   OH253400   3.348   1.063  13.892 -0.8613  0.1481  0.1035
10662TIP3    H153401   3.431   1.016  13.887 -1.8102 -1.4408 -2.0203
10662TIP3    H253402   3.373   1.153  13.911  1.1199 -0.7909  2.5788
10663TIP3   OH253403   5.524   1.650  16.104  0.2752 -0.1217  0.4490
10663TIP3    H153404   5.543   1.656  16.198  1.3633  0.2633  0.2237
10663TIP3    H253405   5.560   1.566  16.078  0.8975  0.2140  0.1940
10664TIP3   OH253406   0.377   5.111  15.453  0.2623  0.6634  0.1052
10664TIP3    H153407   0.354   5.130  15.362 -1.7432 -0.2348  0.3738
10664TIP3    H253408   0.428   5.030  15.448 -0.5147  0.1793 -0.1841
10665TIP3   OH253409   3.419   2.020   0.264 -0.5571 -0.1028 -0.2014
10665TIP3    H153410   3.326   2.043   0.263 -0.6468 -0.3905 -2.1976
10665TIP3    H253411   3.422   1.930   0.230  0.4497 -0.0642 -0.2408
10666TIP3   OH253412   4.103   4.666   3.965  0.5048  0.0767  0.2633
10666TIP3    H153413   4.027   4.649   3.910 -0.7555  0.9005  1.6915
10666TIP3    H253414   4.173   4.687   3.904 -0.9392  1.3248 -1.0129
10667TIP3   OH253415   1.760   1.022   2.600  0.4351  0.0393 -0.8788
10667TIP3    H153416   1.734   0.930   2.602  0.4241  0.0506 -0.3223
10667TIP3    H253417   1.690   1.065   2.550 -0.3915 -0.0039  0.2103
10668TIP3   OH253418   4.086   6.337   2.426  0.1175  0.3558  1.0941
10668TIP3    H153419   4.001   6.382   2.420  0.6013  1.1038 -1.1531
10668TIP3    H253420   4.103   6.307   2.337  1.4686 -1.2743  1.8460
10669TIP3   OH253421   6.349   0.456   3.397  0.3083 -0.2249  0.2808
10669TIP3    H153422   6.329   0.544   3.427 -0.2257 -0.5279  0.8460
10669TIP3    H253423   6.266   0.422   3.363  0.7355 -0.1535 -0.9042
10670TIP3   OH253424   0.261   6.068   1.108 -0.0069  0.1664 -0.4106
10670TIP3    H153425   0.181   6.015   1.102  1.0480 -1.4199 -1.1566
10670TIP3    H253426   0.289   6.060   1.199 -0.1781 -0.0595 -0.3786
10671TIP3   OH253427   4.471   6.145  15.631 -0.2458 -0.0052 -0.0613
10671TIP3    H153428   4.496   6.139  15.539 -0.4600  0.9114 -0.1825
10671TIP3    H253429   4.546   6.185  15.674  0.3749 -1.5766  0.4086
10672TIP3   OH253430   1.869   4.146  11.872 -0.2535 -0.4957  0.0585
10672TIP3    H153431   1.907   4.086  11.807  0.1250 -0.6255  0.3913
10672TIP3    H253432   1.784   4.169  11.837 -0.3142 -1.0656 -0.1824
10673TIP3   OH253433   5.228   4.952   0.950  0.1071  0.4239  0.6223
10673TIP3    H153434   5.224   4.863   0.984  0.6815  0.6027  1.2043
10673TIP3    H253435   5.318   4.980   0.968  0.1602  0.8531 -0.2557
10674TIP3   OH253436   0.097   0.325   3.502 -0.2321 -0.1629  0.6536
10674TIP3    H153437   0.145   0.408   3.507  1.1051 -0.8994  0.5551
10674TIP3    H253438   0.165   0.258   3.510 -1.2845 -1.2552  0.6781
10675TIP3   OH253439   0.920   4.076   0.221  0.2291  0.2323 -0.2285
10675TIP3    H153440   0.874   4.104   0.300  0.6787  0.7962 -0.1581
10675TIP3    H253441   0.863   4.010   0.182 -1.5159  2.1340 -1.0699
10676TIP3   OH253442   3.185   1.984  16.385 -0.4134  0.1238  0.4340
10676TIP3    H153443   3.168   2.074  16.411  1.0686  0.8814 -1.0156
10676TIP3    H253444   3.192   1.987  16.290  0.5766 -1.3408  0.4250
10677TIP3   OH253445   1.181   6.219   4.854  0.2937 -0.5032 -0.2817
10677TIP3    H153446   1.103   6.250   4.809  2.0381  1.5900 -2.1308
10677TIP3    H253447   1.177   6.259   4.941 -0.3209  0.2208 -0.6361
10678TIP3   OH253448   5.690   3.356  12.218  0.2394 -0.3355  0.1194
10678TIP3    H153449   5.761   3.301  12.251  0.7785  0.5329  0.4650
10678TIP3    H253450   5.654   3.308  12.144  0.3244 -1.3987  0.7574
10679TIP3   OH253451   1.689   4.967  14.403 -0.0260 -0.1723 -0.8104
10679TIP3    H153452   1.615   5.025  14.421  0.5143  0.5058 -0.7624
10679TIP3    H253453   1.690   4.959  14.308  0.0045  0.0395 -0.8294
10680TIP3   OH253454   1.623   1.892  16.307  0.2402  0.1245  0.4545
10680TIP3    H153455   1.667   1.875  16.391  1.6242  0.2440 -0.2206
10680TIP3    H253456   1.689   1.872  16.241 -0.2904  1.5825 -0.5632
10681TIP3   OH253457   3.186   4.325   6.292  0.4871  0.5566  0.2423
10681TIP3    H153458   3.220   4.307   6.380 -1.1340 -0.7775  0.6442
10681TIP3    H253459   3.143   4.243   6.266  1.1659  0.8239 -1.9245
10682TIP3   OH253460   0.676   0.068  16.009 -0.0833 -0.1319  0.4231
10682TIP3    H153461   0.665   0.122  16.088  0.1514  0.7499 -0.1315
10682TIP3    H253462   0.651   0.126  15.937 -0.4100 -0.9721 -0.1459
10683TIP3   OH253463   2.224   3.630   5.544 -0.2383 -0.4099  0.6964
10683TIP3    H153464   2.188   3.555   5.497 -1.0972  1.2321 -1.4306
10683TIP3    H253465   2.166   3.642   5.619 -1.9170 -0.1330 -0.5756
10684TIP3   OH253466   1.987   3.335   3.555  0.3505  0.2959  0.0716
10684TIP3    H153467   2.044   3.348   3.479  1.4475  0.6707  0.9287
10684TIP3    H253468   2.044   3.349   3.630 -0.9144  0.8245  0.9727
10685TIP3   OH253469   1.143   6.631  14.610 -0.2684  0.8055 -0.1831
10685TIP3    H153470   1.147   6.724  14.589 -0.9849  0.4809 -1.9275
10685TIP3    H253471   1.169   6.626  14.702 -1.4641  2.8691  0.3418
10686TIP3   OH253472   4.609   0.611   4.409 -0.4097 -0.5543 -0.2886
10686TIP3    H153473   4.560   0.629   4.489 -1.9633 -0.9184 -1.1030
10686TIP3    H253474   4.638   0.521   4.418 -2.6228 -1.4204 -1.0677
10687TIP3   OH253475   0.413   5.461  12.091  0.7510  0.1511 -0.2324
10687TIP3    H153476   0.475   5.397  12.056  2.1369  0.6167  1.2609
10687TIP3    H253477   0.446   5.480  12.179 -1.6457  0.2740  0.6956
10688TIP3   OH253478   2.470   4.795   0.876  0.2369  0.2483 -0.0814
10688TIP3    H153479   2.387   4.756   0.901 -0.3872  1.7393  0.2682
10688TIP3    H253480   2.534   4.725   0.887 -0.7219 -0.4576  1.2019
10689TIP3   OH253481   2.152   1.591   5.189 -0.6271  0.3182 -0.6964
10689TIP3    H153482   2.083   1.524   5.188  0.4520 -0.8394 -2.6539
10689TIP3    H253483   2.119   1.660   5.132 -0.2914 -0.1397 -1.4617
10690TIP3   OH253484   1.723   5.074   2.458 -0.0293  0.0241  0.1566
10690TIP3    H153485   1.637   5.069   2.417 -0.6526 -1.3021  1.5399
10690TIP3    H253486   1.713   5.026   2.540  2.2060 -0.6840  0.0570
10691TIP3   OH253487   5.300   0.681  11.498  0.1875  0.0276 -0.5773
10691TIP3    H153488   5.374   0.693  11.439  0.4579  1.1700 -0.0289
10691TIP3    H253489   5.245   0.616  11.455  2.0046 -1.6429 -0.5193
10692TIP3   OH253490   0.911   6.605  10.901  0.1138  0.2851  0.1381
10692TIP3    H153491   0.906   6.701  10.898 -2.7436  0.2140 -0.3265
10692TIP3    H253492   0.967   6.582  10.827 -0.0310  1.5830 -0.4062
10693TIP3   OH253493   3.970   4.316   4.502  0.1738  0.5677 -0.0091
10693TIP3    H153494   3.960   4.411   4.511  1.7283  0.6337  1.7185
10693TIP3    H253495   4.049   4.305   4.449 -0.7191  0.2052 -1.2929
10694TIP3   OH253496   6.719   3.680  12.836  0.4593  0.2571 -0.1179
10694TIP3    H153497   6.794   3.653  12.782 -0.1389 -1.2005 -0.2734
10694TIP3    H253498   6.740   3.650  12.924  0.9347  1.6510  0.2740
10695TIP3   OH253499   4.269   4.416   3.068 -0.0206 -0.1372  0.1576
10695TIP3    H153500   4.323   4.452   2.998  3.5917 -3.6313  0.7527
10695TIP3    H253501   4.208   4.357   3.023 -0.1130  0.2739 -0.2553
10696TIP3   OH253502   5.436   2.616  16.278 -0.4667 -0.2343 -0.0322
10696TIP3    H153503   5.401   2.684  16.220 -1.0865  0.4423  1.0981
10696TIP3    H253504   5.359   2.570  16.310 -0.0648 -1.3759 -0.6279
10697TIP3   OH253505   4.492   0.960   2.687  0.0471  0.2628  0.1299
10697TIP3    H153506   4.532   0.912   2.614 -2.5878 -0.5512 -0.9125
10697TIP3    H253507   4.481   1.049   2.653 -0.1607  0.1648 -0.0654
10698TIP3   OH253508   0.630   5.693   4.368 -0.0412  0.2247 -0.0103
10698TIP3    H153509   0.667   5.779   4.348  1.0504 -0.3985 -0.8124
10698TIP3    H253510   0.686   5.632   4.320 -1.8938 -0.8107 -0.9670
10699TIP3   OH253511   1.114   2.261   0.327 -0.2229  0.0428  0.3884
10699TIP3    H153512   1.181   2.289   0.390 -0.4245  0.6338  0.3377
10699TIP3    H253513   1.137   2.304   0.245 -0.2114 -0.3851  0.1639
10700TIP3   OH253514   2.897   5.202  12.135 -0.4423  0.3576  0.4313
10700TIP3    H153515   2.962   5.182  12.068  0.5820  1.5220  1.0356
10700TIP3    H253516   2.935   5.169  12.216 -2.2002 -2.1353  0.3641
10701TIP3   OH253517   2.034   4.066   2.155  0.1638 -0.3023  0.7855
10701TIP3    H153518   1.989   3.981   2.159  0.3190 -0.4375 -0.1959
10701TIP3    H253519   1.968   4.126   2.119 -0.5092  0.4044  3.0201
10702TIP3   OH253520   2.546   5.745  16.822  0.4815  0.2197  0.0843
10702TIP3    H153521   2.608   5.724  16.752 -0.1349 -0.0291 -0.3921
10702TIP3    H253522   2.590   5.811  16.874  0.7782  0.7190 -0.7858
10703TIP3   OH253523   0.961   3.533  11.905  0.4323 -0.4335 -0.2490
10703TIP3    H153524   0.894   3.586  11.947  0.3505 -0.8006  0.0851
10703TIP3    H253525   0.930   3.443  11.915  1.4385 -0.6855  0.7569
10704TIP3   OH253526   4.293   1.451   1.472 -0.2365  0.3336 -0.3312
10704TIP3    H153527   4.345   1.372   1.458  0.9485  1.3828 -2.2964
10704TIP3    H253528   4.236   1.457   1.396  0.6147  2.0200 -0.8840
10705TIP3   OH253529   5.405   4.109  12.770 -0.1388 -0.3002  0.6260
10705TIP3    H153530   5.484   4.084  12.722 -0.5426  0.6127 -0.5377
10705TIP3    H253531   5.375   4.190  12.729 -1.3668 -0.3140  1.4233
10706TIP3   OH253532   3.136   0.977  13.025  0.0979 -0.0353 -0.4815
10706TIP3    H153533   3.060   1.031  13.003 -0.7263 -0.6276  0.7962
10706TIP3    H253534   3.158   1.002  13.115  1.9930  0.7549 -1.1176
10707TIP3   OH253535   5.661   0.546  13.546 -0.4014 -0.0269  0.0725
10707TIP3    H153536   5.745   0.533  13.502 -0.1146  0.0975  0.5776
10707TIP3    H253537   5.601   0.574  13.476  0.1657  0.6191 -0.1618
10708TIP3   OH253538   6.485   1.055   1.508  0.1558  0.4544 -0.6481
10708TIP3    H153539   6.542   1.089   1.439  0.9896  0.0112 -0.1915
10708TIP3    H253540   6.542   1.003   1.564 -0.9944 -1.3547 -1.0599
10709TIP3   OH253541   3.635   0.421   3.054 -0.1131  0.1296 -0.1623
10709TIP3    H153542   3.672   0.362   3.119  0.8281  0.4996 -0.3277
10709TIP3    H253543   3.556   0.456   3.094 -1.6314 -2.4507 -0.7017
10710TIP3   OH253544   3.779   1.078   1.684 -0.2168 -0.4304  0.2523
10710TIP3    H153545   3.783   1.127   1.602  3.6661 -1.6892 -0.5386
10710TIP3    H253546   3.753   0.989   1.657 -0.6051 -0.4518  0.6777
10711TIP3   OH253547   2.413   1.726  14.804  0.1080 -0.1171  0.2813
10711TIP3    H153548   2.486   1.665  14.794  0.2556  0.3124 -1.6910
10711TIP3    H253549   2.438   1.781  14.878  1.2266 -0.7132  0.3754
10712TIP3   OH253550   1.599   3.264  12.082 -0.0301 -0.4667  0.0707
10712TIP3    H153551   1.589   3.227  12.170 -1.2147  0.8777  0.5552
10712TIP3    H253552   1.680   3.226  12.048  0.8275 -0.4939  2.0232
10713TIP3   OH253553   2.394   0.699   2.887  0.0618  0.2392 -0.4892
10713TIP3    H153554   2.413   0.717   2.795  1.6312  2.2240  0.1436
10713TIP3    H253555   2.300   0.685   2.890  0.1819 -1.5723 -2.6061
10714TIP3   OH253556   6.306   1.948   2.577 -0.4520  0.0430 -0.5889
10714TIP3    H153557   6.312   1.861   2.537 -1.8496  0.0638 -0.8790
10714TIP3    H253558   6.266   2.003   2.510 -2.4362  0.1851  0.6214
10715TIP3   OH253559   0.557   4.086  16.729 -0.1473 -0.2284 -0.5201
10715TIP3    H153560   0.469   4.050  16.721  0.2783 -1.0415 -2.1467
10715TIP3    H253561   0.554   4.142  16.806 -1.8029 -1.0375  0.0514
10716TIP3   OH253562   4.205   2.260  11.879 -0.3443 -0.2619  0.0382
10716TIP3    H153563   4.112   2.241  11.880 -0.3851 -0.1922 -1.4443
10716TIP3    H253564   4.244   2.190  11.828 -0.0136  1.3871 -2.1236
10717TIP3   OH253565   1.739   0.991   5.773  0.2189  0.2242 -0.2970
10717TIP3    H153566   1.818   1.018   5.726  0.0413 -0.3598 -0.9484
10717TIP3    H253567   1.770   0.925   5.835  0.1266 -0.6537 -1.1604
10718TIP3   OH253568   3.243   2.601  10.569  0.0887  0.6952 -0.2623
10718TIP3    H153569   3.179   2.669  10.588 -0.4092  0.5239 -1.2575
10718TIP3    H253570   3.232   2.584  10.476  1.5179  0.5891 -0.4281
10719TIP3   OH253571   4.247   1.515   5.575  0.1394 -0.4645  0.5549
10719TIP3    H153572   4.328   1.560   5.601  0.1443 -0.2175  0.1160
10719TIP3    H253573   4.273   1.425   5.560  0.5256 -0.1853 -0.5127
10720TIP3   OH253574   0.298   4.216  14.926  0.0904 -0.1097 -0.4592
10720TIP3    H153575   0.328   4.264  15.003  1.2166  0.1271 -1.0250
10720TIP3    H253576   0.374   4.214  14.868 -0.1204 -2.0105 -0.7401
10721TIP3   OH253577   6.748   5.420   0.231  0.3764  0.1716  0.1006
10721TIP3    H153578   6.653   5.433   0.232  0.1636 -1.1469 -0.8229
10721TIP3    H253579   6.759   5.326   0.215  1.8393  0.2779  0.3815
10722TIP3   OH253580   3.533   6.651   0.034 -0.0261  0.2829 -0.4402
10722TIP3    H153581   3.599   6.596  -0.009  0.2965  0.5337 -0.2739
10722TIP3    H253582   3.536   6.734  -0.014 -0.1307  0.3366 -0.3534
10723TIP3   OH253583   3.927   6.644  12.518 -0.2997  0.4138 -0.3661
10723TIP3    H153584   3.952   6.630  12.609 -0.8250 -0.7370 -0.3829
10723TIP3    H253585   3.862   6.715  12.522 -1.5615 -0.7493  0.3576
10724TIP3   OH253586   3.432   0.627   1.624 -0.3396  0.0753  0.0166
10724TIP3    H153587   3.408   0.565   1.693 -0.3403 -0.3734 -0.3815
10724TIP3    H253588   3.478   0.574   1.559 -0.4040  0.4817 -0.3671
10725TIP3   OH253589   6.492   6.533   2.666 -0.0942 -0.4895  0.3556
10725TIP3    H153590   6.449   6.502   2.746  0.2459  2.1633  1.6657
10725TIP3    H253591   6.576   6.567   2.696  0.5808 -0.5849 -1.3469
10726TIP3   OH253592   3.244   6.108  11.051  0.3195  0.0363 -0.0252
10726TIP3    H153593   3.288   6.193  11.047 -3.7945  2.3772 -3.0024
10726TIP3    H253594   3.240   6.078  10.960 -2.7377 -0.6971  0.2212
10727TIP3   OH253595   4.393   1.863  13.719  0.2678  0.5274  0.2175
10727TIP3    H153596   4.325   1.812  13.764 -0.5702  1.0077 -0.4830
10727TIP3    H253597   4.459   1.798  13.695 -0.6144 -0.1811 -0.3530
10728TIP3   OH253598   5.314   5.350   4.529  0.1137 -0.5142  0.1005
10728TIP3    H153599   5.386   5.302   4.487 -1.2173 -3.5312  1.0038
10728TIP3    H253600   5.353   5.385   4.609  0.3872 -3.5225  1.4529
10729TIP3   OH253601   4.065   6.561  11.094  0.7034 -0.8032 -0.3711
10729TIP3    H153602   4.054   6.596  11.183  0.7460 -0.1847 -0.6030
10729TIP3    H253603   3.992   6.598  11.045  2.3447  1.3919 -1.3385
10730TIP3   OH253604   5.010   2.691   1.789 -0.3130 -0.1479  0.2313
10730TIP3    H153605   4.934   2.736   1.752 -2.1136 -2.2203  1.1611
10730TIP3    H253606   5.043   2.636   1.717  1.4468  1.9481 -0.6840
10731TIP3   OH253607   2.789   6.201   0.219  0.1441 -0.2658 -0.1885
10731TIP3    H153608   2.808   6.111   0.193 -1.0058 -0.8172  0.8162
10731TIP3    H253609   2.716   6.227   0.163 -1.0169 -0.7678  1.0355
10732TIP3   OH253610   4.198   0.165   5.279 -0.4768  0.0529  0.0429
10732TIP3    H153611   4.176   0.257   5.267  0.1223  0.2872  0.6456
10732TIP3    H253612   4.120   0.127   5.319 -0.5074  0.4398  0.3626
10733TIP3   OH253613   5.475   2.878   2.293 -0.0374 -1.1841 -0.1088
10733TIP3    H153614   5.490   2.786   2.273  1.6341 -0.7235 -1.2426
10733TIP3    H253615   5.438   2.915   2.213  0.0971 -0.7085  0.0393
10734TIP3   OH253616   5.450   6.305   0.494  0.1312  0.0832 -0.1928
10734TIP3    H153617   5.435   6.261   0.577 -0.8917 -0.4104 -0.6149
10734TIP3    H253618   5.543   6.295   0.477 -0.1676 -2.6662 -0.6608
10735TIP3   OH253619   4.740   1.391   3.793 -0.1890 -0.0906  0.0766
10735TIP3    H153620   4.819   1.439   3.770 -0.5656  0.4665 -0.0687
10735TIP3    H253621   4.760   1.352   3.879  0.2200  0.0814  0.0627
10736TIP3   OH253622   2.333   6.385   5.087 -0.0920 -0.0045  0.2300
10736TIP3    H153623   2.414   6.394   5.137 -0.6574 -0.0539  1.1703
10736TIP3    H253624   2.280   6.460   5.113 -0.4438 -0.0948 -0.2094
10737TIP3   OH253625   2.389   5.899   4.790  0.2056  0.6099 -0.3493
10737TIP3    H153626   2.392   5.814   4.835  0.9414  1.6346  1.6670
10737TIP3    H253627   2.296   5.916   4.777  0.0311 -0.3015 -0.3732
10738TIP3   OH253628   5.746   0.013   5.276  0.5715 -0.1799  0.2015
10738TIP3    H153629   5.715   0.042   5.190 -1.9082  0.2714  1.1381
10738TIP3    H253630   5.744   0.092   5.330  0.3918 -0.7586  1.0765
10739TIP3   OH253631   6.063   5.302  13.457 -0.1761 -0.1179 -0.0371
10739TIP3    H153632   6.154   5.333  13.456 -0.1236 -0.2843 -1.1121
10739TIP3    H253633   6.030   5.323  13.370 -0.8013 -1.1345 -0.0524
10740TIP3   OH253634   5.790   0.339   2.262  0.3708 -0.1039  0.4721
10740TIP3    H153635   5.820   0.394   2.334 -0.7689 -0.8590  1.5488
10740TIP3    H253636   5.697   0.360   2.253 -0.7195 -3.3764  2.4223
10741TIP3   OH253637   0.371   1.969   4.991 -0.4416  0.4659  0.2236
10741TIP3    H153638   0.276   1.978   4.976 -0.4823 -0.8582 -0.3997
10741TIP3    H253639   0.379   1.958   5.086 -1.0148 -0.4713  0.1727
10742TIP3   OH253640   4.377   3.632  16.904  0.2208  0.1525 -0.4457
10742TIP3    H153641   4.295   3.585  16.922  1.0800 -0.5889  2.0330
10742TIP3    H253642   4.406   3.598  16.820 -1.1870 -0.8164 -0.5777
10743TIP3   OH253643   0.612   2.037   4.888 -0.1112  0.3714  0.2884
10743TIP3    H153644   0.672   2.012   4.958 -0.9202  1.7214  1.4993
10743TIP3    H253645   0.525   2.017   4.922 -0.4767  0.0263 -0.7833
10744TIP3   OH253646   6.610   0.292   3.277 -0.0708 -0.0949 -0.7016
10744TIP3    H153647   6.678   0.330   3.221  1.1749 -0.1164  0.7124
10744TIP3    H253648   6.586   0.210   3.234  0.7448 -0.0451 -1.2759
10745TIP3   OH253649   5.501   1.197   3.670  0.3879  0.3280  0.1838
10745TIP3    H153650   5.497   1.106   3.639  1.7526  0.4784 -0.5161
10745TIP3    H253651   5.430   1.204   3.733  0.1887 -1.2008  0.1666
10746TIP3   OH253652   0.411   3.801  15.487  0.3063  0.3490  0.7080
10746TIP3    H153653   0.330   3.799  15.436  1.1344  1.1966 -0.7241
10746TIP3    H253654   0.405   3.726  15.546 -0.9960 -0.2818 -0.1825
10747TIP3   OH253655   1.536   5.414  16.221  0.8507  0.1759  0.5492
10747TIP3    H153656   1.485   5.445  16.146  1.4841 -0.6598 -0.2346
10747TIP3    H253657   1.476   5.355  16.267  1.3101 -1.3514 -0.7561
10748TIP3   OH253658   6.643   6.009  13.658 -0.1659  0.4727  0.3925
10748TIP3    H153659   6.574   5.986  13.596  0.0381  0.5867  0.1245
10748TIP3    H253660   6.724   6.005  13.608 -0.1061  1.5876  0.3755
10749TIP3   OH253661   5.780   0.422   3.309 -0.3786 -0.1476 -0.5065
10749TIP3    H153662   5.730   0.343   3.289  1.2971 -1.3400 -0.1526
10749TIP3    H253663   5.785   0.424   3.405  1.4212 -0.8321 -0.5603
10750TIP3   OH253664   2.268   5.886  17.171 -0.7149  0.1708 -0.4526
10750TIP3    H153665   2.319   5.958  17.209 -1.5756  0.4277  0.2474
10750TIP3    H253666   2.239   5.920  17.087  0.7885 -0.2157 -1.1582
10751TIP3   OH253667   4.036   3.098   4.084 -0.4516  0.8213  0.1663
10751TIP3    H153668   4.130   3.087   4.072 -0.7970 -1.9277 -0.6560
10751TIP3    H253669   3.996   3.023   4.039 -2.9820  1.3231  1.3526
10752TIP3   OH253670   0.201   2.509   4.070  0.2679 -0.1464 -0.2141
10752TIP3    H153671   0.181   2.602   4.080  2.2175  0.5240 -1.7734
10752TIP3    H253672   0.169   2.468   4.150  1.3969  2.2404  1.5792
10753TIP3   OH253673   6.021   4.348   3.669 -0.1283 -0.3536 -0.5253
10753TIP3    H153674   6.068   4.322   3.590 -0.5354 -0.0912 -0.8550
10753TIP3    H253675   6.007   4.266   3.717  1.6992 -0.3177  0.1567
10754TIP3   OH253676   3.092   2.551  13.053  0.2063  0.1423  0.3299
10754TIP3    H153677   3.123   2.462  13.064 -1.5188 -0.5435  0.0459
10754TIP3    H253678   3.024   2.545  12.986  0.0656  1.6771  0.2826
10755TIP3   OH253679   1.396   0.784  11.572 -0.6385  0.3708 -0.5425
10755TIP3    H153680   1.414   0.815  11.483  0.8836 -0.1124 -0.4191
10755TIP3    H253681   1.430   0.853  11.629 -1.2475  0.4896 -0.3145
10756TIP3   OH253682   4.594   3.501  15.062 -0.0300  0.0777 -0.4033
10756TIP3    H153683   4.545   3.568  15.014  0.4757 -0.2355 -1.3922
10756TIP3    H253684   4.641   3.452  14.993  3.1182  1.4871  0.5396
10757TIP3   OH253685   5.361   2.939   2.048 -0.1644  0.4676 -0.1139
10757TIP3    H153686   5.345   2.858   1.999 -3.2054  1.7293 -1.4889
10757TIP3    H253687   5.417   2.991   1.990  1.1491 -0.2886  0.4344
10758TIP3   OH253688   2.039   2.755   1.829  0.0621  0.1424 -0.2308
10758TIP3    H153689   1.984   2.678   1.816  0.0655 -0.2290  1.5764
10758TIP3    H253690   2.003   2.796   1.909  0.6105  1.5213 -0.6625
10759TIP3   OH253691   0.077   1.963   0.188 -0.0236  0.2735 -0.0948
10759TIP3    H153692   0.118   2.049   0.184 -1.3462  0.8741 -2.0851
10759TIP3    H253693  -0.017   1.980   0.178 -0.2073 -1.4640 -2.1304
10760TIP3   OH253694   2.907   1.966  11.513 -0.2759 -0.3056  0.0118
10760TIP3    H153695   2.926   1.934  11.601  1.3604 -1.0048 -0.5579
10760TIP3    H253696   2.989   2.005  11.483 -0.9091  0.2341 -1.0785
10761TIP3   OH253697   2.103   1.716   0.372 -0.5607  0.0571 -0.4794
10761TIP3    H153698   2.119   1.664   0.450 -0.0347  0.6236 -0.2002
10761TIP3    H253699   2.062   1.655   0.310 -1.5599 -0.2299  0.4493
10762TIP3   OH253700   0.874   2.362   4.306  0.2048  0.0144 -0.2380
10762TIP3    H153701   0.878   2.456   4.323 -0.6877  0.1260 -0.6190
10762TIP3    H253702   0.965   2.337   4.287  0.9785  0.2423  2.6699
10763TIP3   OH253703   5.708   5.400  16.294 -0.0809 -0.4455 -0.1123
10763TIP3    H153704   5.634   5.410  16.355  0.5943  0.8930  0.5255
10763TIP3    H253705   5.784   5.431  16.344  0.6348 -0.1674 -1.3522
10764TIP3   OH253706   3.039   0.634  14.841  0.1355 -0.4532  1.0490
10764TIP3    H153707   3.096   0.611  14.768  1.8261 -1.4668  2.6061
10764TIP3    H253708   3.075   0.717  14.874 -1.1651  0.4756  0.2543
10765TIP3   OH253709   2.542   0.289   0.814 -0.0307 -0.5480 -0.9427
10765TIP3    H153710   2.548   0.207   0.862  1.3808 -0.6053 -1.1796
10765TIP3    H253711   2.632   0.320   0.806 -0.3505  0.1570 -2.3412
10766TIP3   OH253712   1.398   4.927  16.638 -0.1860  0.4357 -0.1676
10766TIP3    H153713   1.457   4.860  16.605 -2.0981 -0.7186 -1.4338
10766TIP3    H253714   1.436   5.010  16.607  1.7683 -0.0716  0.7332
10767TIP3   OH253715   4.717   1.068  15.886  0.0702 -0.6827 -0.0014
10767TIP3    H153716   4.750   1.098  15.801  1.3821 -0.8158  0.4400
10767TIP3    H253717   4.685   1.147  15.929  0.1312 -0.4874 -0.3131
10768TIP3   OH253718   6.119   5.678   6.284  0.1240  0.0975 -0.1014
10768TIP3    H153719   6.044   5.634   6.323 -0.0439  0.6755  0.2456
10768TIP3    H253720   6.131   5.757   6.337  0.3122  0.5558 -0.7977
10769TIP3   OH253721   4.333   4.208   2.563  0.3331 -0.4152 -0.1434
10769TIP3    H153722   4.301   4.294   2.535  2.3297  1.1555  2.0616
10769TIP3    H253723   4.427   4.220   2.576  0.3210 -2.2513  2.4852
10770TIP3   OH253724   2.426   4.899  16.250  0.3699 -0.4033 -0.1776
10770TIP3    H153725   2.474   4.844  16.312 -1.7497 -0.4567  1.5281
10770TIP3    H253726   2.351   4.846  16.224  0.4943  0.1487 -1.7747
10771TIP3   OH253727   3.717   1.136   0.311  0.2979  0.0965 -0.1637
10771TIP3    H153728   3.806   1.161   0.287  0.0790  0.7813 -0.2700
10771TIP3    H253729   3.679   1.215   0.350  0.3570 -0.7163  1.6695
10772TIP3   OH253730   6.764   6.416   1.863  0.2779  0.9094  0.7301
10772TIP3    H153731   6.700   6.487   1.853  0.0676  0.7045  0.6161
10772TIP3    H253732   6.746   6.380   1.950 -1.1260 -0.4718 -0.0759
10773TIP3   OH253733   3.614   2.230   1.356  0.3382  0.2352 -0.4731
10773TIP3    H153734   3.547   2.270   1.301  0.1058  1.8123  0.8537
10773TIP3    H253735   3.566   2.183   1.423  0.5432  0.7270  0.0322
10774TIP3   OH253736   2.335   4.198  14.675 -0.3379 -0.2576  0.6059
10774TIP3    H153737   2.275   4.269  14.652  1.0583  0.6080 -0.5479
10774TIP3    H253738   2.302   4.122  14.627 -0.5964  0.1736  0.0925
10775TIP3   OH253739   3.491   1.871  11.271 -0.2995  0.6276 -0.0828
10775TIP3    H153740   3.492   1.795  11.329 -2.2060  0.0077 -0.7724
10775TIP3    H253741   3.488   1.833  11.183 -0.4482  1.5221 -0.4700
10776TIP3   OH253742   4.354   6.114   0.361  0.3404  0.0242 -0.3556
10776TIP3    H153743   4.392   6.197   0.390 -0.6348  0.6842 -0.9017
10776TIP3    H253744   4.295   6.088   0.432 -0.2967  0.4548 -0.7131
10777TIP3   OH253745   4.995   6.287   5.404  0.2582 -0.0710  0.0943
10777TIP3    H153746   5.050   6.351   5.359 -1.3913  1.2124 -0.1819
10777TIP3    H253747   5.028   6.288   5.494  0.4560  0.9642  0.0310
10778TIP3   OH253748   0.941   4.607  10.465  0.4182  0.3146 -0.1756
10778TIP3    H153749   0.989   4.612  10.382 -0.8981  0.3513 -0.9559
10778TIP3    H253750   1.006   4.574  10.528  1.8054  1.5364 -0.9031
10779TIP3   OH253751   3.019   0.706  11.196  0.1295  0.2327  0.0999
10779TIP3    H153752   2.933   0.689  11.158 -0.1043 -0.1978  0.8059
10779TIP3    H253753   3.080   0.692  11.123  0.0272 -4.0442  0.5814
10780TIP3   OH253754   1.759   6.072   5.832 -0.5168 -0.1851 -0.1955
10780TIP3    H153755   1.732   5.998   5.778 -0.4148 -0.2992 -0.0886
10780TIP3    H253756   1.702   6.069   5.908  0.1070 -0.7082  0.2623
10781TIP3   OH253757   2.086   4.005   1.150  0.2269  0.4503 -0.0330
10781TIP3    H153758   2.035   4.053   1.085  1.8134  1.1334 -0.8283
10781TIP3    H253759   2.063   4.045   1.234 -1.5786 -0.2141 -0.1590
10782TIP3   OH253760   2.628   1.124  16.560  0.6059  0.4986 -0.3273
10782TIP3    H153761   2.577   1.198  16.529  0.8637  1.1384  0.7461
10782TIP3    H253762   2.703   1.119  16.500 -1.7288 -1.8581 -3.3774
10783TIP3   OH253763   4.468   2.570  13.456 -0.2615 -0.4637 -0.3930
10783TIP3    H153764   4.439   2.660  13.473 -0.2480 -0.4635 -0.3718
10783TIP3    H253765   4.422   2.545  13.376  1.6001  0.4636 -1.8257
10784TIP3   OH253766   6.535   5.871  16.718  0.0585  0.0969 -0.7448
10784TIP3    H153767   6.526   5.944  16.778 -0.1867 -1.1668  0.8258
10784TIP3    H253768   6.467   5.809  16.745  0.5875 -0.9367 -1.6880
10785TIP3   OH253769   6.633   6.452  14.401 -0.5159 -0.0018  0.5230
10785TIP3    H153770   6.606   6.451  14.493 -1.7920  0.7266  0.1916
10785TIP3    H253771   6.644   6.545  14.381 -1.2784 -0.0767 -0.3147
10786TIP3   OH253772   0.287   3.956  16.293  0.3602  0.2690 -0.1134
10786TIP3    H153773   0.277   4.045  16.327  1.4767  0.0574  0.8365
10786TIP3    H253774   0.379   3.951  16.265  0.5695 -0.8688  0.7116
10787TIP3   OH253775   3.722   6.168   5.605  0.7457 -0.3613  0.0096
10787TIP3    H153776   3.778   6.116   5.547 -3.0740 -4.0860 -0.8831
10787TIP3    H253777   3.732   6.128   5.691  1.9723  1.2785  0.6722
10788TIP3   OH253778   4.228   4.406   3.944  0.3001 -0.2970  0.3620
10788TIP3    H153779   4.209   4.495   3.913  0.6963 -0.6903 -1.0762
10788TIP3    H253780   4.294   4.373   3.884  2.6219 -0.4155  2.8203
10789TIP3   OH253781   2.984   2.046   5.753 -0.5429  0.9545  0.5466
10789TIP3    H153782   2.961   1.964   5.710 -0.7738  1.3365 -0.0671
10789TIP3    H253783   3.055   2.082   5.699 -1.0783  1.6099  0.2685
10790TIP3   OH253784   5.231   6.692   3.885 -0.2851 -0.5271 -0.2211
10790TIP3    H153785   5.282   6.758   3.838 -1.7940  0.2759 -0.7816
10790TIP3    H253786   5.143   6.728   3.890 -1.2079 -2.5831 -0.7158
10791TIP3   OH253787   3.319   5.152  11.063  0.3505  0.4215  0.4614
10791TIP3    H153788   3.234   5.109  11.052  0.6776 -0.5524  1.5259
10791TIP3    H253789   3.374   5.114  10.994  0.5750 -0.7452  1.2573
10792TIP3   OH253790   6.284   4.998  15.585  0.2021 -0.5158 -0.8815
10792TIP3    H153791   6.340   5.075  15.594 -1.4958  0.8809 -1.7662
10792TIP3    H253792   6.344   4.928  15.561  1.6239  0.8447 -1.4869
10793TIP3   OH253793   1.126   1.953  11.977  0.6359  0.6259  0.4571
10793TIP3    H153794   1.088   2.028  12.023 -1.1448  0.4427 -0.6091
10793TIP3    H253795   1.171   1.993  11.901  1.2228  0.7252  0.8500
10794TIP3   OH253796   6.186   6.706  16.839 -0.2371  0.7216  0.2655
10794TIP3    H153797   6.122   6.757  16.887 -0.4208  2.3428 -1.5946
10794TIP3    H253798   6.259   6.766  16.823  0.7717 -0.4150  0.3633
10795TIP3   OH253799   1.156   2.106  14.789 -0.1020  0.4972 -0.6982
10795TIP3    H153800   1.079   2.050  14.786  1.1025 -1.3058  0.2062
10795TIP3    H253801   1.121   2.195  14.795 -2.1115 -0.3241  0.7331
10796TIP3   OH253802   1.152   5.084   4.730  0.6139  0.4949  0.0520
10796TIP3    H153803   1.196   5.071   4.813 -1.8051 -1.7008  1.1267
10796TIP3    H253804   1.061   5.105   4.753 -0.1348 -0.1869 -1.9886
10797TIP3   OH253805   6.779   2.983   3.736  0.2183  0.4177 -0.1245
10797TIP3    H153806   6.694   2.944   3.715 -0.4838  0.1771  2.7405
10797TIP3    H253807   6.765   3.025   3.821  3.2825 -0.6676  1.0442
10798TIP3   OH253808   1.920   1.813   0.693 -0.2511 -0.5361 -0.1385
10798TIP3    H153809   1.861   1.806   0.768 -0.2649 -2.9625 -0.3129
10798TIP3    H253810   1.977   1.736   0.700  1.4896  0.5889 -1.1903
10799TIP3   OH253811   5.903   6.610   1.342 -0.6454  0.2411  0.8543
10799TIP3    H153812   5.858   6.680   1.390 -0.6144 -0.1621  1.4971
10799TIP3    H253813   5.958   6.568   1.409 -1.8526 -1.3933  0.8625
10800TIP3   OH253814   2.273   6.694  10.453 -0.6621 -0.3411  0.2448
10800TIP3    H153815   2.320   6.660  10.529 -1.5455  0.0949  1.0231
10800TIP3    H253816   2.302   6.640  10.380 -1.0963 -1.9653  1.2035
10801TIP3   OH253817   4.870   5.409   2.104  0.5463  0.4445 -0.9330
10801TIP3    H153818   4.831   5.472   2.045  0.4931  0.7278 -0.5965
10801TIP3    H253819   4.854   5.444   2.192  3.9531  2.0443 -0.7993
10802TIP3   OH253820   2.640   5.493  15.778 -0.0348  0.6702  0.1929
10802TIP3    H153821   2.552   5.514  15.749  0.4140  2.3295 -0.0380
10802TIP3    H253822   2.670   5.570  15.825  2.8838  2.1072 -3.4475
10803TIP3   OH253823   4.573   2.983  11.624 -0.5173 -0.4761  0.1406
10803TIP3    H153824   4.629   2.912  11.593 -0.5911 -0.7050  0.5268
10803TIP3    H253825   4.567   2.969  11.718 -4.0702 -2.5497 -0.2364
10804TIP3   OH253826   5.257   0.682  16.617 -0.0791 -0.0026  0.7452
10804TIP3    H153827   5.253   0.634  16.700  0.2842  0.3307  0.9561
10804TIP3    H253828   5.172   0.664  16.575 -1.0974  1.4380  2.0880
10805TIP3   OH253829   3.951   3.051  13.810  0.0138  0.4586 -0.1221
10805TIP3    H153830   3.928   3.143  13.822  0.6956  0.4771  1.2441
10805TIP3    H253831   3.882   3.003  13.856 -0.8508  0.2165 -1.6073
10806TIP3   OH253832   4.721   5.675   2.366  0.3377  0.0359  0.2602
10806TIP3    H153833   4.630   5.685   2.392  0.3253 -0.3730  0.3878
10806TIP3    H253834   4.724   5.703   2.275  0.4271  1.7283  0.7641
10807TIP3   OH253835   1.130   0.049   3.674 -0.5263 -0.8959 -0.1754
10807TIP3    H153836   1.043   0.086   3.689 -0.4297 -1.1122  1.0081
10807TIP3    H253837   1.190   0.113   3.711 -0.0111  0.1244 -2.5390
10808TIP3   OH253838   3.597   0.824   1.092  0.1381 -0.0695  0.4203
10808TIP3    H153839   3.569   0.896   1.035 -0.9984 -1.0601 -0.3164
10808TIP3    H253840   3.553   0.747   1.057 -1.5828 -0.5626  3.3059
10809TIP3   OH253841   0.668   3.241   6.050 -0.2023  0.1815  0.1850
10809TIP3    H153842   0.653   3.184   6.126 -0.4625  0.7626  0.5776
10809TIP3    H253843   0.719   3.314   6.085 -0.1871  0.3758 -0.2355
10810TIP3   OH253844   1.443   3.215   0.787 -0.1747 -0.1559  0.2696
10810TIP3    H153845   1.496   3.214   0.867  0.1023 -1.2056  0.0907
10810TIP3    H253846   1.501   3.255   0.721  0.3694 -1.1771  0.1074
10811TIP3   OH253847   3.649   1.456  11.758  0.2551 -0.5436 -0.0248
10811TIP3    H153848   3.630   1.419  11.671  1.3183 -0.1759 -0.4184
10811TIP3    H253849   3.668   1.548  11.741 -1.1239 -0.0712  0.8079
10812TIP3   OH253850   1.177   4.143   5.689  0.0351 -0.3470 -0.0825
10812TIP3    H153851   1.130   4.210   5.738 -1.5232 -1.1559 -0.3975
10812TIP3    H253852   1.124   4.130   5.610 -0.2400 -2.5926  0.4164
10813TIP3   OH253853   5.139   2.977  12.320  0.0104  0.4462 -0.0575
10813TIP3    H153854   5.160   3.071  12.314 -2.4255  1.0668 -0.1591
10813TIP3    H253855   5.103   2.956  12.233  0.7171 -0.6413 -0.0944
10814TIP3   OH253856   1.088   4.986   4.086  0.1686 -0.2949 -0.2224
10814TIP3    H153857   1.145   4.994   4.162 -0.0939 -0.8462  0.0449
10814TIP3    H253858   1.091   4.893   4.064 -1.8445 -0.6553  0.7753
10815TIP3   OH253859   0.584   0.050  15.344  0.0161  0.2198 -0.3514
10815TIP3    H153860   0.560   0.043  15.252  2.4968  1.9419 -1.2566
10815TIP3    H253861   0.509   0.017  15.392 -1.9889  0.7081 -2.9544
10816TIP3   OH253862   4.509   1.092   1.198 -0.3937 -0.1236  0.3034
10816TIP3    H153863   4.552   1.052   1.123  0.1818 -0.1919  0.6625
10816TIP3    H253864   4.553   1.177   1.209 -0.6455 -0.0050  0.4082
10817TIP3   OH253865   3.310   2.933   5.776  0.3123 -0.3070 -0.5738
10817TIP3    H153866   3.336   3.025   5.775 -1.8553  0.6048  3.3297
10817TIP3    H253867   3.392   2.885   5.789  1.2407  1.2994 -0.2178
10818TIP3   OH253868   5.688   6.607   2.466  0.1813  0.3144 -0.2424
10818TIP3    H153869   5.599   6.625   2.435  1.2116  0.4168 -3.5758
10818TIP3    H253870   5.703   6.673   2.534 -1.3599  2.1734 -1.5548
10819TIP3   OH253871   0.946   5.224  10.684 -0.2481  0.3505  0.1710
10819TIP3    H153872   0.944   5.318  10.702  1.2370  0.0726  2.0988
10819TIP3    H253873   1.029   5.209  10.641 -0.1809 -0.1527  0.4569
10820TIP3   OH253874   0.762   5.571   3.671 -0.2182 -0.4339 -0.1993
10820TIP3    H153875   0.682   5.623   3.672 -1.2591 -1.9552 -0.6571
10820TIP3    H253876   0.753   5.510   3.744 -0.8047 -2.4222 -1.8020
10821TIP3   OH253877   1.631   4.953   4.106 -0.1805 -0.0295 -0.0027
10821TIP3    H153878   1.608   5.045   4.093  2.7809  0.6587 -1.0991
10821TIP3    H253879   1.636   4.943   4.201  0.1010  1.1485  0.1263
10822TIP3   OH253880   6.098   5.509  15.030  0.4728 -0.0294 -0.2440
10822TIP3    H153881   6.116   5.424  14.991  0.5777  0.3035 -0.9430
10822TIP3    H253882   6.047   5.489  15.108 -0.2423 -0.6907 -0.8560
10823TIP3   OH253883   0.764   4.068   2.256 -0.7262  0.1157  0.0303
10823TIP3    H153884   0.726   4.134   2.314  0.2070 -0.2781  1.1530
10823TIP3    H253885   0.850   4.049   2.295 -0.7748 -1.4015 -0.5328
10824TIP3   OH253886   1.228   4.210  12.699 -0.2782  0.0372  0.3685
10824TIP3    H153887   1.186   4.213  12.613  0.3326 -1.7558 -0.0306
10824TIP3    H253888   1.181   4.275  12.750 -2.3662 -0.6242 -0.5820
10825TIP3   OH253889   4.304   2.422   2.694 -0.0032  0.2442  0.0892
10825TIP3    H153890   4.399   2.428   2.703  0.2769 -2.1210 -0.4123
10825TIP3    H253891   4.272   2.399   2.781 -0.2887  2.2300  0.5362
10826TIP3   OH253892   5.112   2.811  11.479 -0.1526  0.3215  0.0662
10826TIP3    H153893   5.188   2.806  11.421 -0.1680 -0.1383  0.0822
10826TIP3    H253894   5.044   2.761  11.433 -0.3614  0.4953  0.1832
10827TIP3   OH253895   3.900   0.736  13.583  0.0279  0.2039  0.3095
10827TIP3    H153896   3.857   0.653  13.565  0.1886 -0.0214  0.9313
10827TIP3    H253897   3.832   0.791  13.621  0.2338 -0.0944  1.1315
10828TIP3   OH253898   0.715   3.016   5.893 -0.1284 -0.1701  0.1381
10828TIP3    H153899   0.623   2.994   5.883 -0.3448  0.1303  1.2868
10828TIP3    H253900   0.718   3.074   5.969  0.5896  2.6100 -1.8436
10829TIP3   OH253901   5.732   3.550   1.921  0.0286 -0.3531 -0.4723
10829TIP3    H153902   5.739   3.493   1.997 -1.3920  0.1003  0.0375
10829TIP3    H253903   5.705   3.492   1.850  0.8981 -0.6944 -0.5391
10830TIP3   OH253904   1.336   0.768  11.998 -0.0830 -0.0840  0.4710
10830TIP3    H153905   1.409   0.828  12.012  1.3146 -1.8141  0.9029
10830TIP3    H253906   1.300   0.753  12.086 -1.4399  1.2846  0.1869
10831TIP3   OH253907   4.561   3.416   2.086 -0.2758 -0.0668  0.0967
10831TIP3    H153908   4.591   3.507   2.089  0.7148 -0.3419 -0.8479
10831TIP3    H253909   4.639   3.364   2.108 -0.5589 -0.7243 -0.4380
10832TIP3   OH253910   4.400   5.917   2.721  0.2047  0.2164 -0.2433
10832TIP3    H153911   4.411   5.985   2.788  1.4451 -0.5965  0.4160
10832TIP3    H253912   4.489   5.897   2.692 -0.2393 -0.1819 -1.4150
10833TIP3   OH253913   4.704   2.379   3.586 -0.9469 -0.6967  0.1352
10833TIP3    H153914   4.654   2.335   3.517 -2.7640  1.8794 -0.3153
10833TIP3    H253915   4.645   2.380   3.661  0.2436 -1.6653  1.1233
10834TIP3   OH253916   3.537   5.059   2.874  0.4632 -0.1502  0.1528
10834TIP3    H153917   3.517   5.150   2.853  2.3001  0.0578 -0.8346
10834TIP3    H253918   3.594   5.064   2.951 -0.7888 -0.5942  1.1586
10835TIP3   OH253919   3.804   0.114  11.348  0.0001 -0.3956 -0.0106
10835TIP3    H153920   3.766   0.088  11.264 -0.6626  0.5655 -0.0293
10835TIP3    H253921   3.890   0.073  11.350 -0.5799 -1.6791 -0.4899
10836TIP3   OH253922   4.404   5.159   0.184  0.8845 -0.5185 -0.2475
10836TIP3    H153923   4.491   5.194   0.163  0.0693  1.5230 -0.4212
10836TIP3    H253924   4.388   5.094   0.116  1.6041  0.2866 -1.2373
10837TIP3   OH253925   5.881   3.426   0.172  0.3799 -0.8166 -0.3352
10837TIP3    H153926   5.849   3.359   0.112 -1.2331 -0.0462 -0.3665
10837TIP3    H253927   5.975   3.433   0.152  0.3132 -2.1087 -1.2331
10838TIP3   OH253928   6.148   3.436  14.870 -0.1834 -0.0216 -0.6436
10838TIP3    H153929   6.189   3.388  14.942  1.4480 -1.1029 -2.2301
10838TIP3    H253930   6.177   3.527  14.882  1.7070 -0.5524 -1.0458
10839TIP3   OH253931   5.151   6.705  12.758  0.0986  0.2937  0.1624
10839TIP3    H153932   5.059   6.729  12.746  0.0356 -0.3258 -0.6592
10839TIP3    H253933   5.182   6.682  12.670  0.1895 -2.5255  0.8437
10840TIP3   OH253934   5.410   6.582   2.434  0.0416 -0.8200  0.4045
10840TIP3    H153935   5.361   6.558   2.355  0.9016 -3.0016  0.4618
10840TIP3    H253936   5.359   6.545   2.506 -1.2257  1.9474  1.0310
10841TIP3   OH253937   5.275   1.466   1.280  0.0587 -0.2475 -0.3209
10841TIP3    H153938   5.200   1.454   1.339  0.5229  0.7970  0.5193
10841TIP3    H253939   5.351   1.451   1.336  0.4972 -1.3285 -1.1743
10842TIP3   OH253940   6.631   5.657  13.286 -0.5709  0.1148 -0.2280
10842TIP3    H153941   6.556   5.642  13.228 -0.6362 -2.5341  0.4120
10842TIP3    H253942   6.708   5.635  13.234 -0.3966  0.4777 -0.1344
10843TIP3   OH253943   3.966   6.514  15.574  0.1858  0.4174 -0.5116
10843TIP3    H153944   3.966   6.420  15.589 -2.5116  0.5591  0.9213
10843TIP3    H253945   3.948   6.525  15.481  1.7657 -0.4233 -0.9567
10844TIP3   OH253946   5.203   0.457   4.900  0.0049  0.2216  0.2584
10844TIP3    H153947   5.181   0.507   4.979 -1.2967  0.7290 -0.4059
10844TIP3    H253948   5.253   0.382   4.934 -1.1429  0.0377  1.6520
10845TIP3   OH253949   4.918   3.944   5.009  0.6525 -1.0287  0.1563
10845TIP3    H153950   4.999   3.995   5.003 -0.1509  0.4795  1.4565
10845TIP3    H253951   4.897   3.923   4.918  0.9726  1.0922 -0.4718
10846TIP3   OH253952   5.259   2.120   4.885 -0.5249 -0.0272  0.0204
10846TIP3    H153953   5.190   2.169   4.840 -0.6851  0.0780  0.3811
10846TIP3    H253954   5.286   2.176   4.957  0.4150  0.2271 -0.5184
10847TIP3   OH253955   2.894   0.271  14.885  0.0817 -0.3391 -0.0783
10847TIP3    H153956   2.874   0.180  14.908  2.6217 -0.6844  1.0869
10847TIP3    H253957   2.932   0.265  14.797 -1.3669 -0.1265 -0.7552
10848TIP3   OH253958   1.440   6.434   5.824 -0.0098 -0.0153  0.4279
10848TIP3    H153959   1.523   6.395   5.853 -1.3382 -1.2407  2.9217
10848TIP3    H253960   1.409   6.483   5.900 -0.9036  1.6710 -0.9519
10849TIP3   OH253961   5.030   2.630   2.716 -0.0710  0.4933 -0.4228
10849TIP3    H153962   5.079   2.553   2.685 -0.3336  0.1146  0.0721
10849TIP3    H253963   5.022   2.686   2.639 -0.5729 -0.3452 -1.0041
10850TIP3   OH253964   4.815   0.159  12.868  0.0914 -0.3152 -0.1339
10850TIP3    H153965   4.765   0.138  12.946  1.1298  0.0142  0.6438
10850TIP3    H253966   4.847   0.074  12.837  0.0789 -0.3975  0.0758
10851TIP3   OH253967   6.505   3.499  10.854 -0.4826 -0.3088  0.3844
10851TIP3    H153968   6.580   3.557  10.868 -2.3061  2.3390 -0.1754
10851TIP3    H253969   6.514   3.432  10.921  2.6413 -0.4195  0.0012
10852TIP3   OH253970   3.728   3.869  12.026  0.0780 -0.7506  0.2180
10852TIP3    H153971   3.735   3.792  11.970 -0.3631  0.5285 -1.6992
10852TIP3    H253972   3.644   3.909  12.002  0.9752  1.1411  0.0277
10853TIP3   OH253973   6.739   4.111  15.000  0.2515 -0.2559  0.4046
10853TIP3    H153974   6.666   4.060  14.966  1.7685 -2.8590  0.7313
10853TIP3    H253975   6.783   4.146  14.923 -1.8542  2.2883  0.2382
10854TIP3   OH253976   0.179   3.669   0.321 -0.3930  0.4292  0.4194
10854TIP3    H153977   0.211   3.614   0.392 -0.3597 -0.0938  0.0094
10854TIP3    H253978   0.136   3.607   0.261  0.0333  0.7902 -0.2623
10855TIP3   OH253979   1.188   3.470  14.208  0.3707  0.0133 -0.1009
10855TIP3    H153980   1.210   3.401  14.146  1.3691  0.1132  0.1269
10855TIP3    H253981   1.179   3.426  14.292 -2.4744 -0.3729 -0.4855
10856TIP3   OH253982   0.568   4.034  11.435  0.1532  0.3780  0.2556
10856TIP3    H153983   0.590   3.980  11.359 -1.9682 -2.0488  1.1989
10856TIP3    H253984   0.505   4.098  11.402 -1.6581 -1.3972  0.0631
10857TIP3   OH253985   1.595   5.016   3.335 -0.4776  0.7645  0.0671
10857TIP3    H153986   1.677   4.997   3.380 -0.0716 -2.4996 -1.7492
10857TIP3    H253987   1.617   5.082   3.270 -0.2467  2.7312  2.0359
10858TIP3   OH253988   3.674   5.959  15.818  0.6476 -0.4804 -0.0997
10858TIP3    H153989   3.582   5.973  15.840  0.7212  1.1389 -0.6751
10858TIP3    H253990   3.721   6.028  15.865  1.6332 -1.4947  0.4618
10859TIP3   OH253991   4.021   1.200  16.006  0.5491 -0.2247 -0.5906
10859TIP3    H153992   4.059   1.114  16.025 -0.4938 -0.8388 -1.1505
10859TIP3    H253993   3.967   1.220  16.082  3.7420  1.8051  1.3912
10860TIP3   OH253994   4.068   3.749   4.028 -0.2238  0.3673 -0.0964
10860TIP3    H153995   4.056   3.811   3.957  0.0454  1.3078  0.6648
10860TIP3    H253996   4.066   3.802   4.107 -1.6094 -0.7762  0.6922
10861TIP3   OH253997   5.927   1.142   1.585  0.4890  0.4218 -0.7860
10861TIP3    H153998   6.020   1.141   1.561  0.4203 -1.3685 -1.1300
10861TIP3    H253999   5.903   1.050   1.591 -1.4106  0.8401 -1.2203
10862TIP3   OH254000   1.704   0.875  12.672 -0.1758 -0.1532  0.1187
10862TIP3    H154001   1.610   0.864  12.685 -0.1828  0.4122  0.6450
10862TIP3    H254002   1.733   0.795  12.628 -0.7169 -0.8067  0.9243
10863TIP3   OH254003   1.811   5.455   5.223 -1.0660  0.8172 -0.0270
10863TIP3    H154004   1.882   5.430   5.282  0.2340  1.2983 -1.3054
10863TIP3    H254005   1.787   5.373   5.179 -1.3220  0.6500  0.4175
10864TIP3   OH254006   0.298   0.664  12.291 -0.2145  0.5693 -0.1762
10864TIP3    H154007   0.253   0.676  12.207 -0.0837  1.3124 -0.1455
10864TIP3    H254008   0.358   0.738  12.297  1.0312 -0.4050 -0.2122
10865TIP3   OH254009   5.316   1.121  16.764 -0.0043 -0.1452 -0.0661
10865TIP3    H154010   5.283   1.129  16.854  1.1351 -0.6032  0.4286
10865TIP3    H254011   5.346   1.209  16.741 -0.7136  0.0729 -0.1806
10866TIP3   OH254012   6.677   6.466   0.188  0.4710 -0.4931 -0.3579
10866TIP3    H154013   6.721   6.532   0.242  0.4162  0.7091 -1.7466
10866TIP3    H254014   6.698   6.490   0.098 -3.3264  0.4216 -1.1667
10867TIP3   OH254015   1.319   6.633   3.606  0.1034 -0.4087 -0.3398
10867TIP3    H154016   1.237   6.680   3.619  0.5938  0.1814  0.7839
10867TIP3    H254017   1.371   6.690   3.551  0.7771  0.5260  1.1919
10868TIP3   OH254018   2.313   1.120   6.286 -0.3130 -0.3405 -0.0986
10868TIP3    H154019   2.351   1.064   6.353  1.8781  0.6132 -0.4731
10868TIP3    H254020   2.353   1.206   6.300 -0.9365  0.2534 -1.6983
10869TIP3   OH254021   5.242   5.389   5.484 -0.3100 -0.2070 -0.6447
10869TIP3    H154022   5.302   5.320   5.509 -0.0415  0.1768 -0.2107
10869TIP3    H254023   5.294   5.449   5.431 -0.2635  0.2067 -0.1382
10870TIP3   OH254024   3.114   6.579   0.018 -0.2317  0.0790 -0.3568
10870TIP3    H154025   3.134   6.642   0.088 -0.6193  2.2582 -2.1085
10870TIP3    H254026   3.019   6.566   0.024 -0.0327 -1.1285  0.5846
10871TIP3   OH254027   3.131   0.181   2.605 -0.0710 -0.1924 -0.6068
10871TIP3    H154028   3.186   0.254   2.633 -0.9721  0.3905 -0.3064
10871TIP3    H254029   3.119   0.194   2.511 -1.7463  1.1297 -0.2504
10872TIP3   OH254030   3.440   5.524  13.924  0.0922 -0.2616 -0.3198
10872TIP3    H154031   3.469   5.615  13.923  0.1178 -0.2585  0.5031
10872TIP3    H254032   3.522   5.473  13.924  0.0791 -0.2836 -0.5763
10873TIP3   OH254033   5.794   1.014   4.022  0.6324  0.1004 -0.0779
10873TIP3    H154034   5.865   1.078   4.025  1.6448 -0.9606 -0.4463
10873TIP3    H254035   5.792   0.985   3.930  0.1158 -0.3137  0.0574
10874TIP3   OH254036   2.489   3.258   6.475 -0.1806 -0.1173  0.1949
10874TIP3    H154037   2.402   3.292   6.452  0.3128  0.4355 -0.9880
10874TIP3    H254038   2.535   3.333   6.513 -0.2665 -0.4463  0.9512
10875TIP3   OH254039   2.674   1.184   3.134 -0.0295 -0.2672 -0.7234
10875TIP3    H154040   2.700   1.258   3.188 -0.0602 -0.6323 -0.2006
10875TIP3    H254041   2.740   1.180   3.065  0.0208  0.1894 -0.7062
10876TIP3   OH254042   3.127   0.326  13.851 -0.4326  0.2674 -0.1796
10876TIP3    H154043   3.130   0.422  13.856  0.2850  0.2484 -0.0628
10876TIP3    H254044   3.069   0.301  13.923  1.5716  0.5147  1.6662
10877TIP3   OH254045   0.985   0.800  10.998  0.6140  0.7031 -0.5194
10877TIP3    H154046   0.912   0.747  11.030 -0.7657  1.5990 -2.0227
10877TIP3    H254047   1.063   0.752  11.024 -0.5218 -0.5887  0.6349
10878TIP3   OH254048   4.574   6.733  14.011 -0.0632 -0.2554  0.5251
10878TIP3    H154049   4.540   6.815  14.048 -1.1167 -0.3790 -0.1057
10878TIP3    H254050   4.585   6.675  14.087  0.5403  0.4159  0.9545
10879TIP3   OH254051   5.909   1.767  14.803  0.0159 -0.0522  0.4705
10879TIP3    H154052   6.003   1.785  14.800  0.0431 -0.2126 -1.7979
10879TIP3    H254053   5.902   1.681  14.844  0.8601 -0.0511  0.6395
10880TIP3   OH254054   3.843   3.905   5.892  0.2407  0.3904  0.1879
10880TIP3    H154055   3.832   3.994   5.859  0.9534  0.2749 -0.3819
10880TIP3    H254056   3.800   3.906   5.977  0.3247  1.3071  0.2307
10881TIP3   OH254057   6.694   3.767   0.164  0.3655  0.1616 -0.2097
10881TIP3    H154058   6.735   3.785   0.248  0.5200 -0.3149 -0.1768
10881TIP3    H254059   6.705   3.672   0.152  1.1774  0.3667 -1.2108
10882TIP3   OH254060   4.649   3.296   5.017 -0.0807 -0.1159 -0.0973
10882TIP3    H154061   4.619   3.379   5.053  0.4534 -0.0636  0.2332
10882TIP3    H254062   4.569   3.246   5.004 -0.4881  0.7593 -1.1033
10883TIP3   OH254063   5.312   3.916   3.038  0.0272  0.1953  0.3348
10883TIP3    H154064   5.314   4.007   3.070 -0.4001  0.6095 -0.7608
10883TIP3    H254065   5.337   3.924   2.946  0.9732 -0.9289  0.4755
10884TIP3   OH254066   6.110   5.975  12.068  0.2866  0.0504  0.2721
10884TIP3    H154067   6.079   5.917  12.137 -0.2115  0.3156  0.2759
10884TIP3    H254068   6.169   6.036  12.112  1.8577 -1.2292  0.0559
10885TIP3   OH254069   2.944   2.354  10.571 -0.4609 -0.2771 -0.7589
10885TIP3    H154070   2.930   2.259  10.564  2.6196 -0.9911  1.1671
10885TIP3    H254071   3.024   2.370  10.522 -0.7842  1.3176 -0.8048
10886TIP3   OH254072   1.561   0.243   6.049  0.3429 -0.0187 -0.5608
10886TIP3    H154073   1.528   0.165   6.093  0.4255 -0.6836 -1.6519
10886TIP3    H254074   1.499   0.259   5.978  1.8238 -0.8057 -2.1195
10887TIP3   OH254075   4.331   0.811   0.703 -0.2933  0.8939  0.4859
10887TIP3    H154076   4.384   0.767   0.769  0.5205  1.1603  0.0215
10887TIP3    H254077   4.246   0.825   0.746  0.6694  2.4020  2.0091
10888TIP3   OH254078   2.732   1.776   0.266  0.2976 -0.2758  0.0857
10888TIP3    H154079   2.714   1.717   0.340 -1.1759 -0.2344 -0.2122
10888TIP3    H254080   2.819   1.812   0.285 -0.1515 -0.0684  1.9310
10889TIP3   OH254081   4.009   0.188  10.470  0.4657  0.1868  0.1861
10889TIP3    H154082   3.919   0.198  10.438  1.2731  2.7392 -1.5769
10889TIP3    H254083   4.004   0.205  10.564 -0.6582  2.3861 -0.2104
10890TIP3   OH254084   5.796   2.490  11.862  0.1561  0.2132 -0.3676
10890TIP3    H154085   5.810   2.484  11.767  1.4203 -0.1473 -0.1867
10890TIP3    H254086   5.729   2.556  11.873 -0.2298  0.0344 -1.5359
10891TIP3   OH254087   3.393   6.513  14.275 -0.1979 -0.2132  0.1790
10891TIP3    H154088   3.369   6.554  14.192 -0.0057 -0.9104 -0.2237
10891TIP3    H254089   3.486   6.534  14.286  0.5147 -2.3408 -1.1280
10892TIP3   OH254090   0.151   2.103   4.782 -0.4289  0.0513 -0.3531
10892TIP3    H154091   0.223   2.163   4.766  0.0444 -0.5594 -0.5580
10892TIP3    H254092   0.192   2.016   4.784 -1.1713 -0.3146 -0.5922
10893TIP3   OH254093   5.505   3.628  10.836 -0.3437  0.2324 -0.1029
10893TIP3    H154094   5.452   3.686  10.781  1.5740  1.4154 -0.7979
10893TIP3    H254095   5.456   3.622  10.918 -0.6933  2.7926 -0.0377
10894TIP3   OH254096   1.693   4.039   5.704 -0.6802 -0.3062  0.0486
10894TIP3    H154097   1.704   4.018   5.797  2.7345  0.0871 -0.1486
10894TIP3    H254098   1.719   4.131   5.697 -0.7383 -0.3802 -1.3037
10895TIP3   OH254099   2.242   5.693  10.991  0.0061  0.3449 -0.2989
10895TIP3    H154100   2.222   5.643  10.912 -1.0052 -2.1668  1.4210
10895TIP3    H254101   2.331   5.667  11.015  0.0829  0.6266 -0.2755
10896TIP3   OH254102   3.912   0.315   2.572 -0.6399 -0.0848  0.0813
10896TIP3    H154103   3.901   0.296   2.479 -0.5107  0.7584 -0.1153
10896TIP3    H254104   3.870   0.241   2.616 -0.5652 -0.5759 -0.6399
10897TIP3   OH254105   4.166   3.796  17.264 -0.2396 -0.1098  0.4324
10897TIP3    H154106   4.073   3.816  17.272 -0.4284  0.4838 -2.2292
10897TIP3    H254107   4.169   3.703  17.239 -0.1704 -0.0239  0.1075
10898TIP3   OH254108   2.405   4.491   4.340  0.0558 -0.5476 -0.1100
10898TIP3    H154109   2.381   4.406   4.302  0.3896  0.4996 -2.7895
10898TIP3    H254110   2.355   4.555   4.291  0.4178  0.9100  1.3371
10899TIP3   OH254111   2.565   6.312   3.856  0.4371  0.0232  0.0352
10899TIP3    H154112   2.578   6.406   3.847 -1.5923  0.2346 -1.2289
10899TIP3    H254113   2.575   6.278   3.767  2.4199 -1.1932  0.6536
10900TIP3   OH254114   5.579   4.435   2.078 -0.2028 -0.1882  0.1557
10900TIP3    H154115   5.665   4.478   2.073  0.3061 -1.1895  0.0691
10900TIP3    H254116   5.539   4.470   2.157 -0.5076  1.6865 -0.7607
10901TIP3   OH254117   6.160   4.706   1.124  0.4959 -0.0162  0.4291
10901TIP3    H154118   6.176   4.671   1.212  0.0762 -1.3599 -0.0083
10901TIP3    H254119   6.247   4.733   1.094  0.8093 -0.4818  0.8801
10902TIP3   OH254120   3.830   0.650   0.052 -0.3628  0.3881  0.2384
10902TIP3    H154121   3.813   0.726  -0.004 -1.6755 -0.0167  0.0699
10902TIP3    H254122   3.825   0.575  -0.007  2.8094  0.2123 -0.0043
10903TIP3   OH254123   0.440   6.179   2.407 -0.1854  0.0434 -0.3702
10903TIP3    H154124   0.371   6.217   2.462 -1.8099 -1.0811 -1.5591
10903TIP3    H254125   0.475   6.254   2.358 -0.1016  0.7317  0.7076
10904TIP3   OH254126   1.951   4.227  10.789 -0.3196  0.1264  0.3373
10904TIP3    H154127   1.968   4.203  10.698  0.8353  0.6570  0.3935
10904TIP3    H254128   1.856   4.236  10.795 -0.3140  2.0870 -1.3491
10905TIP3   OH254129   5.459   5.874  15.545 -0.3145 -0.5285 -0.0138
10905TIP3    H154130   5.484   5.946  15.487  0.0947  0.6025  1.4748
10905TIP3    H254131   5.526   5.876  15.615 -3.2462  1.2871  3.0433
10906TIP3   OH254132   1.221   4.300   0.470 -0.2102  0.4825 -0.1115
10906TIP3    H154133   1.127   4.289   0.484 -0.5057  0.7590 -1.7657
10906TIP3    H254134   1.243   4.239   0.400  1.3214 -1.2469  1.7415
10907TIP3   OH254135   2.607   3.271   5.117  0.5607  0.1330  0.5067
10907TIP3    H154136   2.578   3.327   5.189 -0.4864 -1.1573  1.1256
10907TIP3    H254137   2.601   3.328   5.040 -0.8069  0.8014  1.0669
10908TIP3   OH254138   1.657   4.232  14.846 -0.2041 -0.2977  0.3102
10908TIP3    H154139   1.673   4.326  14.853  0.4296 -0.3482 -0.3831
10908TIP3    H254140   1.570   4.219  14.883 -0.3960  0.5950  0.1739
10909TIP3   OH254141   4.149   3.683  14.848  0.3119 -0.5610 -0.3935
10909TIP3    H154142   4.083   3.752  14.853  0.8488  0.0703 -1.5652
10909TIP3    H254143   4.210   3.702  14.920  2.4534  2.3958 -2.7558
10910TIP3   OH254144   0.198   4.874  11.094  0.2803  0.2233  0.1943
10910TIP3    H154145   0.199   4.787  11.135 -1.0559 -0.0919 -0.3987
10910TIP3    H254146   0.290   4.899  11.090  0.6704 -1.0707  0.5732
10911TIP3   OH254147   3.149   4.540   5.737  0.1027 -0.1238 -0.3007
10911TIP3    H154148   3.111   4.486   5.807  0.4270 -2.1046 -1.5701
10911TIP3    H254149   3.236   4.564   5.770 -0.1547 -0.1243  0.4037
10912TIP3   OH254150   1.488   3.485   1.721 -0.0604 -0.5384  0.4648
10912TIP3    H154151   1.488   3.518   1.632  0.7886  0.0351  0.6692
10912TIP3    H254152   1.399   3.453   1.735 -0.3532 -0.1156 -0.3909
10913TIP3   OH254153   4.841   1.005  14.227  0.7447 -0.0214  0.3782
10913TIP3    H154154   4.818   0.991  14.136 -0.7391 -0.5618  0.8219
10913TIP3    H254155   4.915   0.946  14.243 -0.5490 -1.7796  0.1651
10914TIP3   OH254156   6.685   0.735  16.626 -0.1347 -0.1968 -0.2174
10914TIP3    H154157   6.616   0.777  16.575  0.1494  0.1427 -0.3247
10914TIP3    H254158   6.766   0.775  16.595  0.0423  0.0386  0.5201
10915TIP3   OH254159   6.117   2.735  14.605  0.7451 -0.6761  0.7156
10915TIP3    H154160   6.186   2.800  14.617  1.0982 -1.0995  0.9922
10915TIP3    H254161   6.095   2.707  14.694 -0.1936 -0.1263  0.6745
10916TIP3   OH254162   2.172   2.223  12.090 -0.2138  0.6856  0.0629
10916TIP3    H154163   2.122   2.258  12.016 -0.0823 -1.5961 -1.1936
10916TIP3    H254164   2.224   2.298  12.121 -0.4338  1.7739 -2.0161
10917TIP3   OH254165   2.487   4.988  12.636 -0.1615  0.1824  0.6303
10917TIP3    H154166   2.532   5.028  12.562 -3.0133 -0.5527 -1.6951
10917TIP3    H254167   2.538   4.909  12.656  1.1680  0.8857  0.0863
10918TIP3   OH254168   6.069   3.821   4.063 -1.0435  0.3374  0.0628
10918TIP3    H154169   6.016   3.889   4.105 -1.5457 -0.4798  0.7953
10918TIP3    H254170   6.007   3.771   4.011 -0.8441 -0.1241  0.2648
10919TIP3   OH254171   0.850   4.497  12.944  0.1259 -0.1395 -0.0980
10919TIP3    H154172   0.759   4.476  12.924  0.6394 -3.7412  0.6941
10919TIP3    H254173   0.857   4.486  13.038  1.2888  0.6329 -0.0739
10920TIP3   OH254174   4.431   6.267  16.151 -0.1742  0.4986 -0.3455
10920TIP3    H154175   4.474   6.182  16.150  0.3316  0.6342  2.1533
10920TIP3    H254176   4.366   6.260  16.221  0.4093  2.3578  0.4479
10921TIP3   OH254177   4.128   1.636  14.982 -0.2481  0.4200  0.1074
10921TIP3    H154178   4.181   1.558  14.999  0.5708  0.8639 -0.3662
10921TIP3    H254179   4.189   1.708  14.990 -1.5197  1.3309  3.4603
10922TIP3   OH254180   5.241   4.298  11.528  0.0283  0.0499 -0.3436
10922TIP3    H154181   5.238   4.214  11.481  0.5909 -0.3736  0.3460
10922TIP3    H254182   5.162   4.343  11.501 -0.3107 -0.7276 -0.6977
10923TIP3   OH254183   1.832   1.172  15.163 -0.3485  0.0315  0.0004
10923TIP3    H154184   1.887   1.155  15.240 -0.4594  0.8840  0.2809
10923TIP3    H254185   1.760   1.109  15.171 -1.4424  1.3946  1.6991
10924TIP3   OH254186   3.154   6.118   5.435 -0.2276  0.3523  0.1890
10924TIP3    H154187   3.243   6.107   5.467 -0.3541 -1.1514  0.0943
10924TIP3    H254188   3.156   6.082   5.346 -0.6301  1.5401 -0.3312
10925TIP3   OH254189   3.550   4.059   2.143  0.1344 -0.0687 -0.8668
10925TIP3    H154190   3.642   4.062   2.170 -0.0111 -1.0466 -0.1950
10925TIP3    H254191   3.534   4.144   2.102  0.5367  1.2990  1.6048
10926TIP3   OH254192   4.061   3.936   4.885 -0.2434 -0.0328 -0.0211
10926TIP3    H154193   4.039   4.024   4.914  0.9818  0.0451  0.7384
10926TIP3    H254194   3.987   3.882   4.912 -0.9726  0.7420 -0.4457
10927TIP3   OH254195   2.655   2.728   0.217 -0.1382 -0.0688  0.6560
10927TIP3    H154196   2.572   2.723   0.170  0.2752  0.8326 -0.2096
10927TIP3    H254197   2.641   2.678   0.297 -1.2975 -0.4878  0.2019
10928TIP3   OH254198   5.977   2.485  15.135 -0.5796 -0.0766  0.2323
10928TIP3    H154199   6.041   2.485  15.063 -1.1905 -1.8706 -0.3542
10928TIP3    H254200   5.918   2.412  15.115 -1.8042  0.4671  1.6637
10929TIP3   OH254201   0.025   4.171   6.015  0.2480 -0.7502 -0.3377
10929TIP3    H154202  -0.062   4.211   6.021  0.5946  0.0504 -0.4294
10929TIP3    H254203   0.040   4.134   6.102  1.3609  2.4868  1.0033
10930TIP3   OH254204   5.029   1.098  16.456 -0.4842  0.0297  0.4723
10930TIP3    H154205   5.082   1.022  16.482 -0.0832  0.1148 -0.0730
10930TIP3    H254206   4.978   1.067  16.381  0.8364  0.7246 -0.7683
10931TIP3   OH254207   2.318   2.247  17.081  0.2298  0.1014 -1.2845
10931TIP3    H154208   2.406   2.233  17.115 -0.5683  2.0130  1.9975
10931TIP3    H254209   2.331   2.293  16.998  2.3266  1.1336 -0.4387
10932TIP3   OH254210   1.700   6.773  15.027  0.2265  0.3170 -0.2738
10932TIP3    H154211   1.630   6.816  15.076  0.1427  0.3439 -0.4166
10932TIP3    H254212   1.717   6.692  15.074 -1.1604 -0.5858 -1.2562
10933TIP3   OH254213   5.915   1.430   6.116 -0.6444  0.2627  0.0505
10933TIP3    H154214   5.899   1.522   6.136 -0.6906  0.1693  0.4429
10933TIP3    H254215   6.009   1.418   6.133 -0.7187  0.1412  0.3711
10934TIP3   OH254216   3.226   6.217   0.129  1.0048 -0.2800 -0.1379
10934TIP3    H154217   3.191   6.137   0.089 -0.4148 -0.2147  0.8966
10934TIP3    H254218   3.238   6.278   0.056  0.7155 -0.9439 -0.7469
10935TIP3   OH254219   1.916   3.746  14.004  0.1821  0.1817 -0.4573
10935TIP3    H154220   1.944   3.762  13.914  0.6738  1.7980 -0.0490
10935TIP3    H254221   1.993   3.709  14.047  1.1261  2.5612  0.1002
10936TIP3   OH254222   5.331   0.303   5.757 -0.1212  0.0842  0.0720
10936TIP3    H154223   5.351   0.299   5.851  0.7242  0.7177 -0.0737
10936TIP3    H254224   5.246   0.260   5.749  1.2967 -3.1687  0.6670
10937TIP3   OH254225   1.660   1.705  15.365  0.2664 -0.1012 -0.1317
10937TIP3    H154226   1.639   1.738  15.452  0.7069 -0.6077  0.1751
10937TIP3    H254227   1.648   1.780  15.307  0.2994  0.3334  0.4151
10938TIP3   OH254228   4.985   0.723  17.214  0.1869 -0.1495 -0.6160
10938TIP3    H154229   5.069   0.717  17.169  0.2283 -0.0679 -0.5501
10938TIP3    H254230   4.990   0.804  17.265  1.3263 -1.7064  1.9557
10939TIP3   OH254231   4.882   6.374   3.409 -0.3442 -0.6423 -0.4952
10939TIP3    H154232   4.877   6.324   3.490 -0.3172 -0.1082 -0.1575
10939TIP3    H254233   4.826   6.450   3.424 -1.1142 -1.0321 -1.3396
10940TIP3   OH254234   2.543   3.806  16.940 -0.1343  0.1544  0.1105
10940TIP3    H154235   2.468   3.801  16.881 -0.6836  0.8515  0.7259
10940TIP3    H254236   2.586   3.888  16.918 -1.5245  1.4759  2.0022
10941TIP3   OH254237   0.260   1.576   0.082 -0.3249 -0.7121 -0.2314
10941TIP3    H154238   0.275   1.578   0.176  0.0101  1.5980 -0.2666
10941TIP3    H254239   0.346   1.589   0.043 -0.5670 -0.8681 -0.8372
10942TIP3   OH254240   1.217   4.688  15.039  0.6178 -0.0307  0.2901
10942TIP3    H154241   1.238   4.659  15.128 -0.4314 -0.4849  0.4004
10942TIP3    H254242   1.188   4.779  15.049 -0.2637 -0.3271  0.5358
10943TIP3   OH254243   3.967   6.538  14.141  0.0377 -0.0205 -0.0537
10943TIP3    H154244   3.943   6.445  14.140  3.1904 -1.0003  1.5424
10943TIP3    H254245   3.964   6.562  14.233 -0.5563  1.4634 -0.4365
10944TIP3   OH254246   3.533   1.578   3.057 -0.5189 -0.2815 -0.1274
10944TIP3    H154247   3.580   1.622   2.986  0.5811  0.0864  0.8043
10944TIP3    H254248   3.548   1.484   3.042  0.7622 -0.1604  0.3054
10945TIP3   OH254249   0.944   5.000  14.495 -0.3374 -0.2377 -0.4721
10945TIP3    H154250   0.978   4.938  14.559  0.0382  0.7839  0.3411
10945TIP3    H254251   1.021   5.028  14.445 -0.2433  0.7539  0.2096
10946TIP3   OH254252   0.591   6.101   3.543 -0.0636  0.4762  0.0834
10946TIP3    H154253   0.671   6.093   3.491  0.6379  1.0221  1.0402
10946TIP3    H254254   0.603   6.041   3.616 -0.2626  0.9876  0.5464
10947TIP3   OH254255   3.395   4.192  16.076 -0.1504  0.0051 -0.0115
10947TIP3    H154256   3.351   4.112  16.050  0.5579 -0.3748 -0.0495
10947TIP3    H254257   3.325   4.258  16.078 -1.0682 -0.9474  1.6363
10948TIP3   OH254258   5.500   2.389  15.933 -0.1886 -0.1141  0.2193
10948TIP3    H154259   5.591   2.368  15.912 -0.7025 -1.9937 -0.3212
10948TIP3    H254260   5.489   2.361  16.024 -0.5432 -1.1109 -0.1158
10949TIP3   OH254261   4.286   2.731  13.085 -0.2790  0.1487 -0.3537
10949TIP3    H154262   4.290   2.693  13.173  1.7444  1.9155  0.4035
10949TIP3    H254263   4.225   2.804  13.093 -1.5774 -0.8235 -0.9636
10950TIP3   OH254264   4.769   5.066  13.677 -0.0649  0.1592  0.2934
10950TIP3    H154265   4.839   5.064  13.742  1.5194 -0.2684 -1.3782
10950TIP3    H254266   4.767   4.979  13.639 -0.4400  0.6054 -0.7664
10951TIP3   OH254267   5.782   5.780  13.535  1.2410  0.2124 -0.0208
10951TIP3    H154268   5.763   5.762  13.627  1.0527 -1.3473 -0.3312
10951TIP3    H254269   5.847   5.714  13.511  2.1101  1.2866 -0.7453
10952TIP3   OH254270   4.889   5.518   4.365 -0.1586 -0.0231 -0.7659
10952TIP3    H154271   4.951   5.445   4.365  0.8166  0.7683  0.4023
10952TIP3    H254272   4.815   5.487   4.418 -0.1228 -0.4365 -0.9500
10953TIP3   OH254273   6.600   1.950  16.319 -0.1399 -0.0486 -0.1933
10953TIP3    H154274   6.605   1.982  16.229 -0.2286 -2.3523 -1.0950
10953TIP3    H254275   6.690   1.955  16.351  0.2474 -0.9008 -1.0846
10954TIP3   OH254276   0.619   2.223   1.135 -0.4928  0.4236 -0.4808
10954TIP3    H154277   0.657   2.274   1.063  1.3871 -1.1248 -0.6495
10954TIP3    H254278   0.674   2.146   1.142  0.5233  1.2893  3.8171
10955TIP3   OH254279   4.584   6.600   1.200  0.7039  0.5720 -0.0678
10955TIP3    H154280   4.489   6.604   1.210  0.8569  0.4885  1.7693
10955TIP3    H254281   4.606   6.677   1.147 -0.4255  0.2478 -1.0403
10956TIP3   OH254282   5.848   4.642  16.355 -0.3637 -0.2780 -0.1900
10956TIP3    H154283   5.861   4.728  16.315 -1.2421 -0.2771 -0.4843
10956TIP3    H254284   5.841   4.582  16.280  2.1564 -0.9412 -0.0075
10957TIP3   OH254285   3.971   0.865  13.982 -0.3323  0.1029 -0.0874
10957TIP3    H154286   3.983   0.841  13.890  0.6183 -1.0807  0.3098
10957TIP3    H254287   3.914   0.797  14.017 -0.8046  0.6261  0.1747
10958TIP3   OH254288   5.598   0.040  15.702  0.0426  1.0459 -0.4837
10958TIP3    H154289   5.612   0.028  15.796 -0.0535 -0.3533 -0.6134
10958TIP3    H254290   5.505   0.020  15.689  0.6099 -1.6295 -1.2032
10959TIP3   OH254291   3.634   6.069   0.241  0.2905 -0.1702 -0.0949
10959TIP3    H154292   3.616   6.163   0.239  2.0369  0.2041 -2.0416
10959TIP3    H254293   3.549   6.028   0.229 -0.5255  1.1520  0.9494
10960TIP3   OH254294   5.340   2.226  11.289  0.0438  0.0294  0.1606
10960TIP3    H154295   5.426   2.264  11.308  0.6854 -1.6602  0.8010
10960TIP3    H254296   5.292   2.297  11.246  1.5660  1.1788  0.2575
10961TIP3   OH254297   4.800   1.335  16.672 -0.0685 -0.3407  0.3707
10961TIP3    H154298   4.874   1.362  16.618  2.6629 -2.4559  2.7242
10961TIP3    H254299   4.795   1.240  16.660 -0.9228 -0.5295  1.9252
10962TIP3   OH254300   4.994   1.545   5.829 -0.7410  0.0655 -1.0304
10962TIP3    H154301   4.936   1.488   5.880 -1.3613 -0.3311 -2.1592
10962TIP3    H254302   5.030   1.488   5.761  1.2041  0.2350 -0.2100
10963TIP3   OH254303   0.823   5.011  11.834 -0.5159  0.1382  0.5597
10963TIP3    H154304   0.738   5.045  11.807 -0.6379  0.8550  1.7878
10963TIP3    H254305   0.884   5.048  11.770 -0.9173  1.0124  0.6711
10964TIP3   OH254306   6.672   2.575   1.968  0.0062  0.0179  0.4569
10964TIP3    H154307   6.696   2.646   2.027 -0.8896  1.5066 -0.8969
10964TIP3    H254308   6.577   2.582   1.958  0.0001 -0.8924 -0.2972
10965TIP3   OH254309   6.106   3.371   3.216  0.5868 -0.2802 -0.1586
10965TIP3    H154310   6.148   3.365   3.131  1.0142  2.8448 -0.2842
10965TIP3    H254311   6.070   3.460   3.218 -2.3624 -1.3760  1.6189
10966TIP3   OH254312   5.484   0.560   0.709  0.1806 -0.5774  0.4231
10966TIP3    H154313   5.418   0.604   0.762  1.1445 -1.0088  2.0384
10966TIP3    H254314   5.477   0.467   0.733 -0.1325 -0.9658 -1.0713
10967TIP3   OH254315   4.797   1.964  13.083  0.4606 -0.2165 -0.6789
10967TIP3    H154316   4.792   1.904  13.157 -0.0309  0.6120 -0.0327
10967TIP3    H254317   4.731   2.031  13.101 -0.4474 -0.5762 -2.3905
10968TIP3   OH254318   6.200   6.242   2.742 -0.4284 -0.3511 -0.2154
10968TIP3    H154319   6.167   6.328   2.770 -0.5374 -0.5193  0.1890
10968TIP3    H254320   6.281   6.230   2.791  0.0643 -0.0903 -0.9498
10969TIP3   OH254321   3.088   2.368  13.922  0.2382 -0.0003 -0.0784
10969TIP3    H154322   3.070   2.275  13.938  2.3419 -0.9899 -2.7094
10969TIP3    H254323   3.011   2.413  13.956 -0.9987 -2.7079  1.0397
10970TIP3   OH254324   2.575   4.118  14.554 -0.4876  0.0202 -0.0918
10970TIP3    H154325   2.529   4.173  14.618 -0.7251 -0.9729  0.6299
10970TIP3    H254326   2.527   4.129  14.473  0.2601  1.8870 -0.3187
10971TIP3   OH254327   3.414   1.492  16.232 -0.4848 -0.1512  0.1646
10971TIP3    H154328   3.496   1.518  16.274  0.1273  1.8969 -2.0650
10971TIP3    H254329   3.440   1.458  16.146 -1.9335  0.6097 -0.6162
10972TIP3   OH254330   1.815   1.967   3.221 -0.0714 -0.4864  0.2728
10972TIP3    H154331   1.806   1.999   3.310  2.6352  1.2093  0.0494
10972TIP3    H254332   1.910   1.958   3.208 -0.0544  2.3943 -3.3635
10973TIP3   OH254333   3.532   5.673  12.510  0.1788  0.0834 -0.0753
10973TIP3    H154334   3.583   5.654  12.431 -0.2613 -0.4670 -0.2310
10973TIP3    H254335   3.588   5.732  12.561  1.1660 -0.8422 -0.0430
10974TIP3   OH254336   3.848   1.974   4.501  0.2060 -0.1658 -0.5158
10974TIP3    H154337   3.839   1.967   4.596 -2.1381  0.4244 -0.6356
10974TIP3    H254338   3.927   2.027   4.488  0.6730 -0.4301  1.0796
10975TIP3   OH254339   0.684   3.546   3.237  0.8963 -0.0962 -0.1856
10975TIP3    H154340   0.671   3.637   3.211 -0.9715 -0.9970 -2.7974
10975TIP3    H254341   0.694   3.550   3.332 -1.0904  2.6639  0.0445
10976TIP3   OH254342   6.582   6.427  14.678  0.1482 -0.3626  0.3661
10976TIP3    H154343   6.658   6.473  14.713  0.1476 -0.6239  0.7137
10976TIP3    H254344   6.576   6.346  14.730  0.4135 -0.9766 -0.5323
10977TIP3   OH254345   1.271   2.308   5.214 -0.1464  0.0316  0.0128
10977TIP3    H154346   1.349   2.287   5.264  0.3246  2.0730  0.2270
10977TIP3    H254347   1.215   2.356   5.275 -0.9592 -0.1886 -0.5350
10978TIP3   OH254348   1.408   5.051  11.653 -0.1622  0.4253  0.5371
10978TIP3    H154349   1.426   5.141  11.626 -2.2191  0.5134 -0.8296
10978TIP3    H254350   1.319   5.054  11.688 -1.0919 -1.3541 -1.4281
10979TIP3   OH254351   3.118   4.319   4.274 -0.0837 -0.2853 -0.6636
10979TIP3    H154352   3.174   4.258   4.225 -0.3554  0.4079 -1.8885
10979TIP3    H254353   3.162   4.330   4.358  1.1632 -0.4308 -1.2749
10980TIP3   OH254354   6.652   6.049   1.694  0.0569  0.4308 -0.0777
10980TIP3    H154355   6.699   6.126   1.725  0.9493 -0.4184  0.7257
10980TIP3    H254356   6.663   6.051   1.598 -0.0220  1.3421 -0.0796
10981TIP3   OH254357   4.485   6.534   5.868  0.2256  0.0583 -0.0126
10981TIP3    H154358   4.486   6.567   5.958  1.8399 -0.3175  0.1376
10981TIP3    H254359   4.423   6.591   5.823 -0.9017  0.0208  1.4020
10982TIP3   OH254360   2.452   2.059   3.972 -0.1802 -0.2168  0.2488
10982TIP3    H154361   2.368   2.040   4.013 -1.0944  1.4318 -0.7936
10982TIP3    H254362   2.484   1.973   3.943  0.0860 -1.3376  3.4455
10983TIP3   OH254363   2.211   1.406  12.162  0.2851 -0.0388 -0.1638
10983TIP3    H154364   2.165   1.374  12.084 -0.5104 -3.5515  1.5226
10983TIP3    H254365   2.158   1.478  12.194 -1.3421 -0.8095 -0.9967
10984TIP3   OH254366   2.918   1.469  11.748 -0.5276  0.3675  0.1128
10984TIP3    H154367   2.933   1.556  11.711 -0.3291 -0.2077 -1.2097
10984TIP3    H254368   2.997   1.452  11.800 -0.4104  0.8307  0.0936
10985TIP3   OH254369   2.271   3.138  12.708  0.1440  0.0839  0.3388
10985TIP3    H154370   2.344   3.200  12.705 -0.0803  0.5052  2.1624
10985TIP3    H254371   2.306   3.058  12.667  1.0220  0.8324 -0.4360
10986TIP3   OH254372   3.673   2.920   3.086  0.1476  0.4330 -0.2564
10986TIP3    H154373   3.676   2.864   3.008  0.5587 -0.3813  0.3231
10986TIP3    H254374   3.708   2.865   3.156 -0.1274  1.1819  0.4889
10987TIP3   OH254375   0.831   2.680   2.006 -0.4341  0.2597 -0.3199
10987TIP3    H154376   0.835   2.758   1.951 -0.3707 -0.4322 -1.3089
10987TIP3    H254377   0.886   2.702   2.082 -2.8710  2.3423  0.9952
10988TIP3   OH254378   1.126   1.893   0.204  0.0060  0.7214 -0.6822
10988TIP3    H154379   1.066   1.968   0.206  0.3520  1.0416  1.8721
10988TIP3    H254380   1.150   1.881   0.296  1.2584 -1.5044 -1.2530
10989TIP3   OH254381   3.725   0.268   1.204 -0.0631  0.0468  0.1260
10989TIP3    H154382   3.686   0.203   1.146 -1.5870  0.0305  1.1089
10989TIP3    H254383   3.780   0.218   1.264  0.5223 -0.0756 -0.5105
10990TIP3   OH254384   6.098   2.389   2.488  0.0912 -0.4168 -0.3389
10990TIP3    H154385   6.075   2.301   2.461 -1.6249 -0.4749  1.1412
10990TIP3    H254386   6.068   2.445   2.417 -0.5267 -0.8843 -0.4530
10991TIP3   OH254387   6.522   5.948   6.034 -0.1633  0.2517  0.4578
10991TIP3    H154388   6.520   5.907   6.121 -0.5388  1.0475  0.8433
10991TIP3    H254389   6.542   6.040   6.052 -2.0316  0.8129 -0.1320
10992TIP3   OH254390   4.883   1.391   2.968 -0.7043  0.0410  0.2279
10992TIP3    H154391   4.799   1.414   3.008 -0.8000 -0.2022  0.1658
10992TIP3    H254392   4.890   1.297   2.978 -1.6264 -0.3450 -1.9970
10993TIP3   OH254393   5.898   3.321  12.845 -0.2735 -0.2570 -0.1845
10993TIP3    H154394   5.840   3.327  12.921  0.5410  0.9532  0.3719
10993TIP3    H254395   5.963   3.255  12.870 -0.3699 -0.3180 -0.0927
10994TIP3   OH254396   0.086   4.664  14.572  0.7542  0.0112 -0.4594
10994TIP3    H154397   0.094   4.741  14.628 -0.7414 -0.6239  0.7074
10994TIP3    H254398   0.051   4.699  14.489 -0.4630  0.5504  0.2495
10995TIP3   OH254399   1.208   2.013   4.954  0.0261  0.3306 -0.3809
10995TIP3    H154400   1.261   2.077   4.908  0.1054  1.0398  0.6739
10995TIP3    H254401   1.216   2.036   5.047  0.9827 -1.8860  0.1455
10996TIP3   OH254402   0.084   2.187   4.148 -0.5626 -0.4146  0.0632
10996TIP3    H154403   0.170   2.148   4.131  0.2943  1.2524  0.3438
10996TIP3    H254404   0.033   2.168   4.069 -0.1000 -1.7909  0.0652
10997TIP3   OH254405   3.388   4.335  12.476  0.4003  0.3399  0.2052
10997TIP3    H154406   3.430   4.329  12.390  1.2622  1.4527  0.5301
10997TIP3    H254407   3.351   4.248  12.490 -0.4163  0.3454 -1.6155
10998TIP3   OH254408   2.466   5.822  14.923 -0.0630  0.2973 -0.2515
10998TIP3    H154409   2.387   5.784  14.885 -1.1362  2.3754 -0.1917
10998TIP3    H254410   2.530   5.820  14.851 -0.4405 -0.5273 -0.5807
10999TIP3   OH254411   6.542   4.617  15.291  0.2165 -0.1713 -0.2921
10999TIP3    H154412   6.546   4.525  15.265 -1.2053 -0.2003 -0.4716
10999TIP3    H254413   6.448   4.637  15.296  0.5000  1.2024 -0.0188
11000TIP3   OH254414   0.033   2.955  16.245  0.2143 -0.7653 -0.1687
11000TIP3    H154415   0.053   3.048  16.256 -0.3207 -0.6953  0.1913
11000TIP3    H254416   0.056   2.915  16.329  0.1338 -0.9087 -0.2149
11001TIP3   OH254417   0.252   4.309   5.901  0.2553 -0.4384  0.6210
11001TIP3    H154418   0.169   4.295   5.947  0.0100 -0.7356  0.0950
11001TIP3    H254419   0.290   4.386   5.944 -0.6272  0.1474  0.3962
11002TIP3   OH254420   6.044   5.631   2.404 -0.2807  0.2644 -0.2432
11002TIP3    H154421   6.125   5.585   2.385  0.3534  0.4722  1.7072
11002TIP3    H254422   6.012   5.591   2.484 -0.3813  2.3038  0.8040
11003TIP3   OH254423   6.456   0.456   2.894 -0.5307  0.2069 -0.0688
11003TIP3    H154424   6.409   0.396   2.952 -0.8422  1.8310  1.4497
11003TIP3    H254425   6.396   0.469   2.820 -1.5988  0.6361  0.8383
11004TIP3   OH254426   5.934   3.495   2.349  0.0775  0.4719 -0.0561
11004TIP3    H154427   5.948   3.579   2.394 -0.7875 -0.1806  1.5337
11004TIP3    H254428   5.839   3.494   2.332 -0.2848 -1.0057  1.7675
11005TIP3   OH254429   0.236   5.133   1.606  0.0612 -0.0175  0.9092
11005TIP3    H154430   0.268   5.158   1.519 -0.2555  0.3153  0.8824
11005TIP3    H254431   0.256   5.040   1.614 -1.0080 -0.3520 -0.0255
11006TIP3   OH254432   5.800   2.772  13.590 -0.2120  0.2353 -0.2908
11006TIP3    H154433   5.876   2.774  13.648  0.2783  0.8558 -0.9409
11006TIP3    H254434   5.771   2.681  13.591 -0.3828  0.2816  1.1404
11007TIP3   OH254435   0.016   4.749   1.056 -0.4426 -0.8979  0.2019
11007TIP3    H154436  -0.017   4.834   1.086  0.9884  0.3375 -1.4859
11007TIP3    H254437  -0.026   4.736   0.971  0.7582 -0.9506 -0.4023
11008TIP3   OH254438   5.040   0.732  13.992 -0.5264 -0.6120  0.3213
11008TIP3    H154439   4.985   0.659  14.021  0.2272 -1.5395 -0.5034
11008TIP3    H254440   5.119   0.726  14.045 -0.2607 -0.7048 -0.0757
11009TIP3   OH254441   2.182   5.247   4.406 -0.1677  0.8331 -0.1636
11009TIP3    H154442   2.118   5.310   4.371 -0.1336  0.2309 -1.3787
11009TIP3    H254443   2.158   5.164   4.364  0.3358  0.2247  0.7376
11010TIP3   OH254444   2.820   5.245   3.064  0.0297  0.7825  0.7430
11010TIP3    H154445   2.752   5.200   3.014 -0.4687  0.5978  1.5494
11010TIP3    H254446   2.835   5.189   3.140  1.5367  0.5254  0.2864
11011TIP3   OH254447   5.202   6.153   2.799 -0.3328  0.2771  0.5525
11011TIP3    H154448   5.198   6.233   2.851 -1.2880  1.0666 -0.6925
11011TIP3    H254449   5.132   6.162   2.735  1.1474 -0.3999 -1.2647
11012TIP3   OH254450   5.175   0.124  15.036  0.1448  0.1678  0.2839
11012TIP3    H154451   5.249   0.124  14.975 -0.4381 -2.4597 -0.5679
11012TIP3    H254452   5.130   0.207  15.020 -0.0557 -0.4545 -3.0292
11013TIP3   OH254453   3.878   4.019   6.866  0.3293  0.0420  0.2722
11013TIP3    H154454   3.941   4.058   6.805  0.8259 -0.7569  0.2546
11013TIP3    H254455   3.910   4.045   6.952  0.4103  0.0318  0.2458
11014TIP3   OH254456   4.899   0.088   0.922 -0.1817  0.1952 -0.0181
11014TIP3    H154457   4.881   0.181   0.933  1.8163  0.5546  0.6140
11014TIP3    H254458   4.942   0.082   0.837  1.6939  0.2154  0.8830
11015TIP3   OH254459   3.307   5.153   4.485  0.4969 -0.1935  0.2812
11015TIP3    H154460   3.259   5.186   4.409  0.6756  2.4734  1.2075
11015TIP3    H254461   3.399   5.174   4.466  0.8783 -1.8201  0.1793
11016TIP3   OH254462   1.071   4.261  14.441  0.0361  0.4457  0.1203
11016TIP3    H154463   1.036   4.300  14.522 -0.6206 -2.0241  1.1392
11016TIP3    H254464   1.143   4.318  14.416  0.7285  0.9309  2.8691
11017TIP3   OH254465   5.553   2.383  16.392 -0.1090 -0.0507  0.3069
11017TIP3    H154466   5.536   2.473  16.365  1.2027 -0.6029 -2.7121
11017TIP3    H254467   5.511   2.329  16.325  2.4569 -1.5840 -0.1986
11018TIP3   OH254468   4.207   6.153  16.906  0.0940 -0.1846 -0.0049
11018TIP3    H154469   4.182   6.071  16.948  0.3728  0.1859  0.9074
11018TIP3    H254470   4.137   6.214  16.928  0.4729  0.1386  0.3353
11019TIP3   OH254471   6.702   3.768  15.327  0.5017  0.8703  0.0155
11019TIP3    H154472   6.756   3.846  15.309  0.0858  0.8676 -1.4190
11019TIP3    H254473   6.661   3.749  15.243  0.4494 -0.8031  0.3936
11020TIP3   OH254474   1.062   2.875   3.609  0.2810 -0.3373  0.2378
11020TIP3    H154475   1.152   2.867   3.579 -0.1900  0.6078 -1.5071
11020TIP3    H254476   1.008   2.846   3.535 -0.8992  1.0811  0.4922
11021TIP3   OH254477   2.323   4.239   1.671  0.2995  0.0542 -0.2861
11021TIP3    H154478   2.371   4.195   1.741  0.1709  0.1589 -0.1307
11021TIP3    H254479   2.363   4.326   1.666 -0.4568  0.4587  0.4510
11022TIP3   OH254480   3.847   4.352   3.278 -0.1022 -0.0675 -0.0288
11022TIP3    H154481   3.918   4.415   3.290 -0.1910 -0.0317  0.3278
11022TIP3    H254482   3.856   4.321   3.188 -1.0715  1.7152 -0.7930
11023TIP3   OH254483   3.766   0.955  11.663  0.1256 -0.8440  0.1404
11023TIP3    H154484   3.733   1.033  11.618  0.7443 -0.4367  0.3828
11023TIP3    H254485   3.735   0.882  11.610  1.4285 -0.3525 -1.3619
11024TIP3   OH254486   4.520   6.184   0.717 -0.0547  0.2003  0.0589
11024TIP3    H154487   4.598   6.146   0.757 -0.8779 -0.8829  0.7021
11024TIP3    H254488   4.457   6.112   0.716 -1.0623  1.0726 -0.4029
11025TIP3   OH254489   3.481   4.121  11.200  0.8443 -0.3746 -0.4210
11025TIP3    H154490   3.462   4.120  11.294 -0.9859 -2.5708 -0.7133
11025TIP3    H254491   3.547   4.189  11.189 -0.4755  1.4713  2.1212
11026TIP3   OH254492   2.889   2.786  14.496  0.1548 -0.2956 -0.4505
11026TIP3    H154493   2.806   2.827  14.518 -0.8326 -2.9094  1.1466
11026TIP3    H254494   2.952   2.858  14.496 -1.2422  1.1675  3.2540
11027TIP3   OH254495   2.975   0.117   4.496  0.2020 -0.1498  0.0052
11027TIP3    H154496   2.995   0.035   4.451  1.2134  0.6038 -0.9733
11027TIP3    H254497   2.979   0.095   4.589  2.0935 -0.8694 -0.2108
11028TIP3   OH254498   3.638   1.962   3.998 -0.0732 -0.0008  0.0994
11028TIP3    H154499   3.682   1.957   4.083  1.3478 -0.0034 -0.5934
11028TIP3    H254500   3.686   1.900   3.943 -1.8192 -0.9811 -0.3750
11029TIP3   OH254501   5.373   1.663  10.983  0.1107  0.5811 -0.5319
11029TIP3    H154502   5.413   1.594  10.929  0.0424 -0.8971  1.2017
11029TIP3    H254503   5.414   1.653  11.069  1.2898  3.8001 -0.5691
11030TIP3   OH254504   0.641   2.548  14.361 -0.2224  0.1139 -0.1864
11030TIP3    H154505   0.591   2.467  14.374  0.0016  0.1441  0.9903
11030TIP3    H254506   0.575   2.613  14.338 -0.7204  0.0901  1.0908
11031TIP3   OH254507   4.977   4.868   2.222  0.2624  0.1540 -0.4574
11031TIP3    H154508   4.913   4.940   2.219  0.0497  0.0457  0.8120
11031TIP3    H254509   5.061   4.911   2.235 -0.1617  0.1793  3.4225
11032TIP3   OH254510   2.413   5.537   4.688 -0.4780  0.0409  0.0330
11032TIP3    H154511   2.473   5.574   4.622 -0.5259  0.1509  0.0501
11032TIP3    H254512   2.339   5.504   4.637  0.5070 -1.9781 -0.1887
11033TIP3   OH254513   2.573   1.810  16.442 -0.0160 -0.4979 -0.4121
11033TIP3    H154514   2.486   1.832  16.409 -0.1196 -2.5355 -1.6348
11033TIP3    H254515   2.586   1.718  16.419  1.2556 -1.1542  2.4350
11034TIP3   OH254516   5.431   3.861  15.924 -0.1781  0.0305 -0.0197
11034TIP3    H154517   5.370   3.789  15.941 -0.9451  0.6503 -0.0462
11034TIP3    H254518   5.463   3.845  15.835 -0.5354 -0.1526 -0.1189
11035TIP3   OH254519   0.427   0.524   1.361 -0.8437 -0.0725 -0.8425
11035TIP3    H154520   0.402   0.559   1.446 -0.6179  0.6589 -1.0704
11035TIP3    H254521   0.501   0.578   1.334  2.1827 -3.1165  0.5320
11036TIP3   OH254522   0.461   5.365  12.559  0.2013 -0.2333  0.1464
11036TIP3    H154523   0.483   5.277  12.528  2.1684 -0.8639  2.9590
11036TIP3    H254524   0.475   5.362  12.653 -2.5301  2.3427  0.8068
11037TIP3   OH254525   5.727   0.769   3.848  0.1058 -0.0044  0.4051
11037TIP3    H154526   5.785   0.698   3.874  1.4308  1.2867  1.1757
11037TIP3    H254527   5.774   0.814   3.778  0.4706  1.5184  1.5475
11038TIP3   OH254528   0.185   0.933  12.132  0.0374 -0.0167 -0.1922
11038TIP3    H154529   0.099   0.952  12.169  0.0491  0.3335 -0.3424
11038TIP3    H254530   0.171   0.856  12.077  0.3618 -1.6102  1.8514
11039TIP3   OH254531   5.067   2.196   0.561 -0.0040 -0.1962  0.2689
11039TIP3    H154532   5.080   2.231   0.473  0.0799 -2.0224 -0.4804
11039TIP3    H254533   4.974   2.207   0.578 -0.3874 -1.5287 -0.8347
11040TIP3   OH254534   0.971   4.447   2.726  0.1666 -0.7652  0.0129
11040TIP3    H154535   0.905   4.516   2.734 -1.1422 -2.1653  1.9977
11040TIP3    H254536   0.937   4.390   2.657 -0.4932 -1.2319  0.7100
11041TIP3   OH254537   4.922   2.513   0.268 -0.1835  0.2764  0.0359
11041TIP3    H154538   4.869   2.468   0.202  0.6568  0.0671 -0.5100
11041TIP3    H254539   4.902   2.606   0.257  0.2585  0.2781 -0.7925
11042TIP3   OH254540   4.962   3.964  14.235 -0.3769  0.1944 -0.0858
11042TIP3    H154541   4.951   4.014  14.316 -1.7883  1.0471 -0.7845
11042TIP3    H254542   4.883   3.980  14.185  0.2329 -0.7637 -1.4245
11043TIP3   OH254543   0.757   1.396   4.303  0.7668  0.1661 -0.0208
11043TIP3    H154544   0.664   1.383   4.324  1.3469 -1.6654  1.7441
11043TIP3    H254545   0.790   1.451   4.374  1.4515 -1.0132  0.6183
11044TIP3   OH254546   3.380   5.915   1.205 -0.0709  0.0023  0.0142
11044TIP3    H154547   3.294   5.896   1.242 -0.7846  1.3583 -0.8727
11044TIP3    H254548   3.379   5.871   1.120 -0.0043  0.2708 -0.1257
11045TIP3   OH254549   1.643   2.090   5.081 -0.1395  0.3051 -0.1318
11045TIP3    H154550   1.627   2.157   5.148  0.8260  3.4775 -2.8544
11045TIP3    H254551   1.725   2.049   5.107 -0.1832  0.9028  1.0208
11046TIP3   OH254552   5.449   4.491   1.485  0.1890  0.5443  0.0819
11046TIP3    H154553   5.476   4.560   1.425 -0.2227 -0.7360 -1.6581
11046TIP3    H254554   5.520   4.427   1.482 -0.2915 -0.0008  0.1895
11047TIP3   OH254555   4.534   1.830   3.123 -0.1276 -0.0327  0.1599
11047TIP3    H154556   4.493   1.785   3.049 -1.2722  0.2813  0.5710
11047TIP3    H254557   4.571   1.760   3.176 -3.4349 -0.8230  1.7430
11048TIP3   OH254558   3.241   4.676  13.163  0.2022  0.7441  0.3852
11048TIP3    H154559   3.279   4.596  13.127 -0.3724  0.9679 -0.7501
11048TIP3    H254560   3.149   4.672  13.138 -0.0344  1.3129  1.1360
11049TIP3   OH254561   0.650   2.224   3.491  0.3508 -0.3458 -0.1175
11049TIP3    H154562   0.572   2.260   3.532  0.5496  0.7525 -0.6511
11049TIP3    H254563   0.646   2.130   3.509 -2.3098 -0.7328 -2.0670
11050TIP3   OH254564   0.750   3.034   3.503 -0.1851  0.4792 -0.1410
11050TIP3    H154565   0.743   2.966   3.570 -1.7032 -0.2387 -0.9694
11050TIP3    H254566   0.713   2.994   3.425  1.0345  1.4916 -1.2828
11051TIP3   OH254567   5.650   5.218  10.731 -0.2345  0.1562 -0.8264
11051TIP3    H154568   5.700   5.150  10.776 -0.3885 -0.3377 -1.3912
11051TIP3    H254569   5.571   5.173  10.700  0.8861 -0.1100 -3.5733
11052TIP3   OH254570   2.873   0.267  13.982  0.5095  0.3888 -0.0869
11052TIP3    H154571   2.837   0.236  13.899  0.5405  1.0219 -0.3425
11052TIP3    H254572   2.811   0.332  14.014 -0.1142 -0.6906  0.9899
11053TIP3   OH254573   2.349   0.051  14.481  0.5792  0.0453  0.1370
11053TIP3    H154574   2.406   0.128  14.477  0.2499  0.3198  0.5965
11053TIP3    H254575   2.389  -0.004  14.549 -0.2658  0.7184  1.2172
11054TIP3   OH254576   0.356   1.476   4.814 -0.0294  0.0847 -0.5591
11054TIP3    H154577   0.286   1.413   4.799  0.8361 -1.1754  0.4169
11054TIP3    H254578   0.435   1.432   4.780  0.7077  0.3153  0.7710
11055TIP3   OH254579   5.876   4.783  15.031 -0.1702 -0.1578 -0.1312
11055TIP3    H154580   5.896   4.873  15.056  0.6002 -0.5801  0.8375
11055TIP3    H254581   5.922   4.729  15.096 -0.4995 -1.2524 -0.7804
11056TIP3   OH254582   3.141   3.305  12.597 -0.5098  0.5581  0.4875
11056TIP3    H154583   3.080   3.364  12.642  0.1482  0.0946  2.0680
11056TIP3    H254584   3.103   3.292  12.511 -1.7995  1.5526  0.8753
11057TIP3   OH254585   2.199   2.882   0.568 -0.6441 -0.2313  0.0973
11057TIP3    H154586   2.270   2.896   0.631  1.2745 -0.4292 -1.9168
11057TIP3    H254587   2.177   2.789   0.577  1.7891 -1.0480 -1.5868
11058TIP3   OH254588   2.307   1.472  13.754 -0.3849 -0.1636 -0.1917
11058TIP3    H154589   2.220   1.484  13.790  0.3074  1.1212  1.1604
11058TIP3    H254590   2.302   1.509  13.666 -2.0974 -3.3483 -1.6036
11059TIP3   OH254591   4.127   5.636  15.556 -0.0216 -0.3447 -0.1602
11059TIP3    H154592   4.088   5.716  15.521 -0.5368 -0.8183 -0.6839
11059TIP3    H254593   4.062   5.568  15.540  0.0130 -0.7035  1.1288
11060TIP3   OH254594   6.661   1.777  11.501 -0.0316 -0.0975  0.3832
11060TIP3    H154595   6.717   1.847  11.468 -0.1636  1.2632  2.8063
11060TIP3    H254596   6.572   1.812  11.493 -0.2833 -0.8694 -0.3151
11061TIP3   OH254597   1.049   1.140   3.960 -0.1630 -0.6667  0.3106
11061TIP3    H154598   0.961   1.173   3.943  0.5572  0.4069 -1.7008
11061TIP3    H254599   1.091   1.209   4.012 -0.3249 -0.9220  0.7849
11062TIP3   OH254600   4.615   4.434  11.962 -0.5055 -0.0574 -0.2763
11062TIP3    H154601   4.702   4.462  11.993 -0.1828 -0.9402 -0.3734
11062TIP3    H254602   4.633   4.370  11.894 -1.2450 -0.1727 -0.3711
11063TIP3   OH254603   4.580   5.854  13.779 -0.1239 -0.8793 -0.2477
11063TIP3    H154604   4.675   5.851  13.765 -0.1118 -1.8364  0.0034
11063TIP3    H254605   4.559   5.769  13.818 -0.9438 -0.2956  0.6179
11064TIP3   OH254606   3.115   2.996   3.767  0.5233 -0.4528 -0.1933
11064TIP3    H154607   3.045   2.965   3.824  1.1164 -0.7604  0.3837
11064TIP3    H254608   3.099   3.090   3.758  0.7963 -0.2687  1.0405
11065TIP3   OH254609   4.071   4.599  12.689 -0.2598  0.1634 -0.4114
11065TIP3    H154610   4.152   4.639  12.657  0.3803 -1.1539 -0.4815
11065TIP3    H254611   4.006   4.622  12.622  0.0399  1.2264 -0.3539
11066TIP3   OH254612   5.119   1.319  15.633  0.4626 -0.3630 -0.0319
11066TIP3    H154613   5.070   1.401  15.640  2.3268  0.7378  1.0802
11066TIP3    H254614   5.140   1.311  15.540  2.3056  1.7643  0.1243
11067TIP3   OH254615   3.046   5.862  14.867 -0.2306  0.0299 -0.3209
11067TIP3    H154616   3.094   5.805  14.928  0.0222 -0.5921 -1.0968
11067TIP3    H254617   2.954   5.839  14.881 -0.2505  0.5447  0.4790
11068TIP3   OH254618   0.116   1.131  16.958 -0.1172 -0.5990 -0.0108
11068TIP3    H154619   0.181   1.066  16.986 -0.6860 -0.3468  2.0638
11068TIP3    H254620   0.094   1.179  17.038  1.0596  2.9188 -1.5920
11069TIP3   OH254621   6.075   2.989  13.603  0.0125  0.2044  0.4306
11069TIP3    H154622   6.034   2.977  13.517 -1.0632 -1.1027  1.0985
11069TIP3    H254623   6.167   3.008  13.582  0.0691 -1.3638 -1.0142
11070TIP3   OH254624   3.400   3.063  17.149  0.6707 -0.1605 -0.9589
11070TIP3    H154625   3.439   3.117  17.218 -0.6257  0.0824 -0.3903
11070TIP3    H254626   3.447   2.980  17.154 -0.2007 -0.5926  1.0721
11071TIP3   OH254627   5.539   4.519   1.003 -0.0213 -0.3963  0.1489
11071TIP3    H154628   5.613   4.543   1.059 -0.3230 -0.3279  0.5181
11071TIP3    H254629   5.580   4.476   0.927  0.4975  0.9946 -0.3877
11072TIP3   OH254630   4.605   0.656  14.322 -0.0610  0.1674  0.7308
11072TIP3    H154631   4.615   0.713  14.246 -1.6027  0.4061  0.6698
11072TIP3    H254632   4.543   0.589  14.294  0.1763 -0.3636  1.4428
11073TIP3   OH254633   3.926   0.952   5.039 -0.0770  0.2911 -0.9381
11073TIP3    H154634   3.880   0.887   4.986 -1.7841  1.6278 -1.1879
11073TIP3    H254635   4.019   0.932   5.027 -0.5252 -1.3652 -1.9143
11074TIP3   OH254636   6.589   1.597  14.441 -0.3461 -0.3202 -0.1123
11074TIP3    H154637   6.657   1.655  14.407 -0.9913  0.9864  0.7873
11074TIP3    H254638   6.522   1.596  14.372 -0.0288 -0.5558 -0.4227
11075TIP3   OH254639   6.131   0.178  12.713  0.3617 -0.4817  0.5056
11075TIP3    H154640   6.152   0.147  12.801 -0.8737 -1.3256  0.5307
11075TIP3    H254641   6.168   0.112  12.655  1.6002  0.3235  0.3488
11076TIP3   OH254642   4.937   5.690  13.565  0.3255 -0.1181 -0.4476
11076TIP3    H154643   4.936   5.640  13.483  1.9099  1.2103 -1.3336
11076TIP3    H254644   5.028   5.689  13.592 -0.2866 -1.2158  1.7959
11077TIP3   OH254645   6.770   5.329  11.556  0.5133  0.0504  0.1657
11077TIP3    H154646   6.810   5.387  11.621  1.0855 -0.9370  0.7377
11077TIP3    H254647   6.816   5.246  11.568  0.3219 -0.2738 -1.2254
11078TIP3   OH254648   3.429   2.716  11.628  0.5265  0.0140  0.0603
11078TIP3    H154649   3.496   2.740  11.692  0.5683 -1.5001  0.6065
11078TIP3    H254650   3.350   2.700  11.680  0.3951 -0.6097 -0.3226
11079TIP3   OH254651   1.895   5.218   1.264  0.1860  0.0521 -0.2785
11079TIP3    H154652   1.956   5.173   1.205 -0.4316  1.3865 -2.0400
11079TIP3    H254653   1.951   5.254   1.334  1.3064  0.3733 -1.2944
11080TIP3   OH254654   5.627   3.692   3.528 -0.0936  0.2940  0.1122
11080TIP3    H154655   5.626   3.766   3.467  0.3694  0.9887  0.9107
11080TIP3    H254656   5.673   3.622   3.481  1.9995  1.4353  0.2999
11081TIP3   OH254657   0.049   6.213  16.233  0.3492 -0.5349  0.1793
11081TIP3    H154658  -0.015   6.159  16.278 -1.8467  1.5064 -0.3170
11081TIP3    H254659   0.058   6.173  16.146 -0.4129 -0.7273  0.1842
11082TIP3   OH254660   0.773   2.488   3.612 -0.4077  0.3204  0.3315
11082TIP3    H154661   0.852   2.444   3.644 -1.1168 -0.8583  0.5122
11082TIP3    H254662   0.717   2.418   3.581 -0.8798  1.2426 -0.9827
11083TIP3   OH254663   0.374   0.924   2.737 -0.4521 -0.5822  0.1688
11083TIP3    H154664   0.454   0.970   2.763  0.1435 -1.4163 -0.1627
11083TIP3    H254665   0.326   0.988   2.684 -0.1476  0.0210  0.6077
11084TIP3   OH254666   4.818   1.353  12.492  0.0331  0.1695 -0.3755
11084TIP3    H154667   4.784   1.346  12.582 -1.1993  1.8333 -0.6760
11084TIP3    H254668   4.904   1.392  12.502  0.9008 -1.7673  0.2132
11085TIP3   OH254669   1.620   4.381  14.057  0.8868 -0.1992 -0.1376
11085TIP3    H154670   1.663   4.462  14.083 -1.3630  1.0673 -0.0212
11085TIP3    H254671   1.655   4.361  13.970  0.6279  1.6060 -0.6874
11086TIP3   OH254672   6.121   6.303  11.041 -0.1577 -0.8140  0.2067
11086TIP3    H154673   6.166   6.336  11.119  3.2496 -1.0906 -1.4621
11086TIP3    H254674   6.088   6.382  10.998 -1.2544 -0.5800  1.4133
11087TIP3   OH254675   1.478   3.924   5.592  0.7155  0.1326 -0.1187
11087TIP3    H154676   1.567   3.959   5.592 -0.1855  2.6451 -0.6637
11087TIP3    H254677   1.460   3.904   5.500  0.3891  0.6184 -0.1665
11088TIP3   OH254678   5.500   6.631   6.020 -0.3353  0.2692  0.0593
11088TIP3    H154679   5.554   6.617   5.942  0.4763  0.0559  0.6364
11088TIP3    H254680   5.509   6.724   6.039  0.4191  0.1053  0.5563
11089TIP3   OH254681   5.170   5.713   4.945  0.0217 -0.4699  0.2865
11089TIP3    H154682   5.248   5.683   4.899  0.3084 -0.4400  0.7426
11089TIP3    H254683   5.203   5.746   5.029 -0.5754 -1.3848  0.9073
11090TIP3   OH254684   3.705   2.605   0.873  0.1321 -0.5743  0.1861
11090TIP3    H154685   3.749   2.523   0.850  0.0162 -0.4107 -0.6225
11090TIP3    H254686   3.735   2.623   0.963 -2.1464 -3.0554  1.5827
11091TIP3   OH254687   1.837   6.649  11.274  0.3650 -0.2772 -0.2855
11091TIP3    H154688   1.795   6.733  11.255  1.9840  0.5198 -0.5868
11091TIP3    H254689   1.883   6.664  11.357  2.0994 -0.2462 -1.1966
11092TIP3   OH254690   6.374   1.265   0.914  0.1349  0.4921  0.0776
11092TIP3    H154691   6.343   1.198   0.853  0.3035 -0.4360  0.9853
11092TIP3    H254692   6.446   1.223   0.961 -0.6168  0.8291  1.5871
11093TIP3   OH254693   4.166   3.148  12.393 -0.4053  0.2081  0.2048
11093TIP3    H154694   4.260   3.162  12.385 -0.3700 -0.0356  0.1749
11093TIP3    H254695   4.127   3.211  12.332 -0.2453  0.0701 -0.0447
11094TIP3   OH254696   4.313   3.565  11.801  0.5394 -0.0026  0.2776
11094TIP3    H154697   4.406   3.569  11.779  0.5217  1.8195  0.4157
11094TIP3    H254698   4.279   3.652  11.778 -1.2255 -0.7661 -0.1726
11095TIP3   OH254699   4.096   1.619  14.298 -0.2339  0.9444  0.0660
11095TIP3    H154700   4.180   1.591  14.260  0.0427 -0.0061  1.2852
11095TIP3    H254701   4.054   1.669  14.229  1.8288  2.4231 -0.2142
11096TIP3   OH254702   5.811   5.818   0.879 -0.3513 -0.1777 -0.0764
11096TIP3    H154703   5.770   5.834   0.964 -0.4237  0.7061 -0.2656
11096TIP3    H254704   5.896   5.779   0.899 -0.6649 -0.6361  0.3713
11097TIP3   OH254705   0.352   2.966   1.396  0.1898 -0.0034  0.6607
11097TIP3    H154706   0.392   2.992   1.479  0.9495 -0.9009  0.5944
11097TIP3    H254707   0.262   2.998   1.401  0.0955 -0.4425  2.0270
11098TIP3   OH254708   6.391   6.344   0.813 -0.1724  0.3790  0.0132
11098TIP3    H154709   6.436   6.320   0.894 -0.6692  0.2791  0.2664
11098TIP3    H254710   6.428   6.286   0.747  0.9343  1.1245 -0.0362
11099TIP3   OH254711   3.087   4.338  14.780  0.6218 -0.0235 -0.2056
11099TIP3    H154712   3.110   4.392  14.705  0.1519 -0.8570 -0.9710
11099TIP3    H254713   2.998   4.308  14.762  0.5048 -0.2364  0.6869
11100TIP3   OH254714   3.162   1.162  11.161 -0.4779 -0.0403 -0.0298
11100TIP3    H154715   3.189   1.073  11.142 -0.7147 -0.0889 -0.1369
11100TIP3    H254716   3.170   1.209  11.078  1.5067  0.5214  0.4223
11101TIP3   OH254717   2.984   4.966  13.532 -0.0820  0.2869  0.3433
11101TIP3    H154718   2.963   4.936  13.621  0.8561 -1.5763 -0.0234
11101TIP3    H254719   3.078   4.949  13.522  0.3897  2.7533 -0.1945
11102TIP3   OH254720   2.666   5.059  12.948 -0.4094 -0.5993  0.4199
11102TIP3    H154721   2.656   4.982  13.005 -1.4161 -0.6039  0.2718
11102TIP3    H254722   2.660   5.023  12.859  1.3955 -0.6246  0.2724
11103TIP3   OH254723   2.285   6.101   0.317  0.0058  0.4690 -0.9819
11103TIP3    H154724   2.378   6.082   0.329 -0.0214  0.0797 -1.3799
11103TIP3    H254725   2.243   6.016   0.319 -0.5521  0.7387  0.8672
11104TIP3   OH254726   4.312   5.696   1.261  0.0801 -0.0704  0.5123
11104TIP3    H154727   4.388   5.663   1.308 -0.0283 -0.0616  0.6957
11104TIP3    H254728   4.239   5.686   1.323  0.4242  2.6792  1.4859
11105TIP3   OH254729   0.861   2.273  14.017 -0.5635 -0.1694  0.2257
11105TIP3    H154730   0.836   2.351  14.066 -0.2841 -0.1322  0.3133
11105TIP3    H254731   0.778   2.234  13.989 -0.7285 -0.2700  0.8429
11106TIP3   OH254732   0.715   6.343   3.349  0.4128 -0.7030 -0.3119
11106TIP3    H154733   0.738   6.437   3.350  1.3659 -0.9096  1.4983
11106TIP3    H254734   0.648   6.334   3.416  0.1031 -1.2850 -0.6923
11107TIP3   OH254735   4.275   1.844   1.085  0.1372  0.2049  0.1143
11107TIP3    H154736   4.310   1.788   1.016 -1.7594 -1.3106  0.2908
11107TIP3    H254737   4.348   1.857   1.146  0.9324 -1.1511 -0.5231
11108TIP3   OH254738   1.855   0.029  13.968  0.3398  0.5943 -0.0812
11108TIP3    H154739   1.801  -0.050  13.965 -0.8173  1.3636 -1.0428
11108TIP3    H254740   1.943  -0.002  13.986 -0.4607 -0.6882  1.9377
11109TIP3   OH254741   4.453   6.249  12.537  0.1627 -0.2067  1.0105
11109TIP3    H154742   4.505   6.249  12.457  0.0390 -1.5984  0.9173
11109TIP3    H254743   4.389   6.319  12.523  2.0273  1.6546  1.1874
11110TIP3   OH254744   2.361   0.464   4.239 -0.3673 -0.2924 -0.4463
11110TIP3    H154745   2.431   0.405   4.267 -1.4696 -0.9122  1.1401
11110TIP3    H254746   2.391   0.550   4.266  0.3856 -0.3516 -1.0391
11111TIP3   OH254747   2.529   2.462  15.378  0.2856  0.1061  0.1660
11111TIP3    H154748   2.612   2.507  15.364  0.1856  0.0074 -0.7969
11111TIP3    H254749   2.505   2.427  15.292  0.5872 -2.1920  0.9306
11112TIP3   OH254750   2.962   1.338  14.373  0.2326 -0.0025 -0.1331
11112TIP3    H154751   3.001   1.290  14.300 -0.6564  0.3503 -0.8716
11112TIP3    H254752   2.868   1.327  14.361  0.0403  0.9741  0.3207
11113TIP3   OH254753   0.355   3.844   0.177 -0.1903 -0.0145  0.5433
11113TIP3    H154754   0.294   3.787   0.224 -0.1891 -1.1528 -0.7653
11113TIP3    H254755   0.371   3.798   0.094  1.3389  0.9644  0.2679
11114TIP3   OH254756   6.500   4.047  14.739 -0.3092 -0.4549 -0.6785
11114TIP3    H154757   6.478   4.106  14.667 -0.4728  0.1600 -0.1245
11114TIP3    H254758   6.424   4.048  14.796 -0.3815 -1.3344 -0.7384
11115TIP3   OH254759   0.002   5.652  12.909  0.4432 -0.1195 -0.3824
11115TIP3    H154760   0.016   5.639  13.003 -0.8431  2.1031  0.1743
11115TIP3    H254761  -0.073   5.597  12.887  0.2770 -0.0645  0.0537
11116TIP3   OH254762   3.176   4.892   6.144 -0.4829 -0.1210  0.1734
11116TIP3    H154763   3.239   4.850   6.085 -0.0825  1.1278 -0.3164
11116TIP3    H254764   3.182   4.841   6.224  1.0799 -0.1215  0.0991
11117TIP3   OH254765   2.610   1.748   3.110 -0.3292 -0.3320 -0.1856
11117TIP3    H154766   2.553   1.821   3.131  0.9103  0.7955 -0.5730
11117TIP3    H254767   2.577   1.675   3.162 -2.0456  0.2931 -0.3590
11118TIP3   OH254768   5.752   1.812  16.530  0.2296  0.2404  0.2791
11118TIP3    H154769   5.713   1.734  16.490  1.8476 -0.1963 -0.5250
11118TIP3    H254770   5.729   1.884  16.470  0.3087  0.0666  0.0410
11119TIP3   OH254771   1.706   1.631   3.275  0.2666  0.2036  0.0770
11119TIP3    H154772   1.747   1.574   3.209  1.0239 -0.8163  1.3857
11119TIP3    H254773   1.733   1.719   3.251  1.0958 -0.2189 -0.5829
11120TIP3   OH254774   5.958   2.196  15.974 -0.4406 -0.6428  0.1132
11120TIP3    H154775   5.991   2.106  15.979  1.4954  0.0458  0.5527
11120TIP3    H254776   5.956   2.215  15.880 -2.1993 -1.5645 -0.0802
11121TIP3   OH254777   2.185   3.626   0.113 -0.3211  0.0015 -0.3939
11121TIP3    H154778   2.150   3.613   0.201  1.1978  0.7732  0.3722
11121TIP3    H254779   2.204   3.538   0.080 -0.0648 -0.2511  0.4226
11122TIP3   OH254780   3.812   5.881  11.813 -0.4838 -0.6831  0.2834
11122TIP3    H154781   3.737   5.908  11.866 -0.2785 -1.1886  0.8454
11122TIP3    H254782   3.787   5.903  11.723 -0.7328  0.4111  0.6131
11123TIP3   OH254783   5.934   1.856   5.798  0.2011 -0.6604 -0.5794
11123TIP3    H154784   5.891   1.778   5.833  0.5493 -1.2288 -1.3983
11123TIP3    H254785   5.897   1.928   5.849 -1.5079 -1.1502 -1.0524
11124TIP3   OH254786   0.843   0.937   3.781 -0.0735 -0.0075  0.7972
11124TIP3    H154787   0.826   0.853   3.739 -0.0988 -0.4150  1.6099
11124TIP3    H254788   0.904   0.917   3.852  1.4145  0.9475 -0.1401
11125TIP3   OH254789   4.227   1.110  14.010  0.2829  0.4305 -0.1277
11125TIP3    H154790   4.228   1.148  13.922 -1.4145  0.4662 -0.1543
11125TIP3    H254791   4.153   1.049  14.010 -0.5279  1.3274  1.6313
11126TIP3   OH254792   5.776   4.418  13.566 -0.7626  0.5617  0.0581
11126TIP3    H154793   5.837   4.348  13.546 -0.5480  0.5321  0.7783
11126TIP3    H254794   5.832   4.492  13.590 -0.9944  0.6539  0.3300
11127TIP3   OH254795   1.414   2.125   5.536  0.2551  0.6494  0.5545
11127TIP3    H154796   1.497   2.123   5.583 -0.1052 -0.4583  1.1777
11127TIP3    H254797   1.347   2.116   5.604 -0.2806 -0.8803 -0.1315
11128TIP3   OH254798   4.370   5.212   0.483  0.7983  0.0020  0.1974
11128TIP3    H154799   4.383   5.120   0.505 -2.6689 -0.4478  1.0004
11128TIP3    H254800   4.373   5.215   0.387  0.5284 -1.0335  0.1536
11129TIP3   OH254801   0.997   5.570  14.783 -0.0576 -0.6350  0.3940
11129TIP3    H154802   1.041   5.642  14.828  0.3751  0.7020 -2.0052
11129TIP3    H254803   1.052   5.494  14.801  1.4053  0.3322  0.2099
11130TIP3   OH254804   6.273   1.823  15.960  0.0196 -0.6098  0.6350
11130TIP3    H154805   6.284   1.787  16.048 -0.9309 -0.6104  0.7614
11130TIP3    H254806   6.220   1.901  15.972 -0.6312 -0.9435 -0.0060
11131TIP3   OH254807   2.629   1.145  16.090  0.5148 -0.0983  0.1568
11131TIP3    H154808   2.698   1.079  16.090 -0.3101 -1.0585  2.4865
11131TIP3    H254809   2.564   1.112  16.028  0.8317 -0.6875  0.1317
11132TIP3   OH254810   1.444   3.674   6.571 -0.0582 -0.3303  0.1490
11132TIP3    H154811   1.438   3.765   6.542 -0.1789 -0.2135  0.5224
11132TIP3    H254812   1.496   3.678   6.651 -1.5474 -0.3372  1.1655
11133TIP3   OH254813   3.009   6.039  12.935  0.3074 -0.0121 -0.0105
11133TIP3    H154814   2.935   5.990  12.899  1.5194 -0.5057 -2.0094
11133TIP3    H254815   3.027   5.998  13.020 -0.3116 -1.3480 -0.5017
11134TIP3   OH254816   3.850   1.841  12.015  0.0360  0.1499 -0.0823
11134TIP3    H154817   3.868   1.935  12.018 -0.9389  0.3243  1.6816
11134TIP3    H254818   3.767   1.831  12.061  0.5386 -1.6753  0.5123
11135TIP3   OH254819   3.172   6.620  12.057  0.1646  0.4124 -0.0411
11135TIP3    H154820   3.106   6.551  12.053 -1.9514  2.2501  0.6868
11135TIP3    H254821   3.188   6.633  12.151  0.7492  0.7097 -0.1762
11136TIP3   OH254822   3.536   2.980   4.489 -0.2251  0.0670  0.1714
11136TIP3    H154823   3.451   3.004   4.453  0.0574  1.2997  0.2850
11136TIP3    H254824   3.515   2.946   4.577 -0.4820  2.1819  0.9898
11137TIP3   OH254825   3.305   0.968  12.649 -0.6433 -0.6258  0.1053
11137TIP3    H154826   3.252   0.891  12.670 -0.6405 -0.4775  0.6868
11137TIP3    H254827   3.332   0.955  12.558 -3.6921  0.4558 -1.0941
11138TIP3   OH254828   3.290   1.415  12.053  0.0640  0.1397 -0.1079
11138TIP3    H154829   3.331   1.363  12.122  0.3773  0.7569  0.1798
11138TIP3    H254830   3.355   1.483  12.032  0.0159 -0.0971 -1.0831
11139TIP3   OH254831   3.058   3.237  11.294  0.0113  0.3281  0.0278
11139TIP3    H154832   3.130   3.184  11.260 -0.6640  0.1781 -1.2087
11139TIP3    H254833   3.068   3.232  11.389  0.1350 -1.8120 -0.0455
11140TIP3   OH254834   1.310   5.676  14.835  0.1866  0.6325 -0.7169
11140TIP3    H154835   1.236   5.736  14.842  1.6272  2.7461 -2.5900
11140TIP3    H254836   1.346   5.672  14.924 -1.3945  0.5351 -0.0451
11141TIP3   OH254837   5.000   4.528   0.236 -0.0948 -0.5028  0.2790
11141TIP3    H154838   4.934   4.586   0.198  1.3441  0.0623 -1.4442
11141TIP3    H254839   5.025   4.470   0.164  0.4139 -1.5295  1.2575
11142TIP3   OH254840   3.298   5.876   5.614 -0.2998 -0.5317 -0.1237
11142TIP3    H154841   3.278   5.848   5.704  0.8028  0.2837  0.3998
11142TIP3    H254842   3.353   5.806   5.579 -1.2998 -1.1891 -0.4295
11143TIP3   OH254843   1.743   4.187  10.354 -0.3788  0.0024 -0.2754
11143TIP3    H154844   1.828   4.228  10.370  0.1712 -0.2110 -2.3586
11143TIP3    H254845   1.751   4.101  10.396  0.2900  0.1275 -0.1273
11144TIP3   OH254846   5.676   5.566  12.151  0.8666 -0.3496 -0.0560
11144TIP3    H154847   5.748   5.520  12.109 -0.5179 -0.9604 -1.9218
11144TIP3    H254848   5.614   5.497  12.174  0.0094  0.3228 -0.3041
11145TIP3   OH254849   2.317   4.970   2.582  0.0698  0.1041 -0.3788
11145TIP3    H154850   2.339   4.884   2.546 -2.4862 -0.8795  0.1965
11145TIP3    H254851   2.224   4.981   2.563  0.5325  3.2582 -1.3695
11146TIP3   OH254852   6.754   0.389  15.062 -0.1396  0.5067 -0.2094
11146TIP3    H154853   6.806   0.465  15.037 -0.3599  0.5348 -0.5900
11146TIP3    H254854   6.783   0.319  15.004 -0.3386  0.4529 -0.2470
11147TIP3   OH254855   3.363   6.306  12.024 -0.1746 -0.2818  0.3683
11147TIP3    H154856   3.403   6.243  11.964  2.0140  0.9321  0.4951
11147TIP3    H254857   3.287   6.339  11.976 -0.7251 -2.1404 -0.1450
11148TIP3   OH254858   4.603   1.329   4.893  0.0552  0.1570 -0.2250
11148TIP3    H154859   4.626   1.406   4.946  1.9028 -0.8553  0.5387
11148TIP3    H254860   4.637   1.350   4.806  1.3965 -0.1236  0.2003
11149TIP3   OH254861   6.689   6.092  15.635 -0.0175  0.0616  0.2538
11149TIP3    H154862   6.707   6.159  15.570 -1.4161  0.7917  0.5842
11149TIP3    H254863   6.759   6.028  15.623 -1.0875 -0.6924 -3.1138
11150TIP3   OH254864   3.223   3.681  15.301 -0.0714  0.3315 -0.5392
11150TIP3    H154865   3.226   3.585  15.296  1.0232  0.3710 -0.8568
11150TIP3    H254866   3.306   3.706  15.342 -0.6294  1.1176  0.1555
11151TIP3   OH254867   0.293   2.153   5.651  0.1394 -0.1312  0.1269
11151TIP3    H154868   0.360   2.150   5.583 -0.1642  0.0142 -0.1833
11151TIP3    H254869   0.214   2.121   5.608 -0.0118 -0.2122  0.4633
11152TIP3   OH254870   2.026   2.435  16.603  0.3451  0.0576  0.6941
11152TIP3    H154871   2.115   2.424  16.637  0.7684 -0.4563 -0.5320
11152TIP3    H254872   2.035   2.421  16.509 -0.8333  1.2091  0.3901
11153TIP3   OH254873   0.823   4.283   1.892  0.0808  0.4132 -0.6074
11153TIP3    H154874   0.832   4.322   1.979  0.7367 -0.8630 -0.0645
11153TIP3    H254875   0.834   4.356   1.831 -0.5236  1.3548  0.3705
11154TIP3   OH254876   3.794   2.305  14.858 -0.1936 -0.3539 -0.2570
11154TIP3    H154877   3.774   2.331  14.947  1.3347 -0.6604  0.1955
11154TIP3    H254878   3.708   2.284  14.820 -0.7410 -2.0664  1.7229
11155TIP3   OH254879   3.058   0.748   0.873  0.2765 -0.1741 -0.4170
11155TIP3    H154880   2.964   0.731   0.872  0.5212 -1.9974  1.3295
11155TIP3    H254881   3.068   0.831   0.826 -2.4500  1.2054  1.1975
11156TIP3   OH254882   4.294   6.366  17.200  0.1596 -0.4428 -0.1537
11156TIP3    H154883   4.301   6.370  17.105 -0.2511 -1.0764 -0.2162
11156TIP3    H254884   4.301   6.457  17.229  0.3949 -0.2593 -0.7777
11157TIP3   OH254885   0.526   5.420  15.332 -0.2007  0.1889 -0.0613
11157TIP3    H154886   0.560   5.474  15.403 -2.4142 -0.6870  1.7733
11157TIP3    H254887   0.604   5.386  15.288  1.2217  2.3187  0.6812
11158TIP3   OH254888   3.821   2.273   6.821  0.2142  0.0684 -0.0192
11158TIP3    H154889   3.886   2.266   6.892 -0.9472 -0.2137  1.0564
11158TIP3    H254890   3.778   2.357   6.837 -0.2241 -0.1132 -0.2403
11159TIP3   OH254891   6.295   0.185  14.683 -0.6525  0.3071  0.6204
11159TIP3    H154892   6.205   0.214  14.669 -0.3809  0.1210 -2.1758
11159TIP3    H254893   6.292   0.090  14.669 -0.1934  0.1229  1.6725
11160TIP3   OH254894   0.362   1.861   3.897 -0.0137 -0.3492 -0.2214
11160TIP3    H154895   0.318   1.851   3.813  0.0316 -0.7081 -0.2026
11160TIP3    H254896   0.292   1.885   3.958 -0.2275 -1.0924 -0.1565
11161TIP3   OH254897   5.414   3.367   4.445 -0.0809 -0.0431 -0.1709
11161TIP3    H154898   5.398   3.324   4.361 -0.0258 -0.5553  0.0751
11161TIP3    H254899   5.504   3.400   4.438  0.4858 -1.4497  0.2562
11162TIP3   OH254900   6.015   4.167  11.617 -0.4272 -0.0758 -0.1706
11162TIP3    H154901   6.030   4.223  11.540 -1.4532 -1.5231 -1.5037
11162TIP3    H254902   6.015   4.078  11.581  1.5039 -1.0020  1.9320
11163TIP3   OH254903   0.720   2.309  12.786 -0.1362 -0.8048 -0.0343
11163TIP3    H154904   0.804   2.300  12.832  0.3081 -2.5081 -1.0864
11163TIP3    H254905   0.698   2.220  12.760 -0.8830 -0.0418 -2.1961
11164TIP3   OH254906   0.078   2.393   2.879  0.5541 -0.7108  0.0780
11164TIP3    H154907   0.131   2.342   2.940  0.5478  0.0817  0.7628
11164TIP3    H254908   0.093   2.352   2.793  2.8963 -0.0248  0.1105
11165TIP3   OH254909   4.747   5.638  14.948  0.5972  0.1569 -0.3296
11165TIP3    H154910   4.699   5.717  14.971  1.1691  0.0148  1.4560
11165TIP3    H254911   4.828   5.670  14.907  0.8612  0.5149  0.4517
11166TIP3   OH254912   5.525   3.701   4.086  0.1231  0.0147  0.7157
11166TIP3    H154913   5.516   3.608   4.066 -0.8975 -0.0600  1.3999
11166TIP3    H254914   5.605   3.706   4.139  1.1773 -0.1960 -0.8043
11167TIP3   OH254915   4.512   0.667   2.275  0.5894  0.2369  0.5464
11167TIP3    H154916   4.450   0.626   2.335 -1.6086  0.5325 -1.3841
11167TIP3    H254917   4.583   0.604   2.267 -1.7725 -2.5067 -0.8644
11168TIP3   OH254918   6.479   5.713   3.626 -0.2791  0.5431  0.0294
11168TIP3    H154919   6.495   5.807   3.619  1.0311  0.4239  1.0698
11168TIP3    H254920   6.493   5.679   3.538 -0.4039  1.2683 -0.2775
11169TIP3   OH254921   3.382   6.695   1.042 -0.8748 -0.5688 -0.2659
11169TIP3    H154922   3.353   6.679   1.132 -0.0599 -2.4928 -0.3125
11169TIP3    H254923   3.304   6.682   0.988 -1.1832 -0.1818  0.0807
11170TIP3   OH254924   4.586   0.823  11.105  0.2063 -0.8749  0.2374
11170TIP3    H154925   4.621   0.788  11.187 -0.3737 -3.3269 -0.4897
11170TIP3    H254926   4.632   0.775  11.036 -0.5854 -0.1448 -0.8484
11171TIP3   OH254927   5.144   6.365   4.413  0.0176  0.0046  0.2461
11171TIP3    H154928   5.223   6.377   4.465 -0.7102  1.4001  1.1060
11171TIP3    H254929   5.097   6.294   4.457  0.3673 -0.2106  0.2736
11172TIP3   OH254930   3.890   3.773  17.269 -0.3001 -0.4187 -0.6068
11172TIP3    H154931   3.801   3.802  17.291  0.0795  0.8279 -0.6433
11172TIP3    H254932   3.912   3.710  17.338 -0.5265  0.6685  0.5070
11173TIP3   OH254933   3.682   6.385   5.128 -0.2622 -0.0238 -0.7454
11173TIP3    H154934   3.649   6.342   5.207  0.3502 -2.7937 -1.8911
11173TIP3    H254935   3.621   6.457   5.113 -2.2080 -1.3065  0.5482
11174TIP3   OH254936   3.186   3.167  14.146 -0.0057 -0.2244 -0.0167
11174TIP3    H154937   3.183   3.251  14.101  0.2520 -0.4327 -0.4315
11174TIP3    H254938   3.182   3.189  14.239  0.2707  0.2555 -0.1183
11175TIP3   OH254939   2.593   3.624  13.011 -0.4332 -0.1108  0.4151
11175TIP3    H154940   2.510   3.613  13.057 -1.0538  1.3007 -0.2911
11175TIP3    H254941   2.569   3.662  12.926  0.9022 -0.0263  0.0458
11176TIP3   OH254942   1.590   6.574  16.242 -0.2027  0.1471  0.0235
11176TIP3    H154943   1.542   6.630  16.303  0.2337  0.9110 -0.3193
11176TIP3    H254944   1.545   6.586  16.158  0.6409  0.9553 -0.3250
11177TIP3   OH254945   2.834   5.720   1.303  0.0996  0.2051 -0.3703
11177TIP3    H154946   2.900   5.686   1.241 -0.2243  1.2227 -1.3100
11177TIP3    H254947   2.835   5.657   1.375  1.3835 -0.3503 -0.8262
11178TIP3   OH254948   4.792   6.622  13.510 -0.7469  0.1402  0.8839
11178TIP3    H154949   4.857   6.552  13.505  1.1087  1.8688 -1.9198
11178TIP3    H254950   4.750   6.610  13.595  1.1463 -2.8653  1.5358
11179TIP3   OH254951   0.224   2.124  13.746  0.0128 -0.0004  0.2062
11179TIP3    H154952   0.166   2.091  13.678  0.8269 -1.3378  0.1305
11179TIP3    H254953   0.256   2.208  13.711 -1.8054  0.7692  0.2511
11180TIP3   OH254954   4.552   1.699   4.934  0.1259 -0.2864 -0.7802
11180TIP3    H154955   4.492   1.638   4.891 -0.8507 -0.4639  0.7396
11180TIP3    H254956   4.509   1.719   5.018  3.0442 -1.9748  1.3260
11181TIP3   OH254957   2.750   6.192  15.095 -0.3678 -0.2647 -0.4673
11181TIP3    H154958   2.790   6.191  15.182 -0.8109 -1.6002 -0.2412
11181TIP3    H254959   2.823   6.175  15.035 -0.1973 -0.1843 -0.2841
11182TIP3   OH254960   4.645   5.274  12.705  0.1206  0.3944  0.0454
11182TIP3    H154961   4.557   5.256  12.670 -0.1017 -0.1886  0.8813
11182TIP3    H254962   4.640   5.249  12.797  1.6524 -1.3279 -0.2809
11183TIP3   OH254963   3.837   0.038   0.190  0.6596 -0.9092  0.3540
11183TIP3    H154964   3.809   0.102   0.123 -0.2376 -3.2681 -1.6785
11183TIP3    H254965   3.776   0.051   0.262 -1.1877 -1.1276 -1.0841
11184TIP3   OH254966   5.912   2.321   0.348 -0.1673  0.1818  0.1857
11184TIP3    H154967   5.931   2.324   0.442 -0.4371  0.9521  0.2192
11184TIP3    H254968   5.897   2.412   0.323 -0.7786 -0.0854 -0.4677
11185TIP3   OH254969   3.243   4.265  15.685 -0.1495 -0.3821  0.5483
11185TIP3    H154970   3.199   4.210  15.750 -0.0010 -1.6075 -0.3494
11185TIP3    H254971   3.199   4.245  15.603  0.7519 -0.1014 -0.0204
11186TIP3   OH254972   2.876   5.545   4.104  0.1492  0.4181  0.8385
11186TIP3    H154973   2.892   5.560   4.011 -1.4905  0.0275  0.4674
11186TIP3    H254974   2.885   5.632   4.144 -1.0651  0.9580 -0.0023
11187TIP3   OH254975   1.896   0.719   3.995  0.4759  0.1623 -0.2082
11187TIP3    H154976   1.989   0.720   3.971  0.1508  0.5351 -1.4966
11187TIP3    H254977   1.851   0.754   3.919 -0.7840 -0.5249  0.2001
11188TIP3   OH254978   4.338   2.859   5.073  0.1285  0.1441  0.6314
11188TIP3    H154979   4.342   2.870   5.168 -2.9264  0.5433  0.8180
11188TIP3    H254980   4.350   2.765   5.058  0.5510  0.0737  1.3852
11189TIP3   OH254981   2.972   6.658  16.947  0.0472 -0.0719  0.0183
11189TIP3    H154982   3.065   6.652  16.926 -0.5616 -2.0295 -2.6873
11189TIP3    H254983   2.948   6.749  16.928  0.8286 -0.3055 -2.5346
11190TIP3   OH254984   3.137   0.147  11.952  0.0671 -0.4695 -0.0396
11190TIP3    H154985   3.227   0.126  11.978  0.0187 -1.0619 -0.3221
11190TIP3    H254986   3.135   0.128  11.858  0.0518  0.9673 -0.3498
11191TIP3   OH254987   5.564   0.083  12.501  0.0656 -0.2498  0.0863
11191TIP3    H154988   5.496   0.136  12.543  0.5007 -0.5047  1.1435
11191TIP3    H254989   5.533  -0.007  12.509  0.0075 -0.2784 -0.4275
11192TIP3   OH254990   5.114   0.374  15.709  0.3930 -0.0453  0.4522
11192TIP3    H154991   5.060   0.313  15.659  0.1367 -0.8869  1.7062
11192TIP3    H254992   5.055   0.448  15.726  0.8295  0.7807 -1.4212
11193TIP3   OH254993   1.063   0.223   0.810  0.0791  0.2591  0.1384
11193TIP3    H154994   1.101   0.194   0.893 -1.2625  0.8176  0.9826
11193TIP3    H254995   1.071   0.147   0.752  1.7427  0.1202  0.5181
11194TIP3   OH254996   1.444   1.024   0.679  0.4658 -0.2580 -0.0066
11194TIP3    H154997   1.522   0.998   0.630 -0.0338  0.7484 -1.4013
11194TIP3    H254998   1.374   1.025   0.614 -0.1677  1.4268  0.6300
11195TIP3   OH254999   2.940   6.201  15.331  0.0516  0.0486 -0.1809
11195TIP3    H155000   2.876   6.266  15.363  0.7163  1.0601 -0.8290
11195TIP3    H255001   2.984   6.170  15.410 -1.7383 -1.2640  0.3754
11196TIP3   OH255002   5.491   2.394  11.708 -0.4222  0.8828  0.3861
11196TIP3    H155003   5.431   2.466  11.727 -0.3469  0.3960  2.7725
11196TIP3    H255004   5.460   2.322  11.764  0.4249 -0.4521 -0.7989
11197TIP3   OH255005   3.854   4.634   3.148  0.5150  0.1424  0.1722
11197TIP3    H155006   3.853   4.585   3.066 -1.3225  0.2249  0.0921
11197TIP3    H255007   3.813   4.718   3.126  0.6093  0.4228  1.0257
11198TIP3   OH255008   0.836   1.101   3.369 -0.0725  0.5072 -0.2337
11198TIP3    H155009   0.908   1.074   3.313 -0.8899 -0.7901 -0.7083
11198TIP3    H255010   0.872   1.099   3.458  0.7153  0.7529 -0.5405
11199TIP3   OH255011   1.893   1.342  13.862  0.6508  0.1222  0.4036
11199TIP3    H155012   1.840   1.397  13.920  0.6497  0.0629  0.4593
11199TIP3    H255013   1.850   1.350  13.776  0.3993 -0.1312  0.5069
11200TIP3   OH255014   0.969   4.446   4.117 -0.0379  0.3152 -0.4158
11200TIP3    H155015   0.992   4.367   4.068  0.2778 -0.6786  1.2414
11200TIP3    H255016   1.044   4.462   4.174 -0.8714  0.6840  0.6219
11201TIP3   OH255017   3.979   2.319   2.053 -0.1781  0.0158 -0.7184
11201TIP3    H155018   4.009   2.232   2.026  0.3270  0.8692 -3.1692
11201TIP3    H255019   3.886   2.321   2.030 -0.2090  0.1052 -0.5867
11202TIP3   OH255020   0.412   0.320  10.623  0.0165  0.1228  0.5000
11202TIP3    H155021   0.391   0.250  10.562 -0.7684 -0.3270  1.2587
11202TIP3    H255022   0.414   0.278  10.709  1.0213  0.7547  0.8082
11203TIP3   OH255023   0.819   4.621  11.425  0.3733  0.4527 -0.2299
11203TIP3    H155024   0.895   4.680  11.419  0.1640  0.8186  0.6066
11203TIP3    H255025   0.838   4.552  11.361  1.3531  0.6034 -0.1229
11204TIP3   OH255026   2.616   1.300   2.121 -0.2381  0.7676  0.4736
11204TIP3    H155027   2.565   1.356   2.179 -1.2596  0.3450  0.0159
11204TIP3    H255028   2.575   1.312   2.035  0.2087  0.1326  0.1674
11205TIP3   OH255029   1.721   1.509   0.601  0.4502 -0.1165 -0.1633
11205TIP3    H155030   1.721   1.466   0.686 -4.2044  0.3885  0.3511
11205TIP3    H255031   1.720   1.437   0.538  3.6704 -0.4894  0.0267
11206TIP3   OH255032   4.794   5.866   5.122 -0.0266 -0.2954 -0.0852
11206TIP3    H155033   4.830   5.799   5.063 -1.6128  0.3121 -1.8569
11206TIP3    H255034   4.831   5.845   5.207  0.3573 -2.8159 -0.7729
11207TIP3   OH255035   1.888   5.391  16.397  0.0886 -0.8669  0.0217
11207TIP3    H155036   1.900   5.296  16.388  0.4610 -0.7595 -0.7242
11207TIP3    H255037   1.965   5.421  16.444  1.2285 -0.6230 -1.8876
11208TIP3   OH255038   3.362   5.013  15.067 -0.3201  0.2665 -0.6115
11208TIP3    H155039   3.443   5.041  15.109  0.0902 -0.7193 -0.7040
11208TIP3    H255040   3.356   5.065  14.987 -0.2125  0.9304 -0.1879
11209TIP3   OH255041   6.363   3.516  16.187 -0.0700 -0.0100  0.2497
11209TIP3    H155042   6.373   3.488  16.278 -1.8947  0.4621  0.6444
11209TIP3    H255043   6.332   3.438  16.141 -0.4915  0.1166  0.3222
11210TIP3   OH255044   6.517   5.931  12.236  0.1709  0.0977  0.7326
11210TIP3    H155045   6.455   5.866  12.271 -1.2629  2.1496  2.2499
11210TIP3    H255046   6.571   5.956  12.311  0.2434  1.1355  0.3534
11211TIP3   OH255047   5.935   2.124  12.928 -0.0114  0.1018  0.0560
11211TIP3    H155048   6.005   2.120  12.863  0.5339 -1.6603  0.6938
11211TIP3    H255049   5.868   2.064  12.894 -1.3611  1.9246 -0.6537
11212TIP3   OH255050   3.298   1.747  16.285  0.7381 -0.3311  0.2827
11212TIP3    H155051   3.349   1.815  16.240 -0.5753  1.5267  1.4551
11212TIP3    H255052   3.338   1.665  16.256  2.2143  0.8930 -1.4390
11213TIP3   OH255053   4.191   3.822  11.762 -0.0552 -0.2691  0.5635
11213TIP3    H155054   4.163   3.769  11.688 -0.0010 -0.2697  0.5436
11213TIP3    H255055   4.113   3.831  11.816 -0.9077  2.1246 -0.9110
11214TIP3   OH255056   3.505   5.206  17.030 -0.0983 -0.4070 -0.5840
11214TIP3    H155057   3.473   5.206  16.940  0.0293 -0.3569 -0.6300
11214TIP3    H255058   3.522   5.114  17.049  1.3117 -0.2911 -1.1389
11215TIP3   OH255059   2.201   3.070  16.902 -0.6539 -0.0594  0.0263
11215TIP3    H155060   2.225   3.124  16.827  2.0342 -1.0248  0.0714
11215TIP3    H255061   2.276   3.077  16.962 -1.2323 -1.9608  1.0721
11216TIP3   OH255062   0.593   2.338  14.650 -0.3749 -0.1288  0.2654
11216TIP3    H155063   0.632   2.268  14.703 -2.2407 -0.5827  1.1089
11216TIP3    H255064   0.636   2.417  14.682  0.4914 -0.6908  0.5453
11217TIP3   OH255065   5.517   0.943  12.908 -0.0127 -0.8034 -0.0834
11217TIP3    H155066   5.581   0.878  12.937  0.6037 -0.2110 -0.1189
11217TIP3    H255067   5.544   1.024  12.949 -1.0574 -0.6514  0.3401
11218TIP3   OH255068   4.257   3.055   5.291 -0.3175 -0.0224  0.4981
11218TIP3    H155069   4.269   2.987   5.357 -0.8838 -0.6131  0.0045
11218TIP3    H255070   4.320   3.124   5.315  1.3452 -1.3510  0.1541
11219TIP3   OH255071   2.020   3.700  12.541  0.1118  0.0630 -0.2542
11219TIP3    H155072   2.087   3.753  12.584 -1.0086  0.5003  1.0163
11219TIP3    H255073   2.004   3.744  12.458  0.6879  0.5252 -0.1261
11220TIP3   OH255074   0.633   6.302  12.984  0.2729 -0.3513  0.0588
11220TIP3    H155075   0.596   6.241  12.920  1.2833 -0.5503 -0.3566
11220TIP3    H255076   0.573   6.299  13.058 -0.0283 -1.3634 -0.2160
11221TIP3   OH255077   2.164   6.121  14.668  0.3074 -0.6352 -0.4516
11221TIP3    H155078   2.173   6.197  14.611  0.2150 -0.4249 -0.1900
11221TIP3    H255079   2.161   6.158  14.757  2.2478 -1.0721 -0.1739
11222TIP3   OH255080   1.615   3.358   6.689  0.8094  0.1892  1.1955
11222TIP3    H155081   1.552   3.287   6.678 -0.5846  1.5650 -0.2789
11222TIP3    H255082   1.592   3.421   6.621  4.0371  0.6242  0.3458
11223TIP3   OH255083   1.842   5.199   2.769 -0.1448  0.0151 -0.8058
11223TIP3    H155084   1.758   5.157   2.789  1.3451 -2.7330  0.2160
11223TIP3    H255085   1.873   5.155   2.690 -0.0871  1.7460 -1.7964
11224TIP3   OH255086   3.476   6.372  13.588 -0.7027 -0.5528 -0.0146
11224TIP3    H155087   3.531   6.313  13.536 -0.3609 -0.0136 -0.2708
11224TIP3    H255088   3.515   6.458  13.575 -1.8806 -0.0820 -0.5884
11225TIP3   OH255089   2.887   6.106   3.924 -0.8975 -0.1337 -0.3250
11225TIP3    H155090   2.943   6.028   3.928  0.0448  0.5426 -0.0838
11225TIP3    H255091   2.847   6.102   3.837 -0.8147 -0.8557 -0.3384
11226TIP3   OH255092   0.401   6.547   3.314  0.1001 -0.0759 -0.2587
11226TIP3    H155093   0.427   6.554   3.406  1.9300 -2.0710 -0.5310
11226TIP3    H255094   0.482   6.564   3.265 -0.5987 -0.0639 -1.4612
11227TIP3   OH255095   0.562   5.300  15.031 -0.3277 -0.4665 -0.2717
11227TIP3    H155096   0.614   5.321  14.953 -1.5086  0.1558 -0.9280
11227TIP3    H255097   0.490   5.363  15.029 -1.5226 -1.7578  0.1829
11228TIP3   OH255098   4.521   6.010  15.405  0.2046  0.1083 -0.0239
11228TIP3    H155099   4.604   5.975  15.372 -0.4363  0.1759 -1.8207
11228TIP3    H255100   4.483   5.937  15.454  0.4329 -0.6071 -0.8702
11229TIP3   OH255101   1.518   5.307   4.765 -0.4381 -0.0768 -0.0141
11229TIP3    H155102   1.455   5.291   4.694  0.3218 -1.5757 -0.3963
11229TIP3    H255103   1.478   5.377   4.817 -1.9290 -0.2773 -0.8246
11230TIP3   OH255104   0.545   0.529  17.077 -0.2551  0.7053  0.6139
11230TIP3    H155105   0.555   0.603  17.017  0.4858  0.5991  0.5930
11230TIP3    H255106   0.560   0.567  17.164  0.5738  0.4986  0.5641
11231TIP3   OH255107   1.911   0.113  15.277 -0.2309  0.4658 -0.9147
11231TIP3    H155108   1.847   0.088  15.344 -0.0523  0.2744 -0.8127
11231TIP3    H255109   1.899   0.207  15.267 -0.2993  0.4874 -0.6530
11232TIP3   OH255110   2.964   3.605   4.019 -0.3485  0.0521 -0.4833
11232TIP3    H155111   2.911   3.573   3.945  0.9246 -1.0209 -0.9602
11232TIP3    H255112   3.054   3.601   3.987  0.2735 -0.9095  1.3073
11233TIP3   OH255113   4.037   0.608   6.140 -0.3654 -0.0138  0.1245
11233TIP3    H155114   4.120   0.617   6.186 -0.4151 -0.5235  0.3178
11233TIP3    H255115   3.982   0.556   6.199 -1.0110  0.7835  0.2441
11234TIP3   OH255116   5.070   1.095   5.837 -0.0404  0.0564 -0.1776
11234TIP3    H155117   5.067   1.165   5.773 -1.7203  0.4822  0.3153
11234TIP3    H255118   5.126   1.029   5.797 -0.0469  0.8311 -1.5412
11235TIP3   OH255119   5.690   5.325   3.564 -0.0609  0.0324  0.2416
11235TIP3    H155120   5.661   5.270   3.491 -2.3031  0.5275  0.6612
11235TIP3    H255121   5.760   5.379   3.528 -0.1983 -0.6816 -1.1525
11236TIP3   OH255122   0.732   1.624  13.220  0.4535 -0.5581 -0.2262
11236TIP3    H155123   0.821   1.642  13.191 -0.0885  0.0729 -1.6013
11236TIP3    H255124   0.717   1.687  13.291  0.8965 -0.2579 -0.3947
11237TIP3   OH255125   6.519   1.447  13.168 -0.2055 -0.2205 -0.1213
11237TIP3    H155126   6.424   1.456  13.159 -0.5984 -0.8332  2.6308
11237TIP3    H255127   6.536   1.464  13.260  2.3004 -0.7637 -0.4193
11238TIP3   OH255128   4.279   3.421  16.524 -0.5927  0.2690  0.0273
11238TIP3    H155129   4.306   3.506  16.559  0.0975  0.8778 -1.8574
11238TIP3    H255130   4.216   3.442  16.455 -1.5346 -0.8515  0.5146
11239TIP3   OH255131   5.621   2.338   2.854 -0.6719  0.2437 -0.3565
11239TIP3    H155132   5.705   2.345   2.808 -0.7500 -1.6926 -0.8757
11239TIP3    H255133   5.607   2.425   2.890  2.5050  0.1980  1.4100
11240TIP3   OH255134   0.269   6.580  14.635 -0.0424 -0.5641 -0.0902
11240TIP3    H155135   0.326   6.535  14.697  0.3816  0.5870  0.4040
11240TIP3    H255136   0.184   6.586  14.681  0.2481  0.2130  0.3762
11241TIP3   OH255137   5.947   2.187   4.004  0.2538  0.5290  0.5532
11241TIP3    H155138   5.961   2.116   3.942  2.0081  0.3397  1.1095
11241TIP3    H255139   5.871   2.234   3.970 -0.6003 -1.2555 -0.1342
11242TIP3   OH255140   0.207   0.928   2.188 -0.1761  0.3684 -0.4464
11242TIP3    H155141   0.300   0.917   2.169 -0.1686  0.7578 -0.6449
11242TIP3    H255142   0.201   0.930   2.284 -0.0381 -0.1439 -0.4285
11243TIP3   OH255143   1.167   4.810   2.416 -0.1693  0.5551 -0.8570
11243TIP3    H155144   1.081   4.846   2.394 -1.5711 -2.1501 -0.2544
11243TIP3    H255145   1.190   4.853   2.499  0.5729  3.5051 -2.4308
11244TIP3   OH255146   5.866   1.190  11.006 -0.5224 -0.6903  0.4862
11244TIP3    H155147   5.886   1.279  10.979 -0.4141 -0.3647  1.5827
11244TIP3    H255148   5.772   1.190  11.024 -0.6040 -0.9165  0.0732
11245TIP3   OH255149   2.186   6.367   0.405 -0.5738  0.3693  0.3729
11245TIP3    H155150   2.192   6.282   0.362  0.3451  1.3467 -1.5962
11245TIP3    H255151   2.253   6.420   0.362 -0.7320  1.9370  1.9387
11246TIP3   OH255152   3.238   4.404   4.890 -0.2419  0.2093 -0.3591
11246TIP3    H155153   3.158   4.379   4.844  0.0419 -0.3456 -0.5621
11246TIP3    H255154   3.307   4.399   4.823 -0.1751  1.5634 -0.4109
11247TIP3   OH255155   6.520   5.633   0.846  0.1156 -0.8595  0.1302
11247TIP3    H155156   6.428   5.610   0.863 -0.0592 -0.3048 -0.0295
11247TIP3    H255157   6.549   5.569   0.782 -0.4441 -0.4836 -0.5172
11248TIP3   OH255158   0.034   5.926   1.091 -0.5412  0.3494 -0.3201
11248TIP3    H155159  -0.060   5.941   1.093 -0.6740 -0.4985  0.6460
11248TIP3    H255160   0.043   5.831   1.096  0.3729  0.4594  0.3167
11249TIP3   OH255161   2.728   6.615  16.475 -0.3297  0.3978  0.1247
11249TIP3    H155162   2.633   6.604  16.473 -0.4513  1.3735  0.0055
11249TIP3    H255163   2.744   6.666  16.555  0.2420 -0.9998  0.9255
11250TIP3   OH255164   2.664   2.634  12.681  0.2678 -0.9120 -0.0544
11250TIP3    H155165   2.575   2.645  12.713  0.7889  1.3052  0.8659
11250TIP3    H255166   2.713   2.601  12.756  0.4163 -1.1486 -0.2525
11251TIP3   OH255167   5.822   4.814  16.675  0.0955  0.0680  0.1431
11251TIP3    H155168   5.879   4.802  16.750 -1.4344 -0.3748  1.2954
11251TIP3    H255169   5.814   4.727  16.636 -0.3894 -0.0337  0.4579
11252TIP3   OH255170   2.407   0.277   1.934 -0.2334 -0.1089 -0.8515
11252TIP3    H155171   2.409   0.295   1.840 -0.0996  0.6797 -0.7049
11252TIP3    H255172   2.467   0.341   1.972  0.9742 -1.4528 -0.3779
11253TIP3   OH255173   2.830   0.751  14.179 -0.1257  0.2845 -0.3329
11253TIP3    H155174   2.852   0.731  14.270 -1.3151  1.0071  0.1463
11253TIP3    H255175   2.778   0.832  14.185 -0.1574  0.3811 -1.6630
11254TIP3   OH255176   6.000   5.765  17.240  0.2923  0.1001  0.8062
11254TIP3    H155177   5.976   5.857  17.226  1.0440  0.3230  0.9315
11254TIP3    H255178   6.090   5.759  17.207 -0.0206 -0.7761  0.0886
11255TIP3   OH255179   2.141   5.856   4.677 -0.2824 -0.1721  0.1546
11255TIP3    H155180   2.111   5.809   4.599 -0.0716  0.5645 -0.3828
11255TIP3    H255181   2.062   5.900   4.709 -0.7022 -1.6255  1.2198
11256TIP3   OH255182   0.815   6.413  11.824  0.1753 -0.0187  0.3402
11256TIP3    H155183   0.819   6.370  11.909 -1.8288  0.9604  0.9784
11256TIP3    H255184   0.831   6.505  11.843  1.2295  0.0158 -0.5822
11257TIP3   OH255185   6.417   2.989  12.632  0.0197  0.0715  0.0263
11257TIP3    H155186   6.371   3.059  12.679 -0.4894 -1.6311  2.1847
11257TIP3    H255187   6.501   2.981  12.676 -1.2880 -2.9985  2.2781
11258TIP3   OH255188   4.290   0.579  13.031  0.2190 -0.4972 -0.0330
11258TIP3    H155189   4.334   0.661  13.053 -1.5335  0.8889 -1.3960
11258TIP3    H255190   4.220   0.572  13.096 -1.8001  0.9703 -1.9322
11259TIP3   OH255191   6.002   4.530  12.850 -0.1391  0.9513 -0.4473
11259TIP3    H155192   6.032   4.612  12.811 -0.4185  0.7672 -1.0579
11259TIP3    H255193   6.068   4.509  12.917  1.3433  0.3351 -2.0370
11260TIP3   OH255194   5.549   6.486   3.938  0.5071  0.4619 -0.4088
11260TIP3    H155195   5.494   6.414   3.968  0.7793  0.2588 -0.3955
11260TIP3    H255196   5.556   6.544   4.013  2.3433 -0.7319  0.4053
11261TIP3   OH255197   6.775   1.760  16.027  1.0019 -0.4611 -0.2320
11261TIP3    H155198   6.704   1.697  16.030  0.4626  0.1049 -0.7959
11261TIP3    H255199   6.732   1.845  16.020  1.7186 -0.0474  0.1513
11262TIP3   OH255200   6.406   0.988   0.796  1.0541 -0.2092  0.4834
11262TIP3    H155201   6.429   1.055   0.731  1.2983 -0.6128  0.1520
11262TIP3    H255202   6.485   0.978   0.849 -0.1353  2.6575  3.1596
11263TIP3   OH255203   3.137   0.415   3.637 -0.3109 -0.8801 -0.3536
11263TIP3    H155204   3.169   0.325   3.640 -0.3786 -0.8933  0.0722
11263TIP3    H255205   3.205   0.466   3.681  0.6791 -0.4174 -2.2777
11264TIP3   OH255206   5.421   1.064   4.140  0.0756  0.2321  0.4182
11264TIP3    H155207   5.347   1.090   4.194 -0.8439 -1.3245 -0.0450
11264TIP3    H255208   5.491   1.046   4.203 -0.7818 -0.9351  1.0673
11265TIP3   OH255209   4.165   6.302  10.996 -0.0890 -0.1315 -0.0823
11265TIP3    H155210   4.136   6.284  10.907  1.0095 -1.3076 -0.2321
11265TIP3    H255211   4.158   6.397  11.005  1.2262  0.1883 -1.9445
11266TIP3   OH255212   2.233   6.513   1.576  0.4884 -0.0119  0.0173
11266TIP3    H155213   2.211   6.507   1.483 -1.3483  2.5988  0.2079
11266TIP3    H255214   2.317   6.559   1.578 -0.0043  0.9252 -0.3447
11267TIP3   OH255215   2.689   4.618   0.931  0.4442 -0.1606 -0.3742
11267TIP3    H155216   2.718   4.556   0.864 -0.0819 -0.8164 -0.0116
11267TIP3    H255217   2.765   4.675   0.946  0.4260  0.2704 -1.8213
11268TIP3   OH255218   0.008   1.014  13.541 -0.3760 -1.2215 -0.0344
11268TIP3    H155219   0.060   1.053  13.471 -0.2717  0.3488  0.8706
11268TIP3    H255220   0.063   0.944  13.576  0.5724 -0.4690  0.0118
11269TIP3   OH255221   0.761   6.712  13.941 -0.2052  0.3894  0.4984
11269TIP3    H155222   0.686   6.728  13.884 -1.6709 -0.1802  2.1422
11269TIP3    H255223   0.792   6.625  13.916 -1.1898 -0.0977  0.9001
11270TIP3   OH255224   2.980   3.880   6.007 -0.2803  0.1158  0.1161
11270TIP3    H155225   2.948   3.851   5.922 -0.6606 -0.9459  0.6106
11270TIP3    H255226   3.063   3.834   6.020 -1.9276 -2.6276  1.8699
11271TIP3   OH255227   5.708   5.267   2.611  0.0931  0.6957  0.2832
11271TIP3    H155228   5.694   5.359   2.632 -3.3475  0.0837  1.3906
11271TIP3    H255229   5.731   5.226   2.695 -1.1836  0.1774  0.4117
11272TIP3   OH255230   3.650   4.783  11.339  0.2509 -0.3064  0.0546
11272TIP3    H155231   3.651   4.771  11.244 -1.6437 -0.2035 -0.0230
11272TIP3    H255232   3.700   4.709  11.372 -1.0916 -1.7532 -0.9611
11273TIP3   OH255233   1.748   5.882  13.966 -0.2890 -0.3030 -0.8863
11273TIP3    H155234   1.691   5.860  14.040  0.5324  1.1182  0.2193
11273TIP3    H255235   1.833   5.899  14.005 -0.1203  1.6714 -1.9894
11274TIP3   OH255236   1.573   1.332   5.101  0.3415  0.1567  0.2301
11274TIP3    H155237   1.584   1.242   5.070 -2.9803  0.1834 -1.4974
11274TIP3    H255238   1.586   1.386   5.023  4.1944  1.5336  1.5834
11275TIP3   OH255239   1.221   1.411  11.996  0.3871  0.2024  0.3660
11275TIP3    H155240   1.268   1.385  11.917  1.3159  3.5719 -0.3898
11275TIP3    H255241   1.289   1.427  12.061 -0.1373  0.1501  0.9420
11276TIP3   OH255242   3.891   0.558  12.288 -0.5286  0.0325  0.0867
11276TIP3    H155243   3.906   0.471  12.323 -1.1859  0.3599  1.2150
11276TIP3    H255244   3.975   0.584  12.250 -0.6670 -1.6063 -1.5028
11277TIP3   OH255245   6.026   2.751   6.261  0.1544 -0.1068 -0.0562
11277TIP3    H155246   6.025   2.823   6.325 -1.3023 -0.1409 -0.0004
11277TIP3    H255247   6.001   2.674   6.312 -1.5285 -0.0491 -0.7167
11278TIP3   OH255248   4.090   0.927   0.262  0.7072 -0.2731  0.1835
11278TIP3    H155249   4.143   0.865   0.312  0.5387 -0.4847  0.1000
11278TIP3    H255250   4.000   0.912   0.290  0.1109 -2.7229 -2.4692
11279TIP3   OH255251   1.944   5.938   5.441  0.4664  0.5082 -0.0418
11279TIP3    H155252   2.037   5.920   5.427  0.3145 -1.3174  0.9854
11279TIP3    H255253   1.911   5.961   5.354  1.4459 -1.0257 -0.8690
11280TIP3   OH255254   6.236   0.080   5.072 -0.1223 -0.2322 -0.0241
11280TIP3    H155255   6.326   0.105   5.053 -0.1722 -0.3905 -0.4764
11280TIP3    H255256   6.228   0.089   5.167  0.3271 -0.0818  0.0004
11281TIP3   OH255257   2.095   4.272   3.536 -0.2633  0.4542  0.2262
11281TIP3    H155258   2.003   4.250   3.555 -0.1072  0.5019  1.0520
11281TIP3    H255259   2.144   4.233   3.608  0.2856  1.1436  0.2310
11282TIP3   OH255260   4.457   2.337   0.992  0.6786  0.5844  0.0012
11282TIP3    H155261   4.387   2.394   1.024  0.1382  1.1396 -1.9663
11282TIP3    H255262   4.467   2.269   1.059 -2.1179  0.1900  0.1207
11283TIP3   OH255263   1.980   0.204  14.268  0.3701 -0.6194 -0.5632
11283TIP3    H155264   2.066   0.245  14.257  0.4481 -0.8321 -0.7518
11283TIP3    H255265   1.985   0.159  14.353  0.8407 -1.5884 -1.0900
11284TIP3   OH255266   2.409   5.452   1.475 -0.1277  0.1481  0.2761
11284TIP3    H155267   2.464   5.386   1.517  0.9193  0.3473 -0.7331
11284TIP3    H255268   2.327   5.450   1.524 -0.0478 -1.7601  0.3739
11285TIP3   OH255269   6.511   2.623  15.811  0.3121  0.6594 -0.4738
11285TIP3    H155270   6.462   2.652  15.887  1.2872  0.4661  0.2401
11285TIP3    H255271   6.601   2.613  15.842  1.2495  2.9263 -2.2154
11286TIP3   OH255272   5.508   2.786  11.480 -0.0503 -0.1929  0.0159
11286TIP3    H155273   5.546   2.793  11.393  1.2729  0.0805  0.5942
11286TIP3    H255274   5.483   2.876  11.502 -1.1228 -0.3774 -0.3800
11287TIP3   OH255275   2.553   2.067   3.560 -0.0284  0.0285  0.1582
11287TIP3    H155276   2.493   2.070   3.486  1.6778 -0.0795 -1.2938
11287TIP3    H255277   2.527   2.141   3.615 -1.3674  0.0820 -0.5162
11288TIP3   OH255278   6.700   2.886  10.617  0.0794  0.2705  0.0083
11288TIP3    H155279   6.757   2.951  10.659 -0.6421  0.4571  0.7388
11288TIP3    H255280   6.629   2.937  10.579  0.2552  0.0184 -0.6766
11289TIP3   OH255281   1.333   5.276  12.872 -0.6215  0.5936  0.6949
11289TIP3    H155282   1.270   5.303  12.806  0.6023  1.5922 -0.1020
11289TIP3    H255283   1.299   5.193  12.905 -1.5447  0.3509 -0.7880
11290TIP3   OH255284   1.486   4.435  11.095 -0.6306 -0.1660 -0.0998
11290TIP3    H155285   1.561   4.398  11.141 -0.1288  0.7849 -0.1341
11290TIP3    H255286   1.519   4.515  11.055 -1.2941 -0.4673 -1.3278
11291TIP3   OH255287   6.203   0.632   4.441 -0.7315  0.2276  0.0425
11291TIP3    H155288   6.245   0.604   4.522 -0.6432 -1.0066 -0.4064
11291TIP3    H255289   6.144   0.702   4.468 -0.2834  0.2206  1.0839
11292TIP3   OH255290   4.896   1.692  16.476 -0.4010 -0.6896  0.4406
11292TIP3    H155291   4.968   1.685  16.538 -0.8729 -3.3628  0.8019
11292TIP3    H255292   4.929   1.650  16.396 -0.5005  0.9285 -0.4968
11293TIP3   OH255293   3.862   0.423   4.266 -0.0063  0.7006 -0.2333
11293TIP3    H155294   3.835   0.515   4.263 -0.2391  0.6138 -1.1635
11293TIP3    H255295   3.852   0.398   4.357 -2.8278  0.7732 -0.4301
11294TIP3   OH255296   0.923   3.969   1.346  0.0606 -0.1908 -0.0507
11294TIP3    H155297   0.950   3.910   1.276 -0.1087 -0.3232 -0.0072
11294TIP3    H255298   0.907   4.053   1.302 -2.6860 -0.9180 -0.6909
11295TIP3   OH255299   0.706   5.216  17.212 -0.1890 -0.0096  0.3107
11295TIP3    H155300   0.777   5.152  17.222 -0.4610 -0.6019 -1.3056
11295TIP3    H255301   0.749   5.301  17.222  0.6845 -0.3731 -0.2359
11296TIP3   OH255302   3.830   5.608   1.469  0.1219 -0.3324 -0.6063
11296TIP3    H155303   3.789   5.585   1.552  2.6887  0.1649  0.9243
11296TIP3    H255304   3.772   5.674   1.430 -0.4982  0.4174  1.4591
11297TIP3   OH255305   2.424   2.677  12.825 -0.5702  0.1877  0.4027
11297TIP3    H155306   2.422   2.758  12.876 -0.7661 -0.5485  1.6026
11297TIP3    H255307   2.348   2.628  12.855 -1.1053  0.0085 -1.1248
11298TIP3   OH255308   0.330   0.206   0.955  0.0673  0.2222  0.7527
11298TIP3    H155309   0.271   0.133   0.971 -1.2063  1.2958  1.0875
11298TIP3    H255310   0.376   0.218   1.039  0.2875 -0.1829  0.6939
11299TIP3   OH255311   5.147   4.928  15.232  0.5751  0.5046  0.0039
11299TIP3    H155312   5.138   4.836  15.210  1.8164  0.3788 -0.0548
11299TIP3    H255313   5.072   4.947  15.288 -0.3767 -0.2096 -0.9885
11300TIP3   OH255314   5.201   4.777   3.423 -0.0065  0.5111  0.6276
11300TIP3    H155315   5.251   4.811   3.348 -1.8567  1.1800 -0.3698
11300TIP3    H255316   5.113   4.810   3.410 -1.1560 -1.9778  1.3942
11301TIP3   OH255317   5.178   3.843  12.346  0.1548 -0.0338 -0.0873
11301TIP3    H155318   5.270   3.868  12.332  0.3802  1.1314  2.7904
11301TIP3    H255319   5.129   3.924  12.332 -0.5180 -0.6583 -1.6275
11302TIP3   OH255320   5.200   2.083  16.040  0.2892  0.5040 -0.4199
11302TIP3    H155321   5.278   2.035  16.068  0.3898  1.0200  0.2085
11302TIP3    H255322   5.223   2.119  15.954  0.0155 -1.0071 -1.1593
11303TIP3   OH255323   0.076   3.628   3.178  0.5266 -0.0452  0.2754
11303TIP3    H155324   0.075   3.687   3.102  0.0299 -0.4824 -0.0626
11303TIP3    H255325   0.163   3.639   3.215  0.6383  0.4755 -0.1200
11304TIP3   OH255326   4.604   0.075   4.781  0.4280 -0.6168  0.0118
11304TIP3    H155327   4.677   0.085   4.841  0.8104 -1.8690 -0.2217
11304TIP3    H255328   4.539   0.140   4.810  1.1053 -0.3785  0.9996
11305TIP3   OH255329   3.249   5.629  16.400  0.4576  0.1137  0.5826
11305TIP3    H155330   3.246   5.712  16.448 -0.8985 -0.4456  1.5384
11305TIP3    H255331   3.342   5.614  16.383  0.6697  2.3932 -0.6751
11306TIP3   OH255332   1.504   3.059  10.969  0.8793  0.2965  0.2224
11306TIP3    H155333   1.507   2.975  10.925 -0.0126  1.4845 -2.3176
11306TIP3    H255334   1.434   3.050  11.034 -0.1070 -0.5396 -0.9303
11307TIP3   OH255335   4.184   1.029   0.026 -0.1069 -0.1580 -0.2066
11307TIP3    H155336   4.279   1.024   0.016 -0.0066  0.4224  0.4396
11307TIP3    H255337   4.166   0.978   0.105 -0.1048  1.3957  0.8364
11308TIP3   OH255338   0.401   1.582  15.664 -0.2617 -0.0391  0.0099
11308TIP3    H155339   0.480   1.540  15.629  1.0792  4.3347 -3.0987
11308TIP3    H255340   0.426   1.608  15.753  1.0810 -0.4691 -0.2119
11309TIP3   OH255341   4.439   3.148  12.710 -0.4173  0.6052 -0.5198
11309TIP3    H155342   4.506   3.176  12.772  0.5344  2.5510 -2.3267
11309TIP3    H255343   4.482   3.153  12.624 -1.8988 -1.3286 -1.4619
11310TIP3   OH255344   0.420   2.490  14.045  0.4537  0.6458  0.9726
11310TIP3    H155345   0.481   2.559  14.069  1.1053  0.9430 -1.2865
11310TIP3    H255346   0.352   2.534  13.994  0.4998 -0.2497  0.0994
11311TIP3   OH255347   2.947   5.647   2.990  0.2038 -0.2685  0.0872
11311TIP3    H155348   2.878   5.712   3.006  0.5453  0.2566 -0.5090
11311TIP3    H255349   2.955   5.599   3.073  0.2465  0.7469  0.6936
11312TIP3   OH255350   3.008   5.135  16.127 -0.4448 -0.3231 -0.3155
11312TIP3    H155351   2.924   5.151  16.085 -0.1896  1.0777 -0.3261
11312TIP3    H255352   3.028   5.044  16.106 -1.5046 -0.3861 -1.1170
11313TIP3   OH255353   1.598   6.402  11.312 -0.4591 -0.2795  0.1137
11313TIP3    H155354   1.559   6.337  11.371  2.0959 -1.8189  0.3095
11313TIP3    H255355   1.618   6.353  11.232  1.8251  0.0680  0.3877
11314TIP3   OH255356   4.657   1.915  14.145 -0.6080 -0.3674 -0.0396
11314TIP3    H155357   4.669   1.824  14.172  0.6861 -0.4234 -0.6791
11314TIP3    H255358   4.647   1.963  14.226  1.4088 -0.7592  0.5132
11315TIP3   OH255359   3.309   5.098  11.450  0.4424  0.1974  0.1665
11315TIP3    H155360   3.250   5.039  11.404  0.9339 -0.4016  0.2982
11315TIP3    H255361   3.393   5.052  11.452  0.4028  0.1447  1.7758
11316TIP3   OH255362   6.691   6.299   3.031  0.4131 -0.0944  0.3081
11316TIP3    H155363   6.627   6.295   3.102  0.3399  0.8892  0.3077
11316TIP3    H255364   6.757   6.362   3.060  1.1145 -0.7063  0.0835
11317TIP3   OH255365   0.569   3.134   1.245  0.1823  0.1552 -0.6479
11317TIP3    H155366   0.502   3.105   1.184  2.0761  0.6809 -3.1293
11317TIP3    H255367   0.537   3.218   1.279 -0.2214  0.6687 -2.2168
11318TIP3   OH255368   0.021   1.341  15.206 -0.4286  0.1393 -0.1779
11318TIP3    H155369   0.080   1.331  15.281 -0.5052 -1.1027 -0.2598
11318TIP3    H255370  -0.055   1.287  15.229 -1.6227  1.8017 -0.0122
11319TIP3   OH255371   1.260   5.299   5.263 -0.6751  0.7183  0.0268
11319TIP3    H155372   1.316   5.337   5.331  0.7999 -0.1083 -0.6716
11319TIP3    H255373   1.177   5.347   5.270 -0.0718  1.6034  1.4654
11320TIP3   OH255374   2.301   3.419   4.771 -0.0250 -0.7253 -0.3720
11320TIP3    H155375   2.222   3.468   4.796  0.0202 -1.5308  1.5317
11320TIP3    H255376   2.345   3.476   4.708 -1.0634  0.7059  0.1182
11321TIP3   OH255377   0.168   4.160   0.439 -0.1716 -0.2682 -0.1467
11321TIP3    H155378   0.113   4.233   0.412 -0.2096  0.4731  1.7994
11321TIP3    H255379   0.257   4.195   0.439  0.2781 -1.2111 -2.4061
11322TIP3   OH255380   1.394   0.395   4.099 -0.1447 -0.2011 -0.7892
11322TIP3    H155381   1.341   0.457   4.050 -2.1298 -0.3720  0.9827
11322TIP3    H255382   1.482   0.432   4.098 -0.7713  1.3546 -1.8256
11323TIP3   OH255383   0.370   2.649  14.357 -0.0661 -0.0733 -0.1516
11323TIP3    H155384   0.337   2.739  14.358 -1.7952 -0.6314 -1.6075
11323TIP3    H255385   0.297   2.597  14.322  1.5077 -1.7720 -1.0772
11324TIP3   OH255386   1.444   3.791   0.514 -0.0701  0.5706  0.0742
11324TIP3    H155387   1.356   3.818   0.488  0.2934  2.2135  0.4698
11324TIP3    H255388   1.444   3.800   0.609 -0.1864 -1.7223  0.3461
11325TIP3   OH255389   2.542   1.285  11.736 -0.4095 -0.4757 -0.1701
11325TIP3    H155390   2.610   1.329  11.685  1.4332 -0.2867  2.2802
11325TIP3    H255391   2.559   1.191  11.723 -0.2484 -0.4356 -0.2487
11326TIP3   OH255392   5.744   0.628  15.901  0.5371 -0.6250  0.1240
11326TIP3    H155393   5.709   0.549  15.859 -0.0791 -1.2021  1.6629
11326TIP3    H255394   5.714   0.623  15.992 -0.3692  1.9046  0.0456
11327TIP3   OH255395   4.013   1.013  16.845  0.0531 -0.1983 -0.1402
11327TIP3    H155396   4.090   1.069  16.858 -1.5128  1.8963  0.6675
11327TIP3    H255397   3.957   1.063  16.787 -1.0311 -1.3580 -0.1296
11328TIP3   OH255398   3.812   6.269  16.762  0.1614  0.3717 -0.4218
11328TIP3    H155399   3.778   6.358  16.763 -0.0174  0.4039 -2.9650
11328TIP3    H255400   3.753   6.222  16.703  0.8095 -1.1972  0.1346
11329TIP3   OH255401   1.457   3.158   2.896 -0.1350  0.2094 -0.0382
11329TIP3    H155402   1.376   3.195   2.930  0.4350  0.5621  0.9552
11329TIP3    H255403   1.521   3.169   2.966  0.5757 -0.8019 -0.4905
11330TIP3   OH255404   3.035   2.037  13.291  0.1682  0.0619  0.2850
11330TIP3    H155405   3.010   2.035  13.198  2.1483  2.1017 -0.3922
11330TIP3    H255406   3.066   1.948  13.309 -0.3417 -0.3976 -0.9602
11331TIP3   OH255407   0.509   4.242  12.648 -0.5107  0.0595  0.1178
11331TIP3    H155408   0.583   4.203  12.693 -0.0999  0.1563 -0.4617
11331TIP3    H255409   0.432   4.210  12.695 -0.0522  1.4030  1.8896
11332TIP3   OH255410   2.654   0.987   6.023 -0.1930 -0.2740  0.5169
11332TIP3    H155411   2.737   0.950   5.991 -0.3453 -0.0826 -0.1125
11332TIP3    H255412   2.671   1.007   6.115  1.3085  2.1291 -0.1785
11333TIP3   OH255413   2.717   1.486  11.459 -0.3951 -0.1316  0.4926
11333TIP3    H155414   2.750   1.398  11.478  0.4317  0.1333  0.3459
11333TIP3    H255415   2.622   1.480  11.471 -0.3701 -1.0954  0.2760
11334TIP3   OH255416   0.898   5.710   5.000 -0.0510  0.1030  0.2329
11334TIP3    H155417   0.838   5.637   4.981  0.2510 -0.4810  1.4052
11334TIP3    H255418   0.842   5.777   5.040 -0.3609  0.6085 -1.0059
11335TIP3   OH255419   5.624   4.202  14.393  0.1774  0.2854  0.2763
11335TIP3    H155420   5.709   4.246  14.393  0.9162 -1.0750  0.7551
11335TIP3    H255421   5.578   4.239  14.469  0.6971  0.3899  0.5452
11336TIP3   OH255422   3.382   6.220   0.721  0.0497 -0.2276  0.1855
11336TIP3    H155423   3.379   6.136   0.768  0.2402 -0.4244 -0.1533
11336TIP3    H255424   3.340   6.282   0.781  0.8106 -0.3536  0.8671
11337TIP3   OH255425   3.811   3.219  17.182  0.5580  0.2620  0.5424
11337TIP3    H155426   3.860   3.158  17.127 -1.8450 -0.2239 -1.2264
11337TIP3    H255427   3.747   3.163  17.227 -0.3753  1.1907  0.4145
11338TIP3   OH255428   4.604   5.677   1.711 -0.7275 -0.4368  0.6584
11338TIP3    H155429   4.630   5.655   1.801  0.0597  0.7087  0.7317
11338TIP3    H255430   4.678   5.726   1.676 -1.0224 -0.8847 -0.6363
11339TIP3   OH255431   0.327   5.944  13.610 -0.3884 -0.4257 -0.5586
11339TIP3    H155432   0.261   5.875  13.625  0.5848 -1.4992 -1.0654
11339TIP3    H255433   0.386   5.938  13.685  0.7042 -1.3615 -1.4542
11340TIP3   OH255434   3.802   3.470  16.812  0.1952 -0.1846  0.0700
11340TIP3    H155435   3.708   3.455  16.801  0.3326 -0.4196 -0.8815
11340TIP3    H255436   3.814   3.474  16.907 -0.8777  0.5801  0.1935
11341TIP3   OH255437   5.355   5.704  13.413 -0.2468  0.2115  0.2701
11341TIP3    H155438   5.312   5.658  13.485  0.2632 -0.2840  0.2658
11341TIP3    H255439   5.434   5.653  13.396 -1.3088 -0.8227 -1.9239
11342TIP3   OH255440   0.056   0.212  13.755  0.2004  0.0310  0.0736
11342TIP3    H155441   0.036   0.239  13.665  2.7225  0.8971 -0.3075
11342TIP3    H255442   0.123   0.274  13.784  0.0493 -0.7640  2.2545
11343TIP3   OH255443   3.337   4.382  13.187  0.2488 -0.2488  0.6413
11343TIP3    H155444   3.368   4.316  13.250  0.2549 -1.8432 -0.9391
11343TIP3    H255445   3.404   4.383  13.119 -0.1032  0.9247  0.2929
11344TIP3   OH255446   4.515   1.131  12.008  0.3469 -0.2015 -0.5929
11344TIP3    H155447   4.478   1.095  11.928  0.4939 -2.5545  0.3085
11344TIP3    H255448   4.524   1.055  12.066  1.2139  1.2516  1.2716
11345TIP3   OH255449   5.454   3.361  14.718  0.0675 -0.3227 -0.3241
11345TIP3    H155450   5.474   3.335  14.629  0.3399 -1.2898  0.0081
11345TIP3    H255451   5.375   3.312  14.741 -0.5474  0.6322 -0.3444
11346TIP3   OH255452   5.739   4.361   5.210 -0.3951  0.5110  0.1211
11346TIP3    H155453   5.684   4.439   5.212 -0.5720  0.3895  2.0000
11346TIP3    H255454   5.713   4.311   5.287  1.0224 -0.4795  0.0028
11347TIP3   OH255455   5.597   4.927  12.955 -0.2702  0.0849 -0.4104
11347TIP3    H155456   5.663   4.873  12.998 -0.9684  0.8371  1.7224
11347TIP3    H255457   5.607   4.907  12.862  3.7982  1.0998 -0.3626
11348TIP3   OH255458   4.179   1.617  16.281  0.2696  0.4190  0.9991
11348TIP3    H155459   4.253   1.658  16.326  1.2072  0.3811 -0.4444
11348TIP3    H255460   4.178   1.527  16.313  2.8091 -0.5081 -1.1193
11349TIP3   OH255461   2.892   6.583   1.748 -0.0389  0.4319  0.2071
11349TIP3    H155462   2.893   6.581   1.844  0.4432 -0.6692  0.1887
11349TIP3    H255463   2.915   6.674   1.726  0.3470  0.5705  1.1239
11350TIP3   OH255464   5.742   4.052   1.815 -0.3581 -0.6700 -0.3475
11350TIP3    H155465   5.749   4.041   1.720 -1.1065 -2.3200 -0.2456
11350TIP3    H255466   5.733   3.963   1.848 -1.1624 -0.0380  1.1947
11351TIP3   OH255467   5.737   6.282   1.918 -0.8431 -0.2896  0.2740
11351TIP3    H155468   5.806   6.320   1.973 -2.4657  2.2881  0.7086
11351TIP3    H255469   5.745   6.328   1.834 -1.0866 -1.1278 -0.2279
11352TIP3   OH255470   2.106   0.410  13.981 -0.3175  0.1180  0.2066
11352TIP3    H155471   2.105   0.373  13.893  1.6752  1.2258 -0.3582
11352TIP3    H255472   2.076   0.501  13.969 -2.7841 -0.4957  1.1715
11353TIP3   OH255473   3.706   0.861   1.551 -0.1098 -0.2937 -0.0332
11353TIP3    H155474   3.632   0.804   1.569  0.5477 -0.5975  1.9094
11353TIP3    H255475   3.763   0.810   1.494  0.9314 -2.0523  2.4276
11354TIP3   OH255476   4.776   1.968   6.094  0.6748  0.1398  0.3093
11354TIP3    H155477   4.701   2.014   6.132 -0.5749  0.0707 -1.8891
11354TIP3    H255478   4.743   1.881   6.072  1.7672 -0.3267  0.4256
11355TIP3   OH255479   4.926   5.585  11.745 -0.7453 -0.4497  0.0393
11355TIP3    H155480   4.924   5.612  11.836 -0.3574 -2.3531  0.6396
11355TIP3    H255481   4.835   5.566  11.723 -0.6620 -1.4585  0.5158
11356TIP3   OH255482   5.019   1.804   3.871 -0.4203 -0.3610 -0.2711
11356TIP3    H155483   4.992   1.862   3.942 -0.5318 -0.0528 -0.5632
11356TIP3    H255484   5.105   1.771   3.898 -0.4758 -0.2691  0.0185
11357TIP3   OH255485   2.008   3.301  13.969 -0.0700  0.1011 -0.7083
11357TIP3    H155486   2.001   3.215  13.927 -2.5499 -0.2425  0.2622
11357TIP3    H255487   2.002   3.283  14.062  1.8063  1.1708 -0.3371
11358TIP3   OH255488   4.882   5.521  15.337 -0.3557 -0.2367 -0.3334
11358TIP3    H155489   4.899   5.506  15.244 -1.0498  0.9037 -0.6635
11358TIP3    H255490   4.927   5.449  15.382 -0.4739 -1.1173 -1.5792
11359TIP3   OH255491   0.292   5.964  17.092 -0.6367  0.3407  0.2128
11359TIP3    H155492   0.236   5.993  17.165  0.8948  0.9406  1.2134
11359TIP3    H255493   0.332   6.045  17.060 -0.9017  0.0103 -0.9860
11360TIP3   OH255494   6.506   3.546   4.723 -0.1179  0.2351  0.1514
11360TIP3    H155495   6.513   3.492   4.644 -0.1314  0.0120  0.3032
11360TIP3    H255496   6.591   3.537   4.766 -0.5948 -0.7932  0.9042
11361TIP3   OH255497   5.487   5.793   4.137  0.8493 -0.0170 -0.0090
11361TIP3    H155498   5.550   5.725   4.114  0.6653 -0.3058  0.3336
11361TIP3    H255499   5.509   5.867   4.080 -1.1206 -1.4834 -2.8832
11362TIP3   OH255500   3.448   2.318  16.858 -0.4361 -0.4817 -0.5303
11362TIP3    H155501   3.462   2.254  16.788  0.1741  0.8680 -1.6921
11362TIP3    H255502   3.404   2.269  16.927 -2.2230 -1.5842 -2.3479
11363TIP3   OH255503   2.452   4.940  11.107  0.4159 -0.6482 -0.1361
11363TIP3    H155504   2.402   4.985  11.039  0.6972  0.9950  0.6855
11363TIP3    H255505   2.515   4.886  11.059 -0.7532 -1.1327 -1.1628
11364TIP3   OH255506   2.004   2.333  13.222  0.0231 -0.3034  0.0076
11364TIP3    H155507   1.924   2.294  13.258 -0.7893  0.3701 -1.0281
11364TIP3    H255508   2.065   2.259  13.213 -1.0326 -1.1165 -0.6881
11365TIP3   OH255509   5.315   3.514   3.442  0.1968 -0.3112 -0.0345
11365TIP3    H155510   5.224   3.511   3.472  0.1952 -0.3187 -0.0406
11365TIP3    H255511   5.322   3.597   3.396  0.3891  0.0458  0.6155
11366TIP3   OH255512   4.386   3.593  13.559  0.3947  0.3423 -0.6027
11366TIP3    H155513   4.302   3.550  13.573  0.6373 -0.1521 -0.6338
11366TIP3    H255514   4.430   3.537  13.495  0.4332  1.0265 -1.1728
11367TIP3   OH255515   0.690   4.039  14.242  0.3447 -0.1953 -0.1207
11367TIP3    H155516   0.730   3.982  14.176 -0.9001 -2.1199  0.6700
11367TIP3    H255517   0.659   4.115  14.194 -0.1245 -1.3346 -1.7105
11368TIP3   OH255518   2.603   1.512  13.628 -0.0812 -0.3254 -0.1768
11368TIP3    H155519   2.642   1.593  13.660  0.9544 -0.6929 -0.4803
11368TIP3    H255520   2.657   1.443  13.665 -0.9483 -0.8921  0.0678
11369TIP3   OH255521   1.673   1.381   2.016  0.6427 -0.3107  0.0306
11369TIP3    H155522   1.592   1.423   2.044  1.5339  1.4546  0.0741
11369TIP3    H255523   1.645   1.304   1.967 -1.0292 -0.3317  0.9534
11370TIP3   OH255524   3.497   0.022   5.888  0.3393  0.1429  0.4940
11370TIP3    H155525   3.549  -0.019   5.957 -1.8671 -1.4283  1.3503
11370TIP3    H255526   3.501   0.116   5.906  0.9093 -0.1384  1.9372
11371TIP3   OH255527   0.917   2.059   3.540 -0.0341  0.3356 -0.3329
11371TIP3    H155528   0.914   2.141   3.590 -0.9630  1.9575 -2.8423
11371TIP3    H255529   0.860   1.999   3.589 -2.1039  2.2997 -0.1354
11372TIP3   OH255530   3.499   6.402  11.182 -0.2728 -0.4025  0.0376
11372TIP3    H155531   3.587   6.386  11.148 -0.6300 -2.0842 -0.1433
11372TIP3    H255532   3.442   6.399  11.105 -0.4926  0.9072  0.1175
11373TIP3   OH255533   3.919   2.754   5.097 -0.1127 -0.2600 -0.1059
11373TIP3    H155534   3.885   2.821   5.038 -0.7257 -1.4724 -1.1907
11373TIP3    H255535   4.010   2.741   5.068  0.2233  0.5616  0.5513
11374TIP3   OH255536   1.270   0.031  13.057  0.0729  0.3164 -0.2801
11374TIP3    H155537   1.323   0.023  12.977  0.4996 -0.0563  0.0378
11374TIP3    H255538   1.237  -0.058  13.072 -1.8389  0.8115 -1.2762
11375TIP3   OH255539   0.070   6.751  11.261  0.3336 -0.4893 -0.5581
11375TIP3    H155540   0.068   6.847  11.264 -1.2464 -0.5004  0.0260
11375TIP3    H255541   0.151   6.727  11.306 -0.6265  0.5594  1.9311
11376TIP3   OH255542   5.469   4.709  15.704 -0.3633 -0.1827 -0.3294
11376TIP3    H155543   5.467   4.786  15.647  1.5450  0.6903  0.6709
11376TIP3    H255544   5.506   4.639  15.650  1.8946  0.7665 -0.1153
11377TIP3   OH255545   3.082   3.432   1.341 -0.0484 -0.0048  0.4140
11377TIP3    H155546   3.064   3.446   1.434  1.8673  0.7781  0.6986
11377TIP3    H255547   3.021   3.490   1.296 -0.4764  0.1643  1.1901
11378TIP3   OH255548   6.772   0.899  11.282 -0.9262 -0.2333 -0.3579
11378TIP3    H155549   6.781   0.804  11.276  0.7508 -0.0872 -0.4524
11378TIP3    H255550   6.764   0.917  11.375  3.4571 -0.1825  0.2159
11379TIP3   OH255551   5.688   6.272  15.873 -0.0968 -0.2773 -0.2750
11379TIP3    H155552   5.695   6.359  15.912 -3.5644  0.5481 -1.1533
11379TIP3    H255553   5.709   6.285  15.781  0.4431 -0.5994 -0.1990
11380TIP3   OH255554   1.294   2.813   3.972 -0.0818  0.2846  0.0672
11380TIP3    H155555   1.224   2.792   3.910  0.7399 -2.3954 -0.0610
11380TIP3    H255556   1.249   2.826   4.055 -0.9177  0.9067 -0.4607
11381TIP3   OH255557   0.146   6.002   2.294 -0.2338  0.4315  0.4032
11381TIP3    H155558   0.165   5.985   2.386 -0.7670 -0.9658  0.2842
11381TIP3    H255559   0.070   6.059   2.295  0.4885  1.4143  0.8234
11382TIP3   OH255560   1.272   3.407   2.408 -0.1571  0.4987  0.3169
11382TIP3    H155561   1.353   3.411   2.357  0.0400 -1.2694  0.4129
11382TIP3    H255562   1.212   3.467   2.364  0.6559  0.5112 -0.8020
11383TIP3   OH255563   3.953   0.032   4.628  0.0762 -0.3194  0.0042
11383TIP3    H155564   3.912   0.086   4.561 -0.9885  0.9161  1.5887
11383TIP3    H255565   3.910  -0.053   4.620 -0.6582  0.0733 -0.3212
11384TIP3   OH255566   1.137   5.606  15.300  0.0634 -0.8821  0.5309
11384TIP3    H155567   1.189   5.620  15.380  1.1085 -0.0579 -0.2622
11384TIP3    H255568   1.137   5.511  15.289  1.7128 -0.8986  0.3810
11385TIP3   OH255569   0.747   3.620   1.014 -0.1105  0.3546 -0.3651
11385TIP3    H155570   0.656   3.643   1.030 -0.2419  0.2976 -0.9961
11385TIP3    H255571   0.779   3.588   1.099 -1.0401 -0.8391 -0.4394
11386TIP3   OH255572   2.666   3.694   4.784  0.0971  0.2198  0.3520
11386TIP3    H155573   2.687   3.729   4.871  0.3401 -1.2517  0.9195
11386TIP3    H255574   2.732   3.732   4.727  1.9741 -1.2499  1.4176
11387TIP3   OH255575   1.944   2.995  12.738  0.5459  0.4081 -0.2413
11387TIP3    H155576   1.897   3.044  12.806  0.5019 -0.1813  0.1680
11387TIP3    H255577   1.965   2.911  12.780  3.1712  1.1334  0.0765
11388TIP3   OH255578   4.041   2.842   1.108 -0.0800  0.4544 -0.0619
11388TIP3    H155579   4.085   2.820   1.026  1.6086  0.3431  0.8276
11388TIP3    H255580   4.039   2.938   1.109 -0.1909  0.4546 -0.2709
11389TIP3   OH255581   1.219   4.758  12.876  0.0871 -0.0036 -0.5102
11389TIP3    H155582   1.255   4.709  12.802 -0.1430 -1.2171  0.1611
11389TIP3    H255583   1.255   4.715  12.953 -0.4949  0.5937  0.1094
11390TIP3   OH255584   1.163   0.977  11.434 -0.2728 -0.3037 -0.3359
11390TIP3    H155585   1.103   0.953  11.364 -0.3046 -0.0333 -0.4047
11390TIP3    H255586   1.242   1.009  11.389  1.3421 -3.8382 -0.3261
11391TIP3   OH255587   0.176   2.616   1.238  0.3584  0.1574 -0.6763
11391TIP3    H155588   0.114   2.550   1.206 -1.0223  0.9674  0.1913
11391TIP3    H255589   0.164   2.616   1.333 -0.1653  2.0573 -0.6854
11392TIP3   OH255590   1.343   6.691  16.360 -0.0027  0.2330 -0.1231
11392TIP3    H155591   1.328   6.607  16.403 -0.7259  0.1103 -0.5935
11392TIP3    H255592   1.260   6.739  16.372  0.6113  1.1305  0.6813
11393TIP3   OH255593   4.963   1.552  15.648 -0.2122 -0.6024 -0.9139
11393TIP3    H155594   4.951   1.629  15.593  0.8565  0.0897 -0.2323
11393TIP3    H255595   4.881   1.544  15.697 -0.7933 -0.6473 -1.8593
11394TIP3   OH255596   2.501   0.564  15.144 -0.9292  0.0100  0.0372
11394TIP3    H155597   2.492   0.510  15.065  1.9898  0.8108 -0.9554
11394TIP3    H255598   2.521   0.501  15.214  1.2720 -0.3864 -0.8755
11395TIP3   OH255599   5.311   5.116   4.023  0.0092  0.2742 -0.3587
11395TIP3    H155600   5.396   5.150   3.994 -0.2240  0.0588 -1.3509
11395TIP3    H255601   5.248   5.183   3.996 -0.3419 -0.4488 -1.4513
11396TIP3   OH255602   6.266   5.969   0.748 -0.1915  0.4955  0.5051
11396TIP3    H155603   6.241   5.985   0.839 -1.2392  2.9930 -0.1457
11396TIP3    H255604   6.358   5.995   0.742 -0.1256  0.3344  0.8174
11397TIP3   OH255605   4.622   3.619   3.455 -0.1691  0.4964 -0.3939
11397TIP3    H155606   4.675   3.608   3.376 -0.8212  0.9459 -0.9020
11397TIP3    H255607   4.618   3.531   3.493 -0.7344  0.0484 -1.4447
11398TIP3   OH255608   6.753   4.802   2.850 -0.2963 -0.2086 -0.4178
11398TIP3    H155609   6.730   4.724   2.900 -1.2462  0.3759  0.1014
11398TIP3    H255610   6.788   4.863   2.915 -1.6586  0.6076 -0.3906
11399TIP3   OH255611   4.875   2.595   2.330  0.6195  0.4706 -0.1139
11399TIP3    H155612   4.903   2.548   2.408  1.4595  1.4326  0.1858
11399TIP3    H255613   4.916   2.681   2.338  0.5986  0.6337 -1.5420
11400TIP3   OH255614   5.787   2.802  10.272 -0.6526 -0.4743  0.1215
11400TIP3    H155615   5.882   2.797  10.282 -0.5577 -1.4902 -0.9873
11400TIP3    H255616   5.756   2.845  10.352  0.8176  0.8322  0.0313
11401TIP3   OH255617   1.454   4.844  13.708  0.0599  0.4269  0.1951
11401TIP3    H155618   1.423   4.896  13.634 -0.7614  0.3119  0.4537
11401TIP3    H255619   1.378   4.795  13.738  0.9132 -1.3249 -0.3430
11402TIP3   OH255620   0.147   5.173   3.276 -0.4535 -0.8886  0.2338
11402TIP3    H155621   0.064   5.218   3.260 -0.8238 -1.9887 -1.1581
11402TIP3    H255622   0.152   5.107   3.207  2.1744 -0.0244 -0.5136
11403TIP3   OH255623   6.693   1.785   3.446 -0.5439  0.0922  0.4768
11403TIP3    H155624   6.610   1.746   3.474 -0.4643 -0.1543  0.3719
11403TIP3    H255625   6.729   1.823   3.526 -1.7950  2.1678  0.1412
11404TIP3   OH255626   4.545   4.149  16.080  0.4819  0.0276 -1.3614
11404TIP3    H155627   4.489   4.072  16.086  0.5005  0.1350  1.2340
11404TIP3    H255628   4.485   4.220  16.058 -0.6189  0.2173  1.7560
11405TIP3   OH255629   6.688   4.477   5.550 -0.2856 -0.2947  0.2612
11405TIP3    H155630   6.699   4.570   5.567 -1.8608 -0.1847  0.8885
11405TIP3    H255631   6.595   4.460   5.569  0.1788 -2.1786  1.1082
11406TIP3   OH255632   1.587   5.410  14.072  0.3164  0.1484 -0.2925
11406TIP3    H155633   1.662   5.464  14.045  0.8592 -0.2770  0.3427
11406TIP3    H255634   1.618   5.320  14.065 -0.5102 -0.0914 -1.1123
11407TIP3   OH255635   1.829   2.987  14.132 -0.1582  0.3816  0.5092
11407TIP3    H155636   1.744   2.982  14.175 -0.3383  1.9791  0.4119
11407TIP3    H255637   1.808   3.001  14.040  0.2156  0.5376  0.4454
11408TIP3   OH255638   5.414   4.768   5.676  0.5485 -0.4220 -0.5246
11408TIP3    H155639   5.407   4.673   5.687 -0.4221 -0.2529  0.4515
11408TIP3    H255640   5.423   4.780   5.581  0.4247 -1.4643 -0.6832
11409TIP3   OH255641   4.144   5.140   2.464  0.0573  0.0505  0.2341
11409TIP3    H155642   4.115   5.124   2.374 -1.1964  1.8159  0.2642
11409TIP3    H255643   4.147   5.054   2.504  0.7400 -0.7882 -1.5162
11410TIP3   OH255644   5.580   5.299  16.919 -0.0087 -0.0010 -0.0160
11410TIP3    H155645   5.585   5.206  16.942 -0.4072 -0.3288 -1.1811
11410TIP3    H255646   5.636   5.308  16.842 -1.2244  0.3746 -0.8844
11411TIP3   OH255647   3.231   6.416  16.171 -0.0770 -0.6967  0.5766
11411TIP3    H155648   3.220   6.325  16.143 -0.8742 -0.2101 -0.8038
11411TIP3    H255649   3.325   6.432  16.167  0.0044 -1.2634  0.1420
11412TIP3   OH255650   2.018   3.805  13.426 -0.3616  0.1759  0.3659
11412TIP3    H155651   2.012   3.711  13.412  0.8390  0.0941  0.3418
11412TIP3    H255652   2.001   3.817  13.520  0.6246 -0.1806  0.5935
11413TIP3   OH255653   4.110   0.593  11.481  0.8529  0.0875  0.3193
11413TIP3    H155654   4.071   0.571  11.565  0.5709  0.0198  0.1714
11413TIP3    H255655   4.106   0.688  11.477  0.1829  0.0543  0.0586
11414TIP3   OH255656   3.710   2.366   5.094  0.5710 -0.5196 -0.5938
11414TIP3    H155657   3.797   2.332   5.112  0.4262 -0.7680 -0.3543
11414TIP3    H255658   3.723   2.432   5.026  1.2229  0.8564  0.8014
11415TIP3   OH255659   5.292   0.346  11.891 -0.1517 -0.3472 -0.5395
11415TIP3    H155660   5.220   0.388  11.843 -0.0941  0.8687  0.3927
11415TIP3    H255661   5.254   0.265  11.926 -0.3448 -0.9917 -2.1292
11416TIP3   OH255662   1.488   6.534   0.511 -0.3443 -0.2725  0.1261
11416TIP3    H155663   1.414   6.481   0.540 -0.0082 -0.7837  0.0566
11416TIP3    H255664   1.565   6.488   0.544 -0.1000  0.8970  1.2304
11417TIP3   OH255665   3.978   6.226  14.488 -0.6220  0.2362 -0.3833
11417TIP3    H155666   4.036   6.178  14.546 -1.9896 -0.9724  0.0529
11417TIP3    H255667   4.035   6.286  14.440  0.5314  1.6005  2.4684
11418TIP3   OH255668   4.933   4.803   3.328  0.3313 -0.1810  0.1350
11418TIP3    H155669   4.869   4.849   3.274 -3.0641 -1.7190  2.5028
11418TIP3    H255670   4.953   4.723   3.280 -1.3190 -0.7191  0.2831
11419TIP3   OH255671   2.907   4.182  17.159 -0.2918  0.7107 -0.5328
11419TIP3    H155672   2.921   4.089  17.174 -0.6627  0.6872 -0.3236
11419TIP3    H255673   2.967   4.204  17.088 -0.2839  0.2912 -0.6564
11420TIP3   OH255674   3.461   1.404   2.547  0.0333  0.0880 -0.7442
11420TIP3    H155675   3.424   1.342   2.610 -0.0096 -0.9131 -1.7218
11420TIP3    H255676   3.385   1.449   2.511  0.1289  1.6552  0.8480
11421TIP3   OH255677   4.500   1.371  15.642 -0.0561 -0.2636  0.2089
11421TIP3    H155678   4.424   1.421  15.612 -0.4148 -0.4520  0.7844
11421TIP3    H255679   4.511   1.398  15.733  1.0640  0.3681 -0.0957
11422TIP3   OH255680   3.484   4.821   5.705  0.1705  0.2342  0.1614
11422TIP3    H155681   3.520   4.875   5.775 -0.4546  0.4137  0.3470
11422TIP3    H255682   3.454   4.741   5.748 -0.3426  0.4035  0.1303
11423TIP3   OH255683   0.897   5.386   1.142  0.3862 -0.0204  0.4339
11423TIP3    H155684   0.912   5.320   1.074 -0.1030  1.0509 -0.7663
11423TIP3    H255685   0.983   5.425   1.157 -0.0693  2.7141 -2.8305
11424TIP3   OH255686   1.000   2.327   2.268  0.1877 -0.0934 -0.6240
11424TIP3    H155687   0.944   2.390   2.222 -0.2392  1.3933  1.7568
11424TIP3    H255688   0.958   2.316   2.353  1.6596 -1.6624 -0.0527
11425TIP3   OH255689   5.095   2.312  14.398  0.0488 -0.0484  0.1740
11425TIP3    H155690   5.181   2.280  14.372 -0.3752  0.5440 -2.1688
11425TIP3    H255691   5.105   2.407  14.406 -0.5240  0.1042 -0.7911
11426TIP3   OH255692   2.181   1.088  15.661 -0.6102  0.4674  0.1310
11426TIP3    H155693   2.212   1.008  15.620 -0.5832  0.8597 -0.6330
11426TIP3    H255694   2.168   1.065  15.753  1.4240  0.1300  0.3875
11427TIP3   OH255695   5.960   3.870   5.436  0.1633  0.2214  0.5184
11427TIP3    H155696   6.033   3.814   5.412 -0.3762 -0.7203  1.0377
11427TIP3    H255697   5.882   3.815   5.427 -0.4321  1.0286  0.5598
11428TIP3   OH255698   3.638   4.354  13.318 -0.4223  0.0493  0.0319
11428TIP3    H155699   3.670   4.443  13.301  0.3468  0.0398  1.3596
11428TIP3    H255700   3.694   4.298  13.264 -0.5573  0.3100 -0.3907
11429TIP3   OH255701   2.870   3.397   4.443 -0.1229  0.2096  0.3549
11429TIP3    H155702   2.809   3.435   4.381  0.9936  1.3380 -0.0936
11429TIP3    H255703   2.891   3.311   4.407 -2.0238 -0.5543  0.9429
11430TIP3   OH255704   2.925   0.479  15.506  0.4482 -0.3877  0.1217
11430TIP3    H155705   3.009   0.482  15.460  0.5193  0.0823  0.2795
11430TIP3    H255706   2.929   0.551  15.569  1.2118 -2.2158  2.3268
11431TIP3   OH255707   1.668   2.083   3.783 -0.0065  0.0181  0.2590
11431TIP3    H155708   1.729   2.064   3.711 -1.6404 -0.3898 -1.0891
11431TIP3    H255709   1.692   2.171   3.812  0.0253  0.6468 -1.5355
11432TIP3   OH255710   5.287   0.371  13.815  0.0886  0.2961  0.9893
11432TIP3    H155711   5.196   0.393  13.793  0.9036  1.4939 -1.4654
11432TIP3    H255712   5.299   0.283  13.781  0.7368  1.3777 -1.8610
11433TIP3   OH255713   6.258   4.469  12.650 -0.0032  0.7866 -0.1175
11433TIP3    H155714   6.195   4.421  12.596  1.5756  0.0180 -1.3621
11433TIP3    H255715   6.282   4.407  12.719  0.7592  0.3729 -0.7358
11434TIP3   OH255716   1.760   5.370   4.265 -0.5995  0.2771 -0.3883
11434TIP3    H155717   1.684   5.412   4.226 -1.9642 -0.9344  0.8623
11434TIP3    H255718   1.749   5.381   4.359  0.4731 -0.4249 -0.1512
11435TIP3   OH255719   2.649   1.807  13.933  0.7856  0.4229  0.5347
11435TIP3    H155720   2.604   1.888  13.959  1.3105  0.4215  1.4822
11435TIP3    H255721   2.739   1.818  13.963  0.5332 -1.0976  2.0273
11436TIP3   OH255722   3.197   5.449  16.605 -0.3876 -0.4234  0.3866
11436TIP3    H155723   3.198   5.496  16.521 -0.5474 -0.3984  0.3983
11436TIP3    H255724   3.148   5.507  16.664 -0.6691 -0.6490  0.3755
11437TIP3   OH255725   6.073   2.099   2.731  0.2304  0.0269 -0.5890
11437TIP3    H155726   6.160   2.121   2.763  0.4895 -1.5419 -0.1610
11437TIP3    H255727   6.080   2.106   2.636  0.3310  1.5609 -0.5008
11438TIP3   OH255728   3.367   5.250  14.858  0.2286  0.5676  0.0214
11438TIP3    H155729   3.372   5.213  14.770  0.4769 -0.0439  0.2901
11438TIP3    H255730   3.415   5.333  14.852  0.2559  0.5237 -0.4108
11439TIP3   OH255731   6.415   4.405   3.517 -0.2535  0.9454 -0.1515
11439TIP3    H155732   6.394   4.465   3.589 -2.1620  1.1935 -0.8590
11439TIP3    H255733   6.427   4.463   3.441 -2.5178  0.4797 -0.9344
11440TIP3   OH255734   2.310   2.442  13.844  0.5877  0.0350 -0.2145
11440TIP3    H155735   2.224   2.484  13.848 -0.3754 -1.8085 -0.4890
11440TIP3    H255736   2.365   2.494  13.903 -0.7372  1.1687  0.0766
11441TIP3   OH255737   5.844   0.308  16.823  0.0436 -0.0036  0.3262
11441TIP3    H155738   5.881   0.321  16.736  0.6727  2.3869  0.8796
11441TIP3    H255739   5.784   0.235  16.813  0.0523  0.2456 -2.1226
11442TIP3   OH255740   6.207   4.219  15.815  0.5426 -0.4010 -0.3352
11442TIP3    H155741   6.198   4.158  15.741 -0.8534 -1.0602  0.3369
11442TIP3    H255742   6.137   4.282  15.801 -1.1069 -1.7108  1.4648
11443TIP3   OH255743   6.435   4.447   2.996 -0.0373  0.2705  0.4997
11443TIP3    H155744   6.476   4.414   3.077 -0.1219  1.1681  0.9271
11443TIP3    H255745   6.366   4.506   3.027 -0.8622 -0.3028 -0.2286
11444TIP3   OH255746   0.082   1.025   1.205 -0.3806  0.2494  0.8796
11444TIP3    H155747   0.038   0.965   1.145 -1.6415  1.5993  0.3863
11444TIP3    H255748   0.131   1.084   1.148  0.8578 -0.2668  1.3586
11445TIP3   OH255749   2.684   6.020   4.542 -0.3933 -0.2362  0.3980
11445TIP3    H155750   2.628   5.957   4.587  1.1224 -1.1836  1.0658
11445TIP3    H255751   2.717   6.076   4.612  1.1339 -1.0435  0.3757
11446TIP3   OH255752   0.826   6.761   1.947 -0.5348 -0.3093 -0.5725
11446TIP3    H155753   0.816   6.854   1.928 -0.2145  0.1627  1.3200
11446TIP3    H255754   0.915   6.740   1.916 -0.1068  0.3562  0.1725
11447TIP3   OH255755   5.656   3.438   2.581 -0.1443  0.3606  0.5959
11447TIP3    H155756   5.591   3.374   2.613 -1.8104  0.9498 -1.4027
11447TIP3    H255757   5.739   3.391   2.585 -1.1776 -1.6306  0.0845
11448TIP3   OH255758   1.293   0.711  13.856  0.0705  0.1093  0.0476
11448TIP3    H155759   1.315   0.644  13.790 -0.5327 -0.9835  0.9211
11448TIP3    H255760   1.197   0.715  13.854  0.1148  1.4173 -0.4215
11449TIP3   OH255761   2.519   1.848   2.856 -0.1130 -0.0841 -0.3534
11449TIP3    H155762   2.438   1.894   2.879  0.3891  0.6723 -0.0978
11449TIP3    H255763   2.538   1.794   2.932  1.0314  1.7090  0.6984
11450TIP3   OH255764   4.392   6.682   3.403 -0.0038 -0.0522 -0.6898
11450TIP3    H155765   4.352   6.762   3.371 -1.1855 -0.3028  0.0953
11450TIP3    H255766   4.344   6.612   3.359  0.6277 -0.3424 -0.9280
11451TIP3   OH255767   3.560   5.687   3.237 -0.6026 -0.3593  0.3516
11451TIP3    H155768   3.538   5.595   3.220  2.6759 -0.8819 -2.0097
11451TIP3    H255769   3.492   5.737   3.193 -1.1203 -1.6811 -0.4075
11452TIP3   OH255770   3.983   6.316   6.351 -1.0638 -0.2715 -0.0341
11452TIP3    H155771   3.970   6.221   6.351  2.1309 -0.7898  0.1535
11452TIP3    H255772   4.053   6.332   6.288 -0.7745  1.8510  0.7176
11453TIP3   OH255773   0.265   0.880  13.261 -0.1043  0.0635 -0.1310
11453TIP3    H155774   0.284   0.794  13.225  0.2512  0.1853 -0.2343
11453TIP3    H255775   0.179   0.902  13.225 -0.6271 -0.6472  0.6372
11454TIP3   OH255776   3.679   4.602  12.431 -0.7578 -0.3881 -0.4511
11454TIP3    H155777   3.694   4.546  12.355 -0.4682  0.3759 -0.9746
11454TIP3    H255778   3.654   4.542  12.501 -0.0127 -1.2172 -0.8696
11455TIP3   OH255779   2.641   5.102  16.716 -0.0598  0.1377  0.0228
11455TIP3    H155780   2.707   5.122  16.783 -2.0793 -0.4904  2.3382
11455TIP3    H255781   2.629   5.184  16.669  3.2507 -0.0458 -1.4043
11456TIP3   OH255782   2.668   1.784  11.319 -0.6067 -0.3898 -0.3247
11456TIP3    H155783   2.757   1.751  11.319 -0.8621 -1.3935  2.7279
11456TIP3    H255784   2.649   1.804  11.411 -2.4335  2.9941 -1.2510
11457TIP3   OH255785   0.181   4.586   1.748  0.5318  0.3794 -0.1089
11457TIP3    H155786   0.107   4.587   1.809  0.9090  1.0532  0.3523
11457TIP3    H255787   0.251   4.542   1.797  0.4082 -0.3723 -0.5904
11458TIP3   OH255788   2.701   5.368   4.253 -0.7152  0.0485 -0.1108
11458TIP3    H155789   2.632   5.434   4.266  0.7220  1.9519 -1.4782
11458TIP3    H255790   2.757   5.406   4.186  0.1845 -2.6628 -1.0233
11459TIP3   OH255791   5.945   6.583   0.089 -0.1749  0.1136  0.0849
11459TIP3    H155792   5.958   6.597  -0.005  0.5194 -1.0994 -0.0088
11459TIP3    H255793   5.862   6.534   0.094 -0.1543  0.0807  0.1012
11460TIP3   OH255794   4.015   0.554   5.878 -0.5284 -0.7104  0.4756
11460TIP3    H155795   4.032   0.460   5.882 -0.2118 -0.6628  0.2780
11460TIP3    H255796   4.002   0.580   5.969 -2.9426 -1.3520  0.3923
11461TIP3   OH255797   4.273   3.973  13.235 -0.1443  0.0584 -0.2305
11461TIP3    H155798   4.289   3.901  13.296  2.3500  1.2223  0.6530
11461TIP3    H255799   4.303   3.939  13.151  1.5591  0.1699  0.2823
11462TIP3   OH255800   0.858   5.343  15.332  0.5985  0.7601 -0.6821
11462TIP3    H155801   0.823   5.279  15.394  2.2846  0.3993 -0.0489
11462TIP3    H255802   0.893   5.290  15.260 -1.4635  1.1794 -2.0965
11463TIP3   OH255803   5.863   6.216   3.177  0.0183  0.4911 -0.2387
11463TIP3    H155804   5.823   6.141   3.133  2.1521 -1.3702  0.7944
11463TIP3    H255805   5.840   6.206   3.269  1.1246  0.5166  0.0573
11464TIP3   OH255806   2.639   5.367  14.448 -0.1120  0.0379  0.2550
11464TIP3    H155807   2.592   5.385  14.367  0.1541 -3.8175 -0.9719
11464TIP3    H255808   2.580   5.311  14.499  1.3109 -1.1372  0.7206
11465TIP3   OH255809   1.771   2.641   0.238  0.0149 -0.3889 -0.7318
11465TIP3    H155810   1.803   2.593   0.314  0.0211  1.0386  0.1997
11465TIP3    H255811   1.683   2.671   0.263 -0.5009 -0.9439 -1.7745
11466TIP3   OH255812   4.547   1.969   2.580  0.1162  0.0610 -0.2272
11466TIP3    H155813   4.567   1.923   2.662  0.3280 -1.7461 -1.2225
11466TIP3    H255814   4.627   2.017   2.559 -0.0941  0.9036  0.8365
11467TIP3   OH255815   4.897   0.464  14.435 -0.3167 -0.2076  0.0798
11467TIP3    H155816   4.888   0.454  14.530  1.0448 -1.6573  0.0932
11467TIP3    H255817   4.889   0.375  14.401  0.0341  0.1964 -1.0973
11468TIP3   OH255818   2.266   6.100   1.882  0.0711  0.2961  0.2352
11468TIP3    H155819   2.330   6.040   1.845 -0.0175  0.8305 -0.8105
11468TIP3    H255820   2.288   6.185   1.845  0.1308  0.9125  1.6140
11469TIP3   OH255821   2.140   2.698   3.267 -0.9142 -0.5471  0.3723
11469TIP3    H155822   2.165   2.617   3.312  0.3162 -2.0558 -2.7006
11469TIP3    H255823   2.178   2.689   3.179 -1.2807  3.1236 -0.3185
11470TIP3   OH255824   6.128   3.644  11.401 -0.3013 -0.3082  0.2676
11470TIP3    H155825   6.207   3.687  11.433 -0.1014  0.9797 -1.7660
11470TIP3    H255826   6.122   3.563  11.452  0.5498  1.0466  2.6724
11471TIP3   OH255827   4.780   0.931  11.690  0.1618  0.5759  0.3397
11471TIP3    H155828   4.745   0.995  11.752 -0.9085 -0.5569  0.9538
11471TIP3    H255829   4.844   0.881  11.740  0.8551  1.0376 -0.0813
11472TIP3   OH255830   1.977   0.834   6.253 -0.3219 -0.0200 -1.0677
11472TIP3    H155831   1.990   0.752   6.301  0.7448  0.2658 -0.8561
11472TIP3    H255832   1.931   0.807   6.173 -0.6980 -0.7093 -0.6313
11473TIP3   OH255833   2.903   1.438  11.265 -0.4794 -0.0400 -0.1277
11473TIP3    H155834   2.886   1.344  11.251 -0.2150  0.0859 -1.4006
11473TIP3    H255835   2.845   1.462  11.337 -1.3305 -0.9560 -0.4838
11474TIP3   OH255836   6.540   1.968  13.857  0.4505 -0.5040 -0.5125
11474TIP3    H155837   6.502   1.969  13.944  0.3335 -0.4730 -0.5633
11474TIP3    H255838   6.603   1.896  13.859  0.1859 -0.7368 -0.5149
11475TIP3   OH255839   6.326   1.047   4.826 -0.4695  0.5047  0.5296
11475TIP3    H155840   6.301   1.049   4.733 -0.1998 -0.6015  0.4190
11475TIP3    H255841   6.297   0.961   4.856  4.0541 -1.4481  0.1250
11476TIP3   OH255842   0.955   4.120   4.959 -0.2194  0.3376  0.8738
11476TIP3    H155843   0.994   4.206   4.944 -1.3127  0.7364  0.2215
11476TIP3    H255844   1.030   4.060   4.956  0.1798  0.7332 -3.0429
11477TIP3   OH255845   5.155   5.648   5.273  0.1341 -0.1235  0.2369
11477TIP3    H155846   5.173   5.557   5.296 -0.6653  0.1112  1.9577
11477TIP3    H255847   5.241   5.689   5.267  0.4983 -0.9770 -0.4964
11478TIP3   OH255848   1.828   0.024  10.140 -0.1196  0.4381 -0.3630
11478TIP3    H155849   1.899   0.087  10.128  0.0882  0.1076 -0.9023
11478TIP3    H255850   1.847  -0.018  10.224 -0.1667  0.9736 -0.0851
11479TIP3   OH255851   1.867   0.055  16.424 -0.4246  0.1814  0.2195
11479TIP3    H155852   1.824   0.130  16.382  1.0454  0.7072 -0.4305
11479TIP3    H255853   1.828   0.050  16.511 -1.2016  1.1177 -0.0546
11480TIP3   OH255854   6.463   6.190   0.336 -0.7535  0.3897  0.4898
11480TIP3    H155855   6.501   6.108   0.366 -0.5860 -0.0228 -0.7813
11480TIP3    H255856   6.499   6.203   0.249 -0.7756  1.8293  0.6714
11481TIP3   OH255857   2.676   5.712  15.433 -0.8352 -0.4401  0.4540
11481TIP3    H155858   2.592   5.673  15.409 -1.5301  0.2935  1.6035
11481TIP3    H255859   2.725   5.715  15.350 -1.3825 -2.1398  0.0213
11482TIP3   OH255860   4.989   0.423  11.602  0.2329 -1.0633 -0.5856
11482TIP3    H155861   4.955   0.402  11.515 -1.7377  1.5385 -0.5581
11482TIP3    H255862   5.077   0.457  11.585 -0.4052  0.1187 -1.6691
11483TIP3   OH255863   4.020   0.690   2.416 -0.0346 -0.0568 -0.8899
11483TIP3    H155864   4.045   0.666   2.327  0.7916  1.1395 -1.0003
11483TIP3    H255865   4.000   0.784   2.411 -4.0726 -0.7235 -0.6685
11484TIP3   OH255866   6.605   1.964  11.204  0.3139 -0.2654  0.2355
11484TIP3    H155867   6.645   1.996  11.286  0.2681  0.6690 -0.0943
11484TIP3    H255868   6.550   1.891  11.232 -0.9021  0.9910  1.2797
11485TIP3   OH255869   3.528   2.194   4.542 -0.3131 -0.3026 -0.8395
11485TIP3    H155870   3.583   2.261   4.583 -1.0620 -0.1832  0.0035
11485TIP3    H255871   3.440   2.209   4.579 -1.0025 -0.2487 -2.4397
11486TIP3   OH255872   0.252   2.389   4.516  0.4119  0.6816 -0.6087
11486TIP3    H155873   0.184   2.385   4.448 -1.2825 -0.5860  1.0792
11486TIP3    H255874   0.213   2.440   4.587  1.3459  0.2151  0.2663
11487TIP3   OH255875   1.223   1.904   5.286 -0.2842  0.1917 -0.1097
11487TIP3    H155876   1.303   1.899   5.338  0.2897  0.0852 -0.9770
11487TIP3    H255877   1.190   1.814   5.285  0.2278  0.0005 -0.7126
11488TIP3   OH255878   2.445   3.812   3.632 -0.8360 -0.3363 -0.0125
11488TIP3    H155879   2.513   3.820   3.565 -0.3286 -2.4519  0.1470
11488TIP3    H255880   2.371   3.771   3.586 -1.6335  0.9657  0.0641
11489TIP3   OH255881   5.158   3.739  16.641  0.6094  0.1379 -0.1211
11489TIP3    H155882   5.161   3.811  16.704  0.5022 -2.4820  3.1220
11489TIP3    H255883   5.248   3.709  16.635  0.2605 -1.1547  0.7612
11490TIP3   OH255884   6.686   3.234  15.090  0.2600 -0.7618  0.2600
11490TIP3    H155885   6.780   3.248  15.095 -0.0173  0.8944  2.0067
11490TIP3    H255886   6.674   3.141  15.110  1.4543 -0.7437  1.1275
11491TIP3   OH255887   5.043   3.283  16.778 -0.0288  0.6109 -0.0620
11491TIP3    H155888   5.115   3.273  16.716  1.0357  3.3568  0.5637
11491TIP3    H255889   5.066   3.226  16.851  1.0074  0.6818 -0.3145
11492TIP3   OH255890   6.740   0.766   2.819 -0.0819 -0.1377 -0.2250
11492TIP3    H155891   6.832   0.741   2.826 -0.0561 -0.1046 -0.4325
11492TIP3    H255892   6.740   0.861   2.832 -0.5000 -0.5047  3.5493
11493TIP3   OH255893   2.862   2.078  16.652 -0.5229  0.4526  0.4890
11493TIP3    H155894   2.807   2.079  16.731  0.0937  0.3310  0.9302
11493TIP3    H255895   2.929   2.144  16.670 -0.4647  0.5232  0.0019
11494TIP3   OH255896   5.765   4.347  12.453 -0.0376 -0.4057  0.4506
11494TIP3    H155897   5.671   4.345  12.434 -0.0673  2.3873 -0.2245
11494TIP3    H255898   5.795   4.258  12.438 -2.2915 -1.0301 -0.8819
11495TIP3   OH255899   4.187   5.352  11.970 -0.7884  0.5914 -0.2155
11495TIP3    H155900   4.119   5.396  11.919 -0.4112 -0.5954 -1.8608
11495TIP3    H255901   4.245   5.314  11.903 -1.2767 -2.6172  1.0322
11496TIP3   OH255902   3.793   4.966   3.857 -0.3854 -0.4391 -0.5398
11496TIP3    H155903   3.868   4.910   3.875 -1.4913 -1.6419  0.5836
11496TIP3    H255904   3.824   5.055   3.873  0.6531 -0.9580  0.4398
11497TIP3   OH255905   3.637   4.071   0.847 -0.0743 -0.4772 -0.3604
11497TIP3    H155906   3.710   4.131   0.831 -0.7710  0.3239 -0.6547
11497TIP3    H255907   3.674   4.002   0.902  0.7796  0.1758 -0.0841
11498TIP3   OH255908   6.037   3.215  16.383  0.1682 -0.1159  0.3800
11498TIP3    H155909   5.952   3.255  16.402  0.6518  0.6063  1.1188
11498TIP3    H255910   6.101   3.281  16.411  0.9747 -0.5484 -0.3731
11499TIP3   OH255911   1.824   3.214   2.062  0.1454  0.3615 -0.6205
11499TIP3    H155912   1.816   3.120   2.041 -1.4036  0.2598  0.2677
11499TIP3    H255913   1.901   3.219   2.118 -1.1170 -0.8094  1.3596
11500TIP3   OH255914   2.331   1.589   3.418 -0.6668 -0.1555  0.4709
11500TIP3    H155915   2.397   1.614   3.483 -0.0183  1.4041 -0.7202
11500TIP3    H255916   2.381   1.571   3.339 -1.4392 -2.0568  0.3756
11501TIP3   OH255917   2.784   5.249  15.983  0.0923 -0.2209 -0.2471
11501TIP3    H155918   2.797   5.300  15.903  1.9866 -0.2544 -0.0104
11501TIP3    H255919   2.750   5.311  16.047  0.2222  0.2056 -0.5904
11502TIP3   OH255920   1.348   4.619   1.008  0.0351 -0.4074  0.2536
11502TIP3    H155921   1.403   4.659   1.076 -0.0441  0.1692 -0.0227
11502TIP3    H255922   1.358   4.676   0.932 -1.7312  0.2621  0.4965
11503TIP3   OH255923   3.225   0.941  11.930 -0.2054 -0.0268 -0.4090
11503TIP3    H155924   3.296   0.988  11.887 -1.1220  2.3720  0.5821
11503TIP3    H255925   3.184   1.005  11.988 -1.7722 -1.9554  0.7555
11504TIP3   OH255926   0.206   2.923   4.656  0.1617  0.7254  0.1177
11504TIP3    H155927   0.257   2.921   4.575 -2.0807  0.7826 -1.3781
11504TIP3    H255928   0.135   2.860   4.641 -1.0167  1.6486  1.5530
11505TIP3   OH255929   3.542   6.143   1.799  0.1117 -0.0892  0.0701
11505TIP3    H155930   3.478   6.080   1.835  0.9875 -1.1545 -0.1699
11505TIP3    H255931   3.610   6.148   1.867 -0.7178  1.8885  0.8253
11506TIP3   OH255932   5.764   0.927  14.786 -0.3560  0.0106  0.2330
11506TIP3    H155933   5.850   0.901  14.752 -0.2904  0.5095  0.0159
11506TIP3    H255934   5.728   0.846  14.823 -0.4587 -0.5839 -1.0949
11507TIP3   OH255935   6.281   4.947  16.259 -0.5568 -0.1945 -0.2786
11507TIP3    H155936   6.195   4.988  16.269 -0.6813 -0.2671 -0.9719
11507TIP3    H255937   6.343   5.018  16.272 -0.7799  0.4802 -2.3902
11508TIP3   OH255938   3.945   5.000   0.832 -0.5900  0.6389  0.4810
11508TIP3    H155939   4.025   4.999   0.884 -0.3312 -1.3505  0.1237
11508TIP3    H255940   3.950   4.921   0.778 -1.5844  1.8132 -1.4465
11509TIP3   OH255941   2.484   1.073  14.655  0.3483 -0.0871 -0.1913
11509TIP3    H155942   2.518   1.033  14.574 -0.3021  1.0222 -1.0473
11509TIP3    H255943   2.399   1.109  14.630  0.5245  1.0568  0.7565
11510TIP3   OH255944   5.233   0.539  14.060  0.7303 -0.4567  0.1703
11510TIP3    H155945   5.247   0.475  14.130 -1.0464 -1.7569 -0.5788
11510TIP3    H255946   5.277   0.502  13.984  0.9967 -0.0200  0.1099
11511TIP3   OH255947   0.378   4.315  11.638 -0.5751  0.3267  0.1147
11511TIP3    H155948   0.466   4.283  11.656  0.0067  2.2380  0.9033
11511TIP3    H255949   0.345   4.258  11.569  0.4701 -1.7510  1.2521
11512TIP3   OH255950   3.665   3.859  16.548  0.6006  0.4081 -0.1922
11512TIP3    H155951   3.661   3.882  16.641 -0.2320 -2.5419  0.6177
11512TIP3    H255952   3.592   3.906  16.508 -0.5084 -0.0772  1.1717
11513TIP3   OH255953   0.233   2.930  12.711 -0.5036  0.0065 -0.4997
11513TIP3    H155954   0.323   2.911  12.738  0.2854  0.7686 -2.4344
11513TIP3    H255955   0.180   2.869  12.763  1.0918 -0.4282  0.7318
11514TIP3   OH255956   5.635   3.603   3.804 -0.7105 -0.3980 -0.0325
11514TIP3    H155957   5.646   3.645   3.719 -0.2313  2.0619  1.1586
11514TIP3    H255958   5.717   3.619   3.850 -1.7054  0.2304  1.6400
11515TIP3   OH255959   3.330   3.735   2.514 -0.0704 -0.0883  0.0813
11515TIP3    H155960   3.243   3.776   2.512 -0.1707 -0.2034  1.0861
11515TIP3    H255961   3.386   3.795   2.465 -0.3769  0.8827  0.8532
11516TIP3   OH255962   1.829   2.066  16.425 -0.0885 -0.4036  0.4257
11516TIP3    H155963   1.795   2.003  16.489  0.3866 -0.7944  0.3029
11516TIP3    H255964   1.770   2.141  16.431  0.2304 -0.2297  1.6741
11517TIP3   OH255965   0.821   6.502  14.166  0.0874  0.0374 -0.7471
11517TIP3    H155966   0.839   6.583  14.214 -0.3566  0.1383 -0.7418
11517TIP3    H255967   0.885   6.439  14.199  3.2911  1.4825 -3.7175
11518TIP3   OH255968   2.362   2.764   5.741 -0.1008  0.2378 -1.1386
11518TIP3    H155969   2.328   2.809   5.818 -0.8005 -3.3380  0.8579
11518TIP3    H255970   2.304   2.791   5.669  0.0857  3.0429 -0.3298
11519TIP3   OH255971   1.292   3.703  16.906 -0.1431 -0.0094 -0.0057
11519TIP3    H155972   1.229   3.661  16.847  2.2369 -1.8005 -1.4120
11519TIP3    H255973   1.313   3.636  16.971  0.5486  0.4436  0.2465
11520TIP3   OH255974   5.634   2.955  17.201  0.2103  0.1601  0.5828
11520TIP3    H155975   5.563   2.927  17.259 -1.8299  1.4669 -1.1094
11520TIP3    H255976   5.676   2.874  17.173 -2.0226 -0.8754 -0.0008
11521TIP3   OH255977   0.303   1.176  13.545  0.1016 -0.3516  0.5575
11521TIP3    H155978   0.344   1.093  13.572  2.5226  0.2829 -0.8802
11521TIP3    H255979   0.376   1.235  13.531 -1.4841  1.5339 -0.1854
11522TIP3   OH255980   4.178   1.785   2.837  0.2358  0.4378  0.3212
11522TIP3    H155981   4.166   1.751   2.926  0.0187  0.0568  0.1475
11522TIP3    H255982   4.116   1.735   2.784  0.7344  0.2918 -0.1315
11523TIP3   OH255983   1.971   3.047  13.867  0.1248 -0.1337 -0.0004
11523TIP3    H155984   2.039   2.984  13.841  0.2482 -0.7514  1.6899
11523TIP3    H255985   1.915   3.055  13.790  0.9858 -1.1363 -0.7654
11524TIP3   OH255986   5.046   0.948   1.114 -0.0196  0.5184 -0.0621
11524TIP3    H155987   5.138   0.936   1.091  0.1957  2.7106 -0.5729
11524TIP3    H255988   5.047   0.962   1.209  0.0082 -0.7479  0.1326
11525TIP3   OH255989   6.561   2.870  13.097  0.0658 -0.5035 -0.0120
11525TIP3    H155990   6.471   2.859  13.129  0.9795 -2.8125  2.1216
11525TIP3    H255991   6.580   2.789  13.050  0.4965  0.7272 -2.0611
11526TIP3   OH255992   5.895   4.908  12.677  0.3280  0.4118 -0.1156
11526TIP3    H155993   5.970   4.853  12.654  0.2789  1.0285 -1.8709
11526TIP3    H255994   5.899   4.982  12.617 -1.0754  1.0271  0.4855
11527TIP3   OH255995   5.324   1.670  14.293 -0.1530  0.3026  0.1891
11527TIP3    H155996   5.410   1.643  14.325 -0.1123 -0.6453 -0.6843
11527TIP3    H255997   5.298   1.741  14.352  1.0077  0.2779  0.7617
11528TIP3   OH255998   1.153   2.971   4.147  0.4465  0.2457  0.1238
11528TIP3    H155999   1.062   2.970   4.119  0.6245 -0.0190 -0.4544
11528TIP3    H256000   1.149   2.963   4.242 -0.0607 -2.1647 -0.0423
11529TIP3   OH256001   6.450   6.575   1.595 -0.1346 -0.1869 -0.0809
11529TIP3    H156002   6.406   6.518   1.532  2.4957 -0.6402 -1.7024
11529TIP3    H256003   6.431   6.664   1.564  1.7815 -0.3976 -2.2281
11530TIP3   OH256004   0.700   5.958  12.699 -0.0706 -0.5481  0.3808
11530TIP3    H156005   0.753   6.023  12.746 -0.6485 -0.7466  1.3264
11530TIP3    H256006   0.665   5.902  12.768  1.1933 -2.4838 -0.4826
11531TIP3   OH256007   4.774   1.326   2.364 -0.3955 -0.1309 -0.1320
11531TIP3    H156008   4.695   1.375   2.339 -1.4479 -2.3097 -1.3270
11531TIP3    H256009   4.758   1.300   2.454 -1.0939 -0.6245 -0.3919
11532TIP3   OH256010   5.630   5.781   3.251  0.3050 -0.1193  0.0144
11532TIP3    H156011   5.661   5.824   3.331  3.5040 -1.3849 -0.3921
11532TIP3    H256012   5.552   5.732   3.279  0.0450  1.1782  1.7994
11533TIP3   OH256013   3.450   1.441  16.639  0.3361 -0.1714  0.2696
11533TIP3    H156014   3.392   1.382  16.591  2.7716 -0.7860 -2.1839
11533TIP3    H256015   3.420   1.529  16.615  1.5714 -0.4556 -2.7385
11534TIP3   OH256016   3.165   4.666   4.699  0.8596 -0.4558 -0.4540
11534TIP3    H156017   3.103   4.608   4.655 -0.0918 -0.0464  0.2808
11534TIP3    H256018   3.168   4.744   4.644 -2.6798  1.3607  1.4952
11535TIP3   OH256019   3.583   6.736  16.866 -0.3108  0.4748  0.3999
11535TIP3    H156020   3.554   6.811  16.917 -0.4362 -0.6731  2.1038
11535TIP3    H256021   3.502   6.697  16.832 -0.1540  2.7402 -3.1476
11536TIP3   OH256022   0.018   1.190   2.329  0.3771 -0.2608 -0.6347
11536TIP3    H156023  -0.024   1.107   2.304 -2.2473  0.5279  0.8322
11536TIP3    H256024  -0.030   1.257   2.280  0.7920  0.6131  0.1282
11537TIP3   OH256025   6.225   1.320   2.296  0.0721  0.0921 -0.1033
11537TIP3    H156026   6.237   1.339   2.203 -0.2495  0.8991  0.0130
11537TIP3    H256027   6.289   1.251   2.315  0.3777  0.1651 -0.8344
11538TIP3   OH256028   5.800   5.037   4.041  0.3319 -0.1688  0.0260
11538TIP3    H156029   5.890   5.036   4.073  0.1836 -3.1129  0.6130
11538TIP3    H256030   5.807   5.066   3.950  1.7194  0.4829  0.3085
11539TIP3   OH256031   3.336   1.594   0.424 -0.3170  0.1697 -0.1564
11539TIP3    H156032   3.357   1.611   0.516 -1.3499  0.9317 -0.0409
11539TIP3    H256033   3.246   1.559   0.426  1.0061 -3.7087 -0.5491
11540TIP3   OH256034   6.734   2.523   2.354 -0.2961 -0.0260  0.4610
11540TIP3    H156035   6.717   2.468   2.431 -0.9269  0.3552  0.6022
11540TIP3    H256036   6.724   2.463   2.280 -1.2111 -0.0608  0.6021
11541TIP3   OH256037   2.170   1.207   0.887  0.7933  0.4578  0.7063
11541TIP3    H156038   2.145   1.161   0.967  1.4329 -0.4302  0.4138
11541TIP3    H256039   2.259   1.237   0.904  0.5979  1.0697  0.6636
11542TIP3   OH256040   0.506   0.751   5.860  0.7767  0.1851  0.7277
11542TIP3    H156041   0.546   0.828   5.901  0.9055  0.2466  0.4882
11542TIP3    H256042   0.414   0.755   5.888  0.3108  1.4863 -0.7681
11543TIP3   OH256043   0.021   0.620   4.919  0.3322 -0.5951  0.0936
11543TIP3    H156044   0.002   0.530   4.947  0.1845 -0.1361  1.5699
11543TIP3    H256045   0.003   0.673   4.997  1.0621  0.6388 -0.5521
11544TIP3   OH256046   2.790   0.756   1.777 -0.0243  0.4656  0.3332
11544TIP3    H156047   2.705   0.785   1.743  1.3108  1.9384 -2.0467
11544TIP3    H256048   2.845   0.749   1.699  1.3088 -3.4441  1.3792
11545TIP3   OH256049   6.139   6.175   0.074  0.0610  0.2645 -0.3502
11545TIP3    H156050   6.158   6.266   0.095  1.4203 -0.7171  3.7411
11545TIP3    H256051   6.173   6.126   0.149 -1.9628 -3.5057 -1.6192
11546TIP3   OH256052   6.375   0.394  15.348  0.5649  0.0568 -0.4498
11546TIP3    H156053   6.356   0.475  15.300 -2.1317  0.9573  1.8532
11546TIP3    H256054   6.391   0.423  15.438 -1.8809 -1.9595  0.7507
11547TIP3   OH256055   1.541   2.468   0.096  0.3193  0.1612 -0.0998
11547TIP3    H156056   1.636   2.461   0.096  0.4154  1.2538 -0.3579
11547TIP3    H256057   1.513   2.414   0.022  0.6219 -1.2794  0.8015
11548TIP3   OH256058   0.577   3.794  13.971 -0.2556 -0.4282 -0.8413
11548TIP3    H156059   0.620   3.877  13.948 -0.4240  0.4040  1.6133
11548TIP3    H256060   0.627   3.760  14.044 -1.6289 -1.2719 -0.2561
11549TIP3   OH256061   0.232   2.188   6.056 -0.0070 -0.3746 -0.1990
11549TIP3    H156062   0.203   2.194   6.147 -0.0612 -0.3544 -0.2179
11549TIP3    H256063   0.155   2.213   6.004  0.6330  1.7936 -0.1901
11550TIP3   OH256064   1.045   0.685   1.223  0.8033  0.3673  0.2556
11550TIP3    H156065   0.968   0.629   1.215  1.4187 -0.7421  1.6106
11550TIP3    H256066   1.061   0.718   1.135 -3.1649  3.3855  0.3959
11551TIP3   OH256067   3.870   4.485   5.967 -0.1510 -0.4783 -0.3841
11551TIP3    H156068   3.792   4.497   5.913 -0.5465  1.4751  0.5402
11551TIP3    H256069   3.843   4.422   6.034 -0.1723 -1.6095 -1.4146
11552TIP3   OH256070   6.585   0.407   6.385 -0.1030  0.1456 -0.2144
11552TIP3    H156071   6.518   0.420   6.317 -1.6688  0.1800  1.2706
11552TIP3    H256072   6.644   0.341   6.348 -0.7165  0.3949 -1.7258
11553TIP3   OH256073   5.324   1.430  12.858  0.8652  0.0968  0.0829
11553TIP3    H156074   5.353   1.476  12.937  1.7120  0.5970 -0.5030
11553TIP3    H256075   5.260   1.367  12.890  1.4371  0.0543  1.2146
11554TIP3   OH256076   3.792   0.977   4.376  0.1817  1.0575 -0.5575
11554TIP3    H156077   3.762   1.019   4.457 -0.8977 -0.9603  0.1481
11554TIP3    H256078   3.888   0.977   4.384  0.0873  0.3405  1.0483
11555TIP3   OH256079   1.037   3.301   5.057 -0.4040  0.0593  0.2931
11555TIP3    H156080   1.035   3.344   5.142  1.2568 -1.0687  0.9608
11555TIP3    H256081   0.947   3.272   5.041 -0.8020  0.6115  1.4759
11556TIP3   OH256082   3.254   6.211  14.626 -0.0507 -0.1124 -0.4376
11556TIP3    H156083   3.203   6.239  14.702 -1.0974  0.7259 -1.3913
11556TIP3    H256084   3.242   6.116  14.622 -2.9089  0.1909 -1.4773
11557TIP3   OH256085   0.678   1.337   5.433  0.4784 -0.1130  0.1566
11557TIP3    H156086   0.692   1.265   5.373 -0.7922 -2.0573  2.0389
11557TIP3    H256087   0.766   1.362   5.462  0.9175 -1.0941 -0.3011
11558TIP3   OH256088   1.594   5.279  15.955  0.3348 -0.0752 -0.4313
11558TIP3    H156089   1.669   5.256  15.900  0.2386 -2.5026  0.3575
11558TIP3    H256090   1.631   5.301  16.040  0.2657  0.7811 -0.6094
11559TIP3   OH256091   3.398   6.770   2.320 -0.1075  0.5200  0.1655
11559TIP3    H156092   3.335   6.720   2.268  1.3590  0.3457 -1.5230
11559TIP3    H256093   3.359   6.857   2.328  0.2058  0.9862 -2.4755
11560TIP3   OH256094   0.744   6.519  12.356  0.2408  0.0060  0.0973
11560TIP3    H156095   0.696   6.518  12.273 -0.3389 -1.5722  0.4172
11560TIP3    H256096   0.703   6.589  12.406  0.3726  0.7545 -0.8081
11561TIP3   OH256097   4.541   2.418   3.906 -0.4131  0.5817  0.2960
11561TIP3    H156098   4.540   2.513   3.914  1.3511  0.7961 -1.1548
11561TIP3    H256099   4.481   2.399   3.834 -1.5340  0.4893  1.2451
11562TIP3   OH256100   4.588   3.158   2.433 -1.0021  0.4611 -0.1979
11562TIP3    H156101   4.679   3.148   2.404 -0.5357  1.9527  0.6756
11562TIP3    H256102   4.576   3.088   2.498 -0.2744  0.6446  0.1445
11563TIP3   OH256103   5.421   5.564   1.054  0.3854 -0.0034 -0.1309
11563TIP3    H156104   5.466   5.646   1.075 -0.1829  0.3471 -0.2622
11563TIP3    H256105   5.426   5.558   0.959  2.7559 -1.4736 -0.0074
11564TIP3   OH256106   2.305   5.121   3.287  0.0592  0.0920 -0.3687
11564TIP3    H156107   2.267   5.049   3.238 -3.3532  1.0194  0.6434
11564TIP3    H256108   2.281   5.200   3.238 -0.0259  0.7801  0.7380
11565TIP3   OH256109   5.711   4.706  14.806 -0.5045 -0.3788 -0.4743
11565TIP3    H156110   5.765   4.670  14.736 -1.6535  0.4985 -1.8837
11565TIP3    H256111   5.773   4.744  14.868  0.5765 -1.9317 -0.5585
11566TIP3   OH256112   6.318   5.104  12.245 -0.5827  0.4877 -0.0463
11566TIP3    H156113   6.370   5.130  12.168  0.0618 -1.5254 -0.3388
11566TIP3    H256114   6.281   5.186  12.277  0.7952  1.6568 -1.2949
11567TIP3   OH256115   0.260   3.424  12.538  0.2518  0.0186 -0.2370
11567TIP3    H156116   0.201   3.432  12.462 -0.4380 -1.3688  0.1183
11567TIP3    H256117   0.239   3.500  12.593 -0.0210  0.4387 -0.9043
11568TIP3   OH256118   1.943   3.558   6.457  0.0455  0.2176 -0.0870
11568TIP3    H156119   1.927   3.477   6.410 -0.3798  0.3548 -0.1886
11568TIP3    H256120   2.036   3.556   6.479  0.0525 -0.2571 -0.1575
11569TIP3   OH256121   0.932   3.067  13.681  0.2450  0.1712  0.0831
11569TIP3    H156122   0.950   3.156  13.712  0.7103  0.0321  0.2201
11569TIP3    H256123   1.006   3.046  13.624 -0.4363  0.2991 -0.8770
11570TIP3   OH256124   1.302   6.745  11.449 -0.9216 -0.2040  0.8700
11570TIP3    H156125   1.276   6.826  11.494 -2.1474  0.3266 -0.7080
11570TIP3    H256126   1.229   6.726  11.390  0.0229 -1.6341  0.1086
11571TIP3   OH256127   3.123   0.581  14.186 -0.6703 -0.1940 -0.6529
11571TIP3    H156128   3.035   0.614  14.168 -1.2652 -0.3169  1.6881
11571TIP3    H256129   3.157   0.557  14.100 -1.5326  3.1435 -2.1252
11572TIP3   OH256130   5.531   2.689  10.881 -0.5627  0.0704 -0.0729
11572TIP3    H156131   5.515   2.694  10.975  0.6553  0.0373  0.1514
11572TIP3    H256132   5.495   2.604  10.855 -2.6080  0.8624 -0.0252
11573TIP3   OH256133   6.003   6.103   1.074 -0.2706 -0.2178  0.5558
11573TIP3    H156134   5.913   6.070   1.084 -0.0725 -1.3960 -1.1209
11573TIP3    H256135   6.029   6.127   1.163 -2.2270  0.1377  1.0926
11574TIP3   OH256136   5.894   5.506   1.063 -0.1835 -0.0300  0.1280
11574TIP3    H156137   5.885   5.503   0.968  1.6507  0.2137 -0.0924
11574TIP3    H256138   5.856   5.423   1.094 -2.9424  0.8783 -0.5453
11575TIP3   OH256139   2.986   2.221   4.847  0.0114 -0.2906 -1.0733
11575TIP3    H156140   3.065   2.205   4.795  1.0394 -0.5254  0.5013
11575TIP3    H256141   3.015   2.279   4.917 -1.1341 -0.6616 -0.2675
11576TIP3   OH256142   1.360   3.891   3.762  0.4767  0.0078 -0.0857
11576TIP3    H156143   1.439   3.846   3.731  0.3362  0.2934 -0.8821
11576TIP3    H256144   1.392   3.952   3.829  0.8807 -0.1266 -0.1512
11577TIP3   OH256145   3.899   4.879  16.237 -0.2041 -0.5391 -0.1978
11577TIP3    H156146   3.819   4.917  16.201 -0.8323 -1.9325 -0.3150
11577TIP3    H256147   3.959   4.874  16.162 -0.6941 -1.2719 -0.5508
11578TIP3   OH256148   2.813   4.586  16.833  0.5515 -0.0662 -0.6179
11578TIP3    H156149   2.872   4.512  16.845  0.8732  0.4448  1.1451
11578TIP3    H256150   2.855   4.639  16.766  0.0109 -1.7347 -2.3901
11579TIP3   OH256151   0.031   3.912  13.999 -0.1111 -0.0836 -0.0580
11579TIP3    H156152   0.024   4.004  14.024 -0.3066 -0.1686  0.1962
11579TIP3    H256153   0.120   3.887  14.024  0.2964  0.3093 -1.0369
11580TIP3   OH256154   4.552   2.785   5.607  0.2941 -0.0230 -0.0497
11580TIP3    H156155   4.612   2.713   5.627  0.6298  0.3521  0.3053
11580TIP3    H256156   4.567   2.849   5.676  0.0042  0.3958 -0.3700
11581TIP3   OH256157   0.524   0.714   2.486 -0.1348  0.0489 -0.5405
11581TIP3    H156158   0.447   0.766   2.465  0.1526  0.1358 -1.4085
11581TIP3    H256159   0.489   0.634   2.526 -0.7471 -0.4197 -1.9704
11582TIP3   OH256160   0.898   4.194   3.407  0.1290  0.0985  0.3366
11582TIP3    H156161   0.809   4.167   3.386  0.9137 -1.0226 -1.8231
11582TIP3    H256162   0.948   4.178   3.327  2.4086  0.1345  1.6589
11583TIP3   OH256163   5.453   2.041  13.419  0.4203  0.0106 -0.0176
11583TIP3    H156164   5.435   1.956  13.380 -1.7983  0.8706 -1.0297
11583TIP3    H256165   5.380   2.055  13.479  0.2232  1.5919 -0.5907
11584TIP3   OH256166   5.861   4.865   2.104 -0.3798  0.1695  0.2699
11584TIP3    H156167   5.819   4.951   2.113 -0.8497  0.3149 -2.5432
11584TIP3    H256168   5.897   4.865   2.015  1.8286 -1.6277  1.0755
11585TIP3   OH256169   5.207   1.866   5.734 -0.0088 -0.0575 -0.3356
11585TIP3    H156170   5.244   1.777   5.734 -0.3213 -0.3031  2.3924
11585TIP3    H256171   5.112   1.852   5.735 -0.1128  0.4045 -2.0337
11586TIP3   OH256172   3.950   4.904  15.781  0.3263  0.9470  0.4138
11586TIP3    H156173   3.979   4.837  15.718  2.6834  2.2745 -0.0515
11586TIP3    H256174   3.946   4.984  15.729 -0.4791  1.5497  1.3874
11587TIP3   OH256175   4.642   3.592  11.076  0.2200  0.0861 -0.5040
11587TIP3    H156176   4.648   3.611  11.170 -3.0707  1.1356 -0.3799
11587TIP3    H256177   4.623   3.677  11.036  0.2408 -0.5727 -1.9705
11588TIP3   OH256178   4.255   6.234  16.362 -0.5581  0.2697 -0.0870
11588TIP3    H156179   4.292   6.171  16.424  0.2042 -0.0612 -0.8652
11588TIP3    H256180   4.257   6.317  16.409  0.6832  0.1586  0.0965
11589TIP3   OH256181   2.750   5.979  13.942 -0.9670  0.1136  0.0765
11589TIP3    H156182   2.725   6.020  14.025 -1.8782  1.6165 -0.9137
11589TIP3    H256183   2.685   5.910  13.929 -0.2012 -0.8421  1.0969
11590TIP3   OH256184   1.749   5.455  12.936 -0.3688  0.0671  0.5025
11590TIP3    H156185   1.759   5.541  12.977 -0.7975  0.5661 -0.4245
11590TIP3    H256186   1.807   5.398  12.987 -2.6206  0.1066  3.3551
11591TIP3   OH256187   3.588   5.566  12.000 -0.1863  0.3010 -0.5548
11591TIP3    H156188   3.499   5.578  12.033  0.1932  1.8306  0.0197
11591TIP3    H256189   3.578   5.526  11.914 -1.4543  1.1116 -0.7922
11592TIP3   OH256190   3.709   6.067  12.482  0.2068  0.0023 -0.5339
11592TIP3    H156191   3.621   6.030  12.479 -0.1629  0.8469 -0.4364
11592TIP3    H256192   3.695   6.160  12.496  1.1150  0.1843 -0.7883
11593TIP3   OH256193   1.254   2.633   5.086 -0.1288  0.0479 -0.1138
11593TIP3    H156194   1.172   2.602   5.124 -0.8946  1.7071 -0.3353
11593TIP3    H256195   1.314   2.559   5.096 -1.0224 -0.4727  2.0144
11594TIP3   OH256196   3.475   4.833   1.347  0.0958 -0.2856  0.5301
11594TIP3    H156197   3.438   4.920   1.366 -0.3959  0.0162 -1.5526
11594TIP3    H256198   3.542   4.820   1.414 -0.5313  1.2492  1.5062
11595TIP3   OH256199   5.820   2.943   2.555  1.3651  0.4109 -0.0933
11595TIP3    H156200   5.820   2.906   2.643  0.2056 -0.2178 -0.3358
11595TIP3    H256201   5.741   2.997   2.551 -0.7827 -2.5424 -1.8762
11596TIP3   OH256202   0.931   3.115   3.686  0.0190 -0.1382 -0.2826
11596TIP3    H156203   0.868   3.106   3.614 -0.0251 -0.5062 -0.2005
11596TIP3    H256204   0.971   3.028   3.693 -1.2878 -0.6777  1.3463
11597TIP3   OH256205   0.657   5.970  16.420 -0.2075 -0.3128 -0.5378
11597TIP3    H156206   0.654   6.064  16.435 -0.8065 -0.2849 -0.8237
11597TIP3    H256207   0.708   5.960  16.340  1.1570 -0.3332  0.3050
11598TIP3   OH256208   3.596   5.262  15.386  0.2408 -0.1920 -0.6216
11598TIP3    H156209   3.553   5.251  15.470  5.1781 -1.2990  2.1661
11598TIP3    H256210   3.623   5.354  15.385  0.7762 -0.3471 -0.6428
11599TIP3   OH256211   4.597   5.691  11.223  0.4386 -0.8154  0.0383
11599TIP3    H156212   4.514   5.677  11.269  0.1137  0.5784 -0.0792
11599TIP3    H256213   4.576   5.754  11.155  2.2165  2.3370  2.1339
11600TIP3   OH256214   2.026   3.991  16.492  0.1010 -0.0725  0.1622
11600TIP3    H156215   1.986   3.907  16.470  0.5645  0.2606 -2.1137
11600TIP3    H256216   2.048   4.031  16.408  2.7757  0.9467  1.2209
11601TIP3   OH256217   2.369   5.497  11.651  0.1978 -0.6521 -0.2324
11601TIP3    H156218   2.312   5.465  11.721  0.5776 -0.7846  0.0196
11601TIP3    H256219   2.450   5.447  11.660 -0.2167 -1.6367 -1.6083
11602TIP3   OH256220   6.740   3.092  14.670 -0.1508  0.3993 -0.1320
11602TIP3    H156221   6.758   3.094  14.576 -0.2234  2.4965 -0.1379
11602TIP3    H256222   6.672   3.158  14.684 -1.1160 -0.8197  1.2243
11603TIP3   OH256223   0.831   0.156   4.538  0.2559  0.2091 -0.6338
11603TIP3    H156224   0.911   0.171   4.487  1.7180 -1.6311  0.9850
11603TIP3    H256225   0.771   0.114   4.476  0.8924  0.7012 -1.6071
11604TIP3   OH256226   0.046   1.570   4.923 -0.3523 -0.2036 -0.4032
11604TIP3    H156227   0.099   1.492   4.913 -1.0315 -0.7264 -0.0424
11604TIP3    H256228  -0.003   1.555   5.004 -0.1615  0.7932 -0.0930
11605TIP3   OH256229   5.410   5.657   4.806  0.1238 -0.0080 -0.2757
11605TIP3    H156230   5.461   5.722   4.757 -0.8787  0.0303 -1.3285
11605TIP3    H256231   5.436   5.573   4.768 -1.7329  0.1197 -1.9984
11606TIP3   OH256232   6.605   2.546   0.312 -0.2312 -0.4816 -0.1502
11606TIP3    H156233   6.651   2.601   0.248  0.4240  0.3124  0.9757
11606TIP3    H256234   6.518   2.586   0.320 -0.3042 -0.5648 -0.5139
11607TIP3   OH256235   2.921   6.617   1.138  0.1237 -0.5327 -0.6685
11607TIP3    H156236   2.885   6.598   1.225  1.8865 -1.6238 -0.1035
11607TIP3    H256237   2.898   6.708   1.121 -0.9497 -0.5482  0.5921
11608TIP3   OH256238   0.529   4.953   4.588  0.5093  0.1369 -0.1176
11608TIP3    H156239   0.438   4.981   4.580  0.1546 -1.3720 -2.6122
11608TIP3    H256240   0.580   5.032   4.573 -0.4465  0.5115 -1.6370
11609TIP3   OH256241   4.060   1.994   5.570 -0.3623 -0.3030 -0.3733
11609TIP3    H156242   4.028   2.073   5.526 -0.7025 -1.4829 -2.3326
11609TIP3    H256243   4.120   1.955   5.507 -1.5343 -2.5292 -0.1854
11610TIP3   OH256244   3.406   1.045   2.416  0.5837 -0.6784 -0.1311
11610TIP3    H156245   3.451   1.127   2.394 -0.1818 -0.0412  0.6202
11610TIP3    H256246   3.327   1.047   2.362 -1.5253  1.0919  2.7330
11611TIP3   OH256247   4.763   5.121   0.553 -0.4773  0.4013  0.1409
11611TIP3    H156248   4.790   5.151   0.467  1.4004  0.5215  0.7215
11611TIP3    H256249   4.755   5.025   0.545 -1.4925  0.5191 -0.4334
11612TIP3   OH256250   6.635   1.136   1.304  0.0547  0.5642 -0.2441
11612TIP3    H156251   6.704   1.071   1.292 -1.7171 -1.3957 -0.3042
11612TIP3    H256252   6.614   1.167   1.216 -1.6924 -1.7047 -0.7324
11613TIP3   OH256253   5.618   2.042  10.781 -0.5078 -0.1886  0.1944
11613TIP3    H156254   5.596   1.953  10.754 -1.7462 -0.1071  0.8734
11613TIP3    H256255   5.576   2.098  10.715 -0.4492 -0.0843  0.2459
11614TIP3   OH256256   2.119   0.866   5.092 -0.0109  0.3389  0.0974
11614TIP3    H156257   2.195   0.895   5.142  0.8330 -0.0939 -0.8851
11614TIP3    H256258   2.157   0.819   5.017 -1.2615 -1.3920  0.4899
11615TIP3   OH256259   3.973   2.784  13.647 -0.3508 -0.6585  0.7285
11615TIP3    H156260   3.886   2.825  13.645 -0.1546 -0.2144  1.0723
11615TIP3    H256261   3.998   2.787  13.739  0.1012 -0.6261  0.6034
11616TIP3   OH256262   6.241   2.062   3.155 -0.0141 -0.2341 -0.0416
11616TIP3    H156263   6.273   2.131   3.098 -2.3797  1.3964  0.4602
11616TIP3    H256264   6.208   1.995   3.096 -3.2239  1.8029 -0.8060
11617TIP3   OH256265   4.324   3.046  17.129 -0.3252 -0.1118 -0.2797
11617TIP3    H156266   4.335   3.087  17.215 -0.9487  1.6264 -0.9849
11617TIP3    H256267   4.304   2.955  17.148  0.5985  0.0052  1.3867
11618TIP3   OH256268   1.260   1.430  16.910 -0.0995  0.1187 -0.1141
11618TIP3    H156269   1.262   1.475  16.994 -0.1223 -1.8769  1.0138
11618TIP3    H256270   1.169   1.435  16.882  0.3282  2.8435 -1.2482
11619TIP3   OH256271   3.704   4.222   3.468  0.1819 -0.6675 -0.8355
11619TIP3    H156272   3.753   4.265   3.399 -0.2323 -0.5764 -1.0740
11619TIP3    H256273   3.677   4.138   3.430 -0.4176 -0.4333 -0.9397
11620TIP3   OH256274   2.899   1.509  17.215 -0.6000 -0.0316  0.1897
11620TIP3    H156275   2.905   1.417  17.241 -1.8496 -0.3253 -0.4923
11620TIP3    H256276   2.961   1.517  17.143 -1.7007 -0.7812 -0.8712
11621TIP3   OH256277   0.718   0.310   0.548 -0.5728 -0.3542  0.3327
11621TIP3    H156278   0.760   0.237   0.594 -0.3892  0.1485  0.9830
11621TIP3    H256279   0.754   0.306   0.460  0.1350 -0.5009  0.6175
11622TIP3   OH256280   4.550   4.675   2.485  0.1487  0.1021  0.3327
11622TIP3    H156281   4.634   4.642   2.453  0.4306  0.1392  1.0182
11622TIP3    H256282   4.566   4.767   2.506 -0.3837  0.4354 -0.6627
11623TIP3   OH256283   3.175   2.851  16.602 -0.0462  0.1668  0.5192
11623TIP3    H156284   3.215   2.769  16.631 -1.1740 -0.7838 -0.4990
11623TIP3    H256285   3.220   2.872  16.520 -0.2951  0.1612  0.3824
11624TIP3   OH256286   2.884   3.787  14.586 -0.2078  0.0140 -0.4938
11624TIP3    H156287   2.823   3.844  14.633  0.0219 -0.6449  0.6483
11624TIP3    H256288   2.835   3.706  14.573 -0.1429  0.0663 -1.0795
11625TIP3   OH256289   5.669   5.542   1.719  1.1984  0.2425  0.7455
11625TIP3    H156290   5.579   5.543   1.750  0.7748  0.5672 -0.4141
11625TIP3    H256291   5.721   5.577   1.791  0.6158 -1.4233  2.0119
11626TIP3   OH256292   3.762   5.861   5.484  0.3770 -0.4659  0.2440
11626TIP3    H156293   3.777   5.773   5.519 -1.0499 -0.6661  0.4481
11626TIP3    H256294   3.667   5.864   5.471  0.0238  1.9193  2.6130
11627TIP3   OH256295   0.678   6.074   2.008 -0.6692 -0.4676  0.1388
11627TIP3    H156296   0.682   5.979   2.018  1.6371 -0.5476 -0.9548
11627TIP3    H256297   0.746   6.107   2.067 -0.8986  0.4305 -0.0857
11628TIP3   OH256298   3.917   2.421  10.724  0.0339  0.1838 -0.6551
11628TIP3    H156299   3.989   2.377  10.769 -0.2667  2.1859  2.0571
11628TIP3    H256300   3.952   2.506  10.698 -1.1710  1.0346  0.3579
11629TIP3   OH256301   5.765   4.327  17.240 -0.2103  0.2334  0.3343
11629TIP3    H156302   5.755   4.277  17.320 -0.9425  0.7453  0.5703
11629TIP3    H256303   5.857   4.355  17.241  0.7996 -2.6391 -0.7479
11630TIP3   OH256304   3.615   2.138   5.678  0.0528 -0.1801  0.2495
11630TIP3    H156305   3.583   2.125   5.589  0.1989  0.2014  0.1397
11630TIP3    H256306   3.547   2.100   5.734 -0.5854  0.5821  0.0173
11631TIP3   OH256307   2.209   3.254  15.195  0.0065 -0.2799  0.1082
11631TIP3    H156308   2.223   3.261  15.289  0.8713  1.5684 -0.1214
11631TIP3    H256309   2.175   3.339  15.168 -0.1940 -0.7556 -1.2700
11632TIP3   OH256310   6.222   4.216   1.642 -0.0972  0.2444 -0.0545
11632TIP3    H156311   6.238   4.235   1.735  1.6337  1.3909 -0.5348
11632TIP3    H256312   6.309   4.199   1.606 -0.7605 -0.3410 -1.4480
11633TIP3   OH256313   0.545   4.840   1.021  0.3641 -0.5761  0.4762
11633TIP3    H156314   0.464   4.863   1.066 -0.8617 -0.0149 -1.8273
11633TIP3    H256315   0.541   4.891   0.939  2.1246 -1.9931 -0.5498
11634TIP3   OH256316   0.266   4.041   3.728  0.0526 -0.5402 -0.0800
11634TIP3    H156317   0.172   4.043   3.743  0.1301 -0.2574  0.3832
11634TIP3    H256318   0.296   4.130   3.744  0.5894 -0.9034  1.0678
11635TIP3   OH256319   4.952   6.014   6.458  0.9534 -0.3109  0.5627
11635TIP3    H156320   5.022   5.979   6.403  0.5246  0.4847 -0.5125
11635TIP3    H256321   4.891   6.055   6.397  0.7341  1.0938  1.6640
11636TIP3   OH256322   5.403   4.584   4.860 -0.1177  0.9053  0.2708
11636TIP3    H156323   5.446   4.499   4.873 -1.3138  0.2185 -0.1117
11636TIP3    H256324   5.375   4.583   4.769 -1.4584  1.0783  0.6690
11637TIP3   OH256325   1.456   2.655   0.699  0.3305  0.3127 -0.9604
11637TIP3    H156326   1.485   2.576   0.654  0.3954  0.5510 -1.3386
11637TIP3    H256327   1.537   2.697   0.728  0.3179  0.5105 -1.2171
11638TIP3   OH256328   3.552   6.441  15.039  0.3759  0.0431  0.8470
11638TIP3    H156329   3.603   6.395  15.106  0.8165 -1.5006 -0.4919
11638TIP3    H256330   3.482   6.484  15.088 -0.2544 -2.3080  2.1641
11639TIP3   OH256331   0.921   3.114   3.077  0.1337 -0.3024 -0.2298
11639TIP3    H156332   0.940   3.159   2.995  0.6692  0.0743  0.0928
11639TIP3    H256333   0.973   3.034   3.074  0.8917  0.1599  0.1370
11640TIP3   OH256334   1.857   4.326   3.997  0.2736  0.5233  0.3713
11640TIP3    H156335   1.881   4.330   4.090  0.4307  1.5350  0.2934
11640TIP3    H256336   1.889   4.241   3.968 -0.5881 -0.2104  1.4637
11641TIP3   OH256337   2.220   1.440  14.742 -0.2947 -0.1757  0.1736
11641TIP3    H156338   2.246   1.400  14.659  0.6373  1.9178 -0.6253
11641TIP3    H256339   2.296   1.430  14.799 -1.2412 -2.3784  1.1312
11642TIP3   OH256340   4.598   6.486  14.191  0.3155 -0.6393 -0.7379
11642TIP3    H156341   4.671   6.432  14.160  0.8809 -0.6020  0.4777
11642TIP3    H256342   4.582   6.456  14.280 -0.8255 -0.2848 -0.8055
11643TIP3   OH256343   4.268   0.655   6.265 -0.0320  0.4107 -0.3527
11643TIP3    H156344   4.353   0.665   6.309 -1.1594  2.2808  1.5725
11643TIP3    H256345   4.237   0.744   6.251 -2.3754 -0.2176  0.4243
11644TIP3   OH256346   1.849   6.033  14.381  0.5632 -0.0224  0.0764
11644TIP3    H156347   1.785   6.102  14.397  2.8541  2.0434  0.8579
11644TIP3    H256348   1.829   5.967  14.448 -0.6745  0.5812  0.3434
11645TIP3   OH256349   1.991   5.875  11.330 -0.0605  0.2018 -0.6557
11645TIP3    H156350   1.976   5.966  11.305 -0.2942  0.5064  0.5231
11645TIP3    H256351   1.913   5.851  11.380 -0.1964 -0.7968 -1.3125
11646TIP3   OH256352   2.487   4.802   2.128 -0.4011 -0.0161  0.7824
11646TIP3    H156353   2.486   4.874   2.191 -0.2412  0.0102  0.7538
11646TIP3    H256354   2.494   4.723   2.182 -1.0645 -0.0417  0.8421
11647TIP3   OH256355   4.171   3.534  14.552 -0.2530  0.0577 -0.4732
11647TIP3    H156356   4.146   3.594  14.622  2.6693  0.1491  0.6671
11647TIP3    H256357   4.239   3.478  14.592 -0.0188 -1.3189 -2.6393
11648TIP3   OH256358   4.691   5.371  11.119  0.2643 -0.2604 -0.1808
11648TIP3    H156359   4.630   5.353  11.047 -0.0764  1.1974 -0.2750
11648TIP3    H256360   4.722   5.460  11.103  1.7178 -0.6271  0.3910
11649TIP3   OH256361   3.137   5.561   2.554 -0.3126  0.4634 -0.6910
11649TIP3    H156362   3.095   5.566   2.639  0.8267  0.0993 -0.0745
11649TIP3    H256363   3.141   5.651   2.523  1.3627  0.9522  0.7480
11650TIP3   OH256364   0.083   3.503  15.856  0.0842  0.0757 -0.0966
11650TIP3    H156365   0.056   3.437  15.792 -1.8041 -0.1836  0.8934
11650TIP3    H256366   0.005   3.518  15.909  0.7803  2.3195  0.4060
11651TIP3   OH256367   2.191   0.332   6.029 -0.7537 -0.7028  0.6387
11651TIP3    H156368   2.233   0.337   6.114  2.9066  2.7435 -1.0659
11651TIP3    H256369   2.198   0.240   6.004  0.5432 -1.2916  2.8897
11652TIP3   OH256370   5.187   3.813  13.441 -0.0251 -0.1706 -0.1261
11652TIP3    H156371   5.175   3.864  13.361  0.0936 -0.2201 -0.1761
11652TIP3    H256372   5.266   3.761  13.425 -0.6033 -0.9849 -0.4018
11653TIP3   OH256373   3.545   4.769   3.247 -0.2963  0.0805 -0.0436
11653TIP3    H156374   3.457   4.776   3.283  0.8545  1.7825  2.7403
11653TIP3    H256375   3.559   4.674   3.238 -1.1649 -0.4504  2.9806
11654TIP3   OH256376   4.164   0.752  13.739  0.3424  0.4079 -0.2113
11654TIP3    H156377   4.103   0.760  13.665 -0.8937 -0.6129  0.6639
11654TIP3    H256378   4.239   0.807  13.714  0.4977 -0.7930 -2.7335
11655TIP3   OH256379   4.219   3.241  16.737 -0.5873  0.0335  0.5797
11655TIP3    H156380   4.266   3.159  16.726 -0.6229 -0.3993  3.1070
11655TIP3    H256381   4.252   3.297  16.667  1.5792 -1.1887  0.5406
11656TIP3   OH256382   2.344   5.653  12.357 -0.5273  0.0182 -0.2450
11656TIP3    H156383   2.399   5.635  12.281 -0.0970 -0.3615  0.1492
11656TIP3    H256384   2.271   5.591  12.349  0.0706 -0.7650  0.2072
11657TIP3   OH256385   0.937   0.131  14.045 -0.5221  0.2667 -0.5772
11657TIP3    H156386   0.958   0.108  13.954 -1.8688  2.2860 -1.4701
11657TIP3    H256387   0.850   0.095  14.060 -0.2355 -0.2080  0.0043
11658TIP3   OH256388   5.243   0.083  12.303  0.0888 -0.5712  1.1081
11658TIP3    H156389   5.315   0.033  12.264 -1.1233 -0.6253 -1.2442
11658TIP3    H256390   5.272   0.102  12.392  1.5735 -3.4694  1.3487
11659TIP3   OH256391   1.123   2.920   1.881 -0.1831 -0.0743  0.4285
11659TIP3    H156392   1.137   2.864   1.805 -2.5381 -0.1718 -0.0056
11659TIP3    H256393   1.124   2.860   1.956 -2.6209 -0.7950 -0.0259
11660TIP3   OH256394   5.061   4.671  13.541 -0.2128  0.1210  0.0755
11660TIP3    H156395   5.106   4.753  13.561 -0.3941 -0.0119  1.0594
11660TIP3    H256396   4.971   4.696  13.522  0.2485  0.3981 -1.9809
11661TIP3   OH256397   3.707   1.464   4.934 -0.1921 -0.3447 -0.3737
11661TIP3    H156398   3.644   1.458   4.862 -1.2840 -0.8385  0.5776
11661TIP3    H256399   3.717   1.374   4.965 -0.1537 -0.0818  0.4187
11662TIP3   OH256400   3.482   0.824  14.514  0.0688  0.4585  0.2318
11662TIP3    H156401   3.499   0.737  14.549 -1.4892  0.1351  0.2610
11662TIP3    H256402   3.463   0.809  14.421  0.7423  0.9004  0.0087
11663TIP3   OH256403   1.090   3.832   5.475 -0.0177 -0.2855  0.4772
11663TIP3    H156404   1.062   3.924   5.473  1.1134  0.0713 -0.8123
11663TIP3    H256405   1.137   3.823   5.558  1.0325  0.6992  0.0166
11664TIP3   OH256406   5.936   6.471  16.896 -0.0833  0.2830  0.5777
11664TIP3    H156407   6.030   6.479  16.882  0.0955 -1.4281  0.5300
11664TIP3    H256408   5.908   6.405  16.833 -1.6410  1.9229 -0.5537
11665TIP3   OH256409   6.098   1.962   1.427 -0.2417  0.0897 -0.4148
11665TIP3    H156410   6.127   1.884   1.379 -0.9931 -0.3094 -0.2370
11665TIP3    H256411   6.164   1.974   1.495 -0.9205 -1.3317  0.5421
11666TIP3   OH256412   3.730   4.647  17.038 -0.1863  0.2358  0.1397
11666TIP3    H156413   3.777   4.652  16.955 -0.6554 -0.2805 -0.1612
11666TIP3    H256414   3.782   4.587  17.092  1.8389  2.8706  1.3799
11667TIP3   OH256415   1.483   1.670   0.118 -0.1112  0.1762  0.0707
11667TIP3    H156416   1.420   1.712   0.059 -0.4568  0.9055  0.9307
11667TIP3    H256417   1.485   1.727   0.195  0.8415 -0.3905  0.4825
11668TIP3   OH256418   3.779   4.549   4.150  0.0383 -0.2359  0.0015
11668TIP3    H156419   3.867   4.578   4.171  0.1622 -2.2495  2.8236
11668TIP3    H256420   3.724   4.626   4.163  1.1562  0.5666  0.0290
11669TIP3   OH256421   3.095   6.604   4.090  0.2470 -0.0944 -0.1737
11669TIP3    H156422   3.054   6.565   4.012 -0.2894  0.4527 -0.1661
11669TIP3    H256423   3.163   6.541   4.114 -0.1748 -0.7096 -0.5530
11670TIP3   OH256424   6.401   2.619  16.738 -0.0923 -0.2351 -0.1775
11670TIP3    H156425   6.327   2.666  16.778  0.6255 -0.1509  1.0968
11670TIP3    H256426   6.435   2.680  16.672  0.6194  0.9502  1.2263
11671TIP3   OH256427   2.088   0.690   4.615 -1.0557 -0.4058 -0.0560
11671TIP3    H156428   2.127   0.646   4.690 -3.1274 -0.4804  1.0311
11671TIP3    H256429   2.082   0.782   4.641  1.2761  0.2577 -1.4945
11672TIP3   OH256430   2.268   4.402  13.259  0.6046  0.6323 -0.0593
11672TIP3    H156431   2.354   4.366  13.280  0.9293 -0.5551 -2.9573
11672TIP3    H256432   2.218   4.328  13.224 -0.3656  1.9710 -1.7296
11673TIP3   OH256433   4.706   4.883   4.535  0.5249  0.6869 -1.0081
11673TIP3    H156434   4.802   4.879   4.534  0.8102  2.8068  2.6066
11673TIP3    H256435   4.679   4.791   4.541  2.3907  0.0997 -0.8549
11674TIP3   OH256436   1.946   1.892  12.306  0.0264 -0.7930  0.1163
11674TIP3    H156437   1.858   1.892  12.343  0.0251 -0.1556  0.1377
11674TIP3    H256438   1.996   1.832  12.362  0.8253  2.3952  3.2202
11675TIP3   OH256439   6.393   2.311  14.146 -0.5663  0.0711 -0.3581
11675TIP3    H156440   6.441   2.393  14.152 -0.8858  0.2486 -0.1686
11675TIP3    H256441   6.444   2.249  14.199 -0.8659  0.4172  0.3588
11676TIP3   OH256442   2.650   1.117  12.759 -0.7573 -0.1325 -0.3497
11676TIP3    H156443   2.625   1.042  12.813 -0.5024  0.7049  0.9778
11676TIP3    H256444   2.692   1.178  12.820 -0.6569  0.9556 -1.4586
11677TIP3   OH256445   0.961   1.773   4.943 -0.2862 -0.4357 -0.3603
11677TIP3    H156446   0.903   1.792   4.870 -0.2826 -0.6907 -0.4299
11677TIP3    H256447   0.944   1.681   4.964  1.2628 -1.0055 -1.4332
11678TIP3   OH256448   3.040   1.051  14.283  0.4845 -0.0957 -0.0743
11678TIP3    H156449   3.102   1.025  14.215  0.5578 -1.3381  0.4383
11678TIP3    H256450   3.025   0.971  14.333  0.1559  0.7062  1.1491
11679TIP3   OH256451   2.053   5.863   2.573 -0.1279 -0.3522 -0.7283
11679TIP3    H156452   2.124   5.912   2.613 -1.0779  0.8175 -0.4220
11679TIP3    H256453   2.067   5.773   2.602  0.5243  0.0701  0.3364
11680TIP3   OH256454   5.043   1.136  14.557 -0.4991 -0.0119 -0.2865
11680TIP3    H156455   5.082   1.062  14.509 -0.5373 -0.3951  0.2690
11680TIP3    H256456   4.949   1.123  14.547 -0.5174  0.8046 -1.4600
11681TIP3   OH256457   5.557   1.069   3.282 -0.0316 -0.0133 -0.0220
11681TIP3    H156458   5.472   1.067   3.238  0.0822  1.7930 -0.4045
11681TIP3    H256459   5.539   1.035   3.369 -1.0599 -0.0264 -0.2218
11682TIP3   OH256460   0.784   3.107  12.462 -0.1318  0.2470  0.1131
11682TIP3    H156461   0.740   3.123  12.379  0.2544  2.9196  0.3351
11682TIP3    H256462   0.877   3.113  12.441  0.0451 -1.3627  0.3599
11683TIP3   OH256463   5.533   4.631  16.788  0.0069  0.4782  0.0842
11683TIP3    H156464   5.499   4.714  16.755  1.7717  0.6860 -1.3925
11683TIP3    H256465   5.625   4.631  16.761  0.2440 -1.6113  0.7458
11684TIP3   OH256466   0.417   3.083  14.286  0.3252 -0.0598  0.2500
11684TIP3    H156467   0.376   3.127  14.210  2.1488  0.7007 -0.3494
11684TIP3    H256468   0.433   3.154  14.348 -0.3374 -0.5465  0.9960
11685TIP3   OH256469   4.251   0.118  13.067 -0.1181 -0.3394  0.4984
11685TIP3    H156470   4.245   0.024  13.049  0.9437 -0.2128 -0.7060
11685TIP3    H256471   4.299   0.124  13.149  2.3134 -0.8466 -0.7998
11686TIP3   OH256472   6.727   5.670   2.290  1.0331  0.1953 -0.1219
11686TIP3    H156473   6.671   5.663   2.212  0.0994  0.1136  0.5501
11686TIP3    H256474   6.796   5.731   2.264  0.0627  1.1124 -0.6315
11687TIP3   OH256475   4.769   5.472  16.083 -0.7907 -0.1948 -0.2003
11687TIP3    H156476   4.678   5.497  16.101 -0.6247 -0.3843  0.9389
11687TIP3    H256477   4.794   5.528  16.009 -1.3782  0.8802  0.3803
11688TIP3   OH256478   3.757   5.627   5.676 -0.0748  0.4644 -0.4762
11688TIP3    H156479   3.701   5.554   5.701  0.1277 -0.3525 -2.2615
11688TIP3    H256480   3.832   5.621   5.736 -0.0349 -0.8408 -0.6235
11689TIP3   OH256481   5.118   0.573   1.808 -0.0319 -0.0202  0.0467
11689TIP3    H156482   5.056   0.633   1.849 -0.4158 -0.9746  0.8982
11689TIP3    H256483   5.087   0.564   1.718 -1.5009 -0.9441  0.6119
11690TIP3   OH256484   3.945   4.239   3.025  0.3268 -0.7077  0.2361
11690TIP3    H156485   3.920   4.291   2.948  0.1429 -0.3021  0.5627
11690TIP3    H256486   3.905   4.153   3.010  0.3837 -0.6646 -0.1710
11691TIP3   OH256487   1.249   3.663  12.406  0.5125  0.2390  0.0041
11691TIP3    H156488   1.280   3.706  12.486  1.1484 -1.1390  0.5281
11691TIP3    H256489   1.315   3.597  12.388  0.3710  0.5360 -1.6897
11692TIP3   OH256490   4.319   0.202   3.873 -0.4258 -0.2541  0.5149
11692TIP3    H156491   4.292   0.205   3.781 -1.2290 -3.9166  0.4733
11692TIP3    H256492   4.414   0.198   3.871 -0.4278  0.0202 -0.1557
11693TIP3   OH256493   1.076   4.629  14.033 -0.5340  0.0808  0.2963
11693TIP3    H156494   0.982   4.624  14.015  0.1681 -1.4971 -4.2739
11693TIP3    H256495   1.102   4.538  14.049  0.4532  0.2564 -0.2515
11694TIP3   OH256496   5.445   4.828  11.926  0.2020  1.1473 -0.0845
11694TIP3    H156497   5.424   4.847  12.017 -1.2033  1.3960 -0.4202
11694TIP3    H256498   5.489   4.743  11.928  0.2100  1.1631  0.8194
11695TIP3   OH256499   3.591   4.110   0.156 -0.0992  0.4089  0.2725
11695TIP3    H156500   3.635   4.137   0.236  0.1391 -0.1647  0.3376
11695TIP3    H256501   3.571   4.192   0.111 -1.3340  0.8316  1.4858
11696TIP3   OH256502   6.124   0.246  12.324  0.1083 -0.0116  0.3315
11696TIP3    H156503   6.065   0.297  12.269 -0.6488 -1.5749 -0.3790
11696TIP3    H256504   6.154   0.307  12.391 -1.6730  1.0513  0.2200
11697TIP3   OH256505   5.427   3.885  16.971  0.3280 -0.3396 -0.3035
11697TIP3    H156506   5.472   3.965  16.944 -0.1844  0.0746  0.0518
11697TIP3    H256507   5.497   3.824  16.993  0.7614  0.9388  2.1590
11698TIP3   OH256508   0.169   2.020  15.761 -0.1584  0.1843  0.5278
11698TIP3    H156509   0.114   1.994  15.688 -1.2121  0.0574  1.3480
11698TIP3    H256510   0.219   1.942  15.783  0.0661  0.1860  0.0473
11699TIP3   OH256511   1.026   3.455   5.274 -0.0475  0.3194 -0.4345
11699TIP3    H156512   0.960   3.524   5.265 -0.5244  0.1284  1.2077
11699TIP3    H256513   1.099   3.497   5.319  0.4136  0.1885 -1.0480
11700TIP3   OH256514   1.917   2.517   4.756 -0.3043 -0.4191 -0.1188
11700TIP3    H156515   1.904   2.444   4.695 -1.5009 -0.3845  0.0805
11700TIP3    H256516   1.995   2.492   4.806 -0.6245 -1.5155 -0.1266
11701TIP3   OH256517   6.568   3.071  12.900  0.1688 -1.0029 -0.0203
11701TIP3    H156518   6.580   2.993  12.953 -2.7838 -1.0442  0.7603
11701TIP3    H256519   6.582   3.144  12.960  1.2985 -0.9333 -0.3476
11702TIP3   OH256520   0.083   4.043  15.607 -0.1799  0.2891 -0.0021
11702TIP3    H156521   0.067   3.967  15.663 -1.4659  0.3869 -0.1908
11702TIP3    H256522   0.017   4.036  15.537 -0.0994  1.3778 -0.2172
11703TIP3   OH256523   4.298   1.543  15.595  0.0196  0.1547  0.4295
11703TIP3    H156524   4.288   1.605  15.667  2.1397  0.4225  0.5703
11703TIP3    H256525   4.248   1.580  15.523  0.2562  1.4241  0.8881
11704TIP3   OH256526   2.089   4.051  14.941  0.0109 -0.2702  0.7976
11704TIP3    H156527   2.115   3.967  14.904 -0.2063 -1.1278  2.5017
11704TIP3    H256528   2.044   4.096  14.869  1.6998 -0.8306 -0.6816
11705TIP3   OH256529   4.179   5.510  10.737  0.6163  0.1116  0.5894
11705TIP3    H156530   4.198   5.493  10.829 -0.9617 -2.0457  0.5847
11705TIP3    H256531   4.097   5.560  10.738  0.6411  0.1588  0.3503
11706TIP3   OH256532   2.658   0.452   5.213 -0.1561 -0.2627 -0.0830
11706TIP3    H156533   2.711   0.525   5.244  2.7409 -2.4485  0.5384
11706TIP3    H256534   2.652   0.465   5.118  0.0745  0.8664  0.0378
11707TIP3   OH256535   2.562   1.309   5.037 -0.2183 -0.3516  0.3580
11707TIP3    H156536   2.625   1.304   4.966  1.2993 -0.3131  1.6369
11707TIP3    H256537   2.477   1.300   4.995  0.6616 -1.0142 -1.3685
11708TIP3   OH256538   4.011   4.674  13.954 -0.2461 -0.0472 -0.1038
11708TIP3    H156539   4.087   4.717  13.993 -0.2631  0.6233 -0.7741
11708TIP3    H256540   3.936   4.708  14.003 -0.1261 -0.6807  0.5334
11709TIP3   OH256541   1.264   1.534   0.705  0.2409  0.8201  0.1237
11709TIP3    H156542   1.264   1.499   0.794 -2.0696 -1.8499 -0.7529
11709TIP3    H256543   1.172   1.551   0.686  0.7805  2.2388 -1.4853
11710TIP3   OH256544   2.481   2.335  11.391  0.2132 -0.0686 -0.2975
11710TIP3    H156545   2.440   2.250  11.373 -0.1992 -0.0117  0.3147
11710TIP3    H256546   2.418   2.380  11.449 -0.0164  1.0406 -1.3728
11711TIP3   OH256547   2.801   0.590   4.152 -0.0508  0.1341 -0.0890
11711TIP3    H156548   2.803   0.579   4.247  0.9651 -1.3215 -0.2550
11711TIP3    H256549   2.880   0.546   4.121 -0.3739  0.5802 -1.6183
11712TIP3   OH256550   1.135   3.606  13.592 -0.1406  0.1282  0.5305
11712TIP3    H156551   1.068   3.674  13.602  0.3743  0.7624 -0.1784
11712TIP3    H256552   1.120   3.572  13.503  1.0898  0.9781 -0.0287
11713TIP3   OH256553   1.753   5.657  16.190 -0.3965  0.1431  0.0192
11713TIP3    H156554   1.707   5.574  16.183  1.0835 -0.6920 -0.3558
11713TIP3    H256555   1.846   5.633  16.190  0.0869  1.8369 -0.7095
11714TIP3   OH256556   3.997   6.486   5.481  0.2530  0.0834  0.4506
11714TIP3    H156557   3.967   6.397   5.498  0.3759  0.0504  0.4994
11714TIP3    H256558   3.963   6.508   5.394 -0.0875  0.1243  0.5949
11715TIP3   OH256559   5.559   0.433  11.864  0.3419 -0.2420 -0.0390
11715TIP3    H156560   5.540   0.489  11.789 -2.9257 -0.3248  0.6030
11715TIP3    H256561   5.477   0.386  11.881  1.2271 -0.9135  3.0085
11716TIP3   OH256562   0.812   5.783   3.049  0.3016 -0.6730  0.4875
11716TIP3    H156563   0.759   5.706   3.067 -0.3386 -0.5702 -0.8366
11716TIP3    H256564   0.789   5.808   2.960  0.5760  0.9850  0.8394
11717TIP3   OH256565   4.215   5.572   4.399  0.0881 -0.3294  0.2775
11717TIP3    H156566   4.138   5.562   4.342  0.3892 -2.1607  0.1495
11717TIP3    H256567   4.193   5.523   4.477  1.0369 -0.6500  0.3474
11718TIP3   OH256568   0.086   4.763   3.668 -0.5332  0.4816  0.4420
11718TIP3    H156569   0.008   4.753   3.614 -0.7520 -2.0025  1.1143
11718TIP3    H256570   0.054   4.802   3.750 -1.6754 -2.9030  1.7711
11719TIP3   OH256571   3.813   5.715  16.700 -0.2665 -0.2287 -0.6427
11719TIP3    H156572   3.886   5.655  16.710 -1.0475 -0.8392  3.2455
11719TIP3    H256573   3.852   5.795  16.664  1.2327 -2.1090 -3.5340
11720TIP3   OH256574   4.220   0.036  15.470 -0.3036  0.3621  0.4360
11720TIP3    H156575   4.226  -0.060  15.463 -0.7397  0.3562  0.0558
11720TIP3    H256576   4.301   0.067  15.428 -1.3567  0.2132 -1.8785
11721TIP3   OH256577   5.701   4.804  15.460  0.5960 -0.6803 -0.0855
11721TIP3    H156578   5.654   4.855  15.526  0.3675 -0.7087 -0.2239
11721TIP3    H256579   5.749   4.868  15.409  0.2642 -0.5945 -0.2953
11722TIP3   OH256580   0.624   0.845   3.490 -0.5321  0.2027  0.0002
11722TIP3    H156581   0.589   0.924   3.532  1.6467  1.9247 -1.2260
11722TIP3    H256582   0.695   0.817   3.549  1.2126  1.4671 -1.3846
11723TIP3   OH256583   4.019   0.489   3.112 -0.7670  0.5698  0.3237
11723TIP3    H156584   3.999   0.420   3.048  1.5787  0.1556 -0.0644
11723TIP3    H256585   4.000   0.571   3.065 -0.9879  0.2353 -0.1829
11724TIP3   OH256586   4.845   1.052   3.779  0.4001  0.0756  0.3489
11724TIP3    H156587   4.794   0.983   3.822 -2.5610  1.9321  0.0550
11724TIP3    H256588   4.820   1.046   3.687  0.9958  0.8300  0.1341
11725TIP3   OH256589   0.219   4.058  14.519  0.1920 -0.6581  0.1251
11725TIP3    H156590   0.271   4.111  14.579  1.2142 -1.2953 -0.1801
11725TIP3    H256591   0.217   3.971  14.559 -1.8895 -0.3370  0.8835
11726TIP3   OH256592   4.620   3.816   3.643 -0.1067  0.2454  0.3614
11726TIP3    H156593   4.601   3.744   3.583  0.3845  0.2431  0.2048
11726TIP3    H256594   4.705   3.794   3.681  0.1001  0.7873  0.2351
11727TIP3   OH256595   3.063   0.350  13.579  0.5395 -0.4740 -0.5985
11727TIP3    H156596   3.074   0.260  13.546 -1.9973 -1.4195  0.8148
11727TIP3    H256597   3.074   0.342  13.674 -2.6001  0.0302 -0.0867
11728TIP3   OH256598   2.701   6.761  13.313  0.4464 -0.0901  1.0405
11728TIP3    H156599   2.723   6.712  13.393  0.9649 -0.2736  0.7927
11728TIP3    H256600   2.786   6.786  13.277  0.2020  1.8277  1.6617
11729TIP3   OH256601   1.119   1.871  13.499 -0.0378  0.1371 -0.2629
11729TIP3    H156602   1.155   1.949  13.456 -1.5273  0.6909 -0.5523
11729TIP3    H256603   1.112   1.806  13.429 -1.2090  0.6030 -0.5965
11730TIP3   OH256604   5.443   6.075  15.038  0.4369 -0.3688  0.7866
11730TIP3    H156605   5.418   6.112  15.123  0.4515  1.6602 -0.0347
11730TIP3    H256606   5.370   6.017  15.015 -0.3603  0.3426  1.4415
11731TIP3   OH256607   5.427   0.121  15.930  0.0075 -0.0543  0.0209
11731TIP3    H156608   5.384   0.205  15.949  0.3164  0.4823 -1.5369
11731TIP3    H256609   5.359   0.055  15.947 -0.7856  0.6327 -0.3888
11732TIP3   OH256610   1.574   0.761   0.409 -0.3594  0.4121 -0.2201
11732TIP3    H156611   1.511   0.741   0.478  0.5397 -0.6236  0.3220
11732TIP3    H256612   1.565   0.689   0.347 -0.6339  0.9566 -0.8363
11733TIP3   OH256613   1.155   4.670   1.231  0.2759 -0.0388  0.4095
11733TIP3    H156614   1.151   4.651   1.137 -0.7047 -1.9834  0.7778
11733TIP3    H256615   1.188   4.759   1.237 -0.0689  0.2830 -1.8033
11734TIP3   OH256616   2.782   5.049   3.277  0.2036  0.4251 -0.3256
11734TIP3    H156617   2.693   5.016   3.268  0.3825  0.2075 -1.5674
11734TIP3    H256618   2.834   4.971   3.300  0.1880  0.3996 -0.3767
11735TIP3   OH256619   4.875   0.607   2.044  0.5969 -0.1494 -0.1484
11735TIP3    H156620   4.869   0.591   1.950  1.0435  0.7759 -0.3431
11735TIP3    H256621   4.949   0.667   2.054  0.0453  0.4166  0.7042
11736TIP3   OH256622   5.008   3.420   3.011 -0.0870 -0.0901  0.1512
11736TIP3    H156623   5.047   3.351   3.065 -0.2349 -0.5653 -0.3390
11736TIP3    H256624   5.082   3.457   2.962  0.0455  0.3327  0.6608
11737TIP3   OH256625   5.993   1.880  10.812 -0.0434  0.2111 -0.0448
11737TIP3    H156626   5.945   1.900  10.732 -0.1401  0.8858  0.1773
11737TIP3    H256627   5.983   1.785  10.822  2.3176 -0.3948 -2.3401
11738TIP3   OH256628   6.512   0.729  14.041  0.5004 -0.3731  0.0873
11738TIP3    H156629   6.568   0.746  14.117 -0.6693 -0.8424  1.1021
11738TIP3    H256630   6.572   0.726  13.967  1.8769 -1.1796  1.1684
11739TIP3   OH256631   3.686   0.595   1.800 -0.3514 -0.9415  0.3508
11739TIP3    H156632   3.704   0.514   1.752 -0.3579 -0.5140 -0.3944
11739TIP3    H256633   3.593   0.610   1.788  0.1106  0.6763 -2.0068
11740TIP3   OH256634   3.987   6.622   6.022  0.1249  0.5518  0.3587
11740TIP3    H156635   3.945   6.693   5.975 -0.6635  0.7477  1.3207
11740TIP3    H256636   3.992   6.652   6.112  1.0061 -0.0748  0.5334
11741TIP3   OH256637   5.249   5.216  13.084 -0.0751  0.1904  0.1292
11741TIP3    H156638   5.187   5.162  13.132  0.7787 -0.9545 -0.0302
11741TIP3    H256639   5.298   5.155  13.029  2.7086  0.6997  1.8344
11742TIP3   OH256640   3.361   4.445   3.690  0.2218 -0.3210 -0.1180
11742TIP3    H156641   3.283   4.501   3.696  0.0832 -0.4028 -0.9398
11742TIP3    H256642   3.430   4.495   3.733  0.0608  0.4220 -0.6961
11743TIP3   OH256643   5.919   2.752   4.866  0.4312  0.2662 -0.7157
11743TIP3    H156644   5.997   2.740   4.812  1.0150 -2.0976  0.4994
11743TIP3    H256645   5.928   2.686   4.935 -0.5781  2.6959  1.9352
11744TIP3   OH256646   2.048   2.237   3.038  0.0186  0.2646  0.2719
11744TIP3    H156647   1.956   2.255   3.058 -0.0368 -0.3283  0.5664
11744TIP3    H256648   2.064   2.284   2.956 -0.7969 -0.3727 -0.2707
11745TIP3   OH256649   3.171   0.473  11.333 -0.1586 -0.3036 -0.2080
11745TIP3    H156650   3.230   0.433  11.269 -0.0865 -0.4802 -0.0323
11745TIP3    H256651   3.086   0.472  11.290 -0.3175 -1.3753  0.0969
11746TIP3   OH256652   1.323   1.073  15.994  0.3955  0.2367  0.1994
11746TIP3    H156653   1.249   1.110  16.043  0.3765  1.3910 -0.6614
11746TIP3    H256654   1.356   1.003  16.050 -2.2718 -1.3548 -0.0350
11747TIP3   OH256655   1.149   5.333  15.337  0.2418 -0.3845  0.9174
11747TIP3    H156656   1.230   5.324  15.388  0.8931  0.0658 -0.0196
11747TIP3    H256657   1.116   5.243  15.330  0.3724 -0.5091  1.7578
11748TIP3   OH256658   5.991   4.258  11.902 -0.3094  0.2264 -0.4230
11748TIP3    H156659   6.053   4.186  11.893 -1.4439 -0.5857 -2.3868
11748TIP3    H256660   5.915   4.231  11.850 -0.8327  2.7754 -1.1279
11749TIP3   OH256661   4.359   1.307   0.676  0.4028  0.3965  0.0139
11749TIP3    H156662   4.372   1.258   0.757 -1.0645  0.3814  0.2606
11749TIP3    H256663   4.396   1.250   0.608  3.1404  1.0975  0.7632
11750TIP3   OH256664   2.672   0.738   1.339 -0.2473 -0.6865 -0.4631
11750TIP3    H156665   2.611   0.802   1.305 -0.4156 -1.2763 -1.3018
11750TIP3    H256666   2.621   0.686   1.401  0.0151  0.2781  0.5894
11751TIP3   OH256667   5.414   6.548   0.348 -0.4747 -0.6363 -0.4332
11751TIP3    H156668   5.474   6.595   0.405 -0.6077  1.6815 -2.0840
11751TIP3    H256669   5.390   6.470   0.398  0.8982  0.2949  1.8322
11752TIP3   OH256670   4.923   2.793  11.232 -0.2176 -0.5970  0.0600
11752TIP3    H156671   4.870   2.772  11.155 -0.1525 -0.6616  0.0323
11752TIP3    H256672   4.977   2.868  11.205 -0.7476 -0.1279  0.2913
11753TIP3   OH256673   5.963   3.920  14.101  0.1167  0.9835  0.3967
11753TIP3    H156674   5.926   3.997  14.058  1.4180  1.9900  1.0195
11753TIP3    H256675   5.916   3.915  14.185 -0.4535  0.6746  0.0658
11754TIP3   OH256676   3.311   1.296  13.113 -0.3864 -0.0969  0.1046
11754TIP3    H156677   3.323   1.231  13.044  3.6166 -1.7068  2.0112
11754TIP3    H256678   3.295   1.244  13.192 -5.2633  1.6740  0.6696
11755TIP3   OH256679   5.024   4.983   4.165 -0.0615 -0.7443 -0.1220
11755TIP3    H156680   4.954   4.920   4.180 -2.2523  1.7092  0.7655
11755TIP3    H256681   5.044   4.975   4.071 -1.1159 -1.9236 -0.2688
11756TIP3   OH256682   1.802   4.759   1.811 -0.4389 -0.4271  0.3308
11756TIP3    H156683   1.871   4.782   1.872  0.8466 -1.5459 -0.6357
11756TIP3    H256684   1.757   4.841   1.792  3.5170  1.4188 -2.5197
11757TIP3   OH256685   0.194   0.985   5.703 -0.6338 -0.1854  0.2566
11757TIP3    H156686   0.181   1.056   5.641 -1.9720  0.0778  0.8058
11757TIP3    H256687   0.214   0.909   5.648 -2.3241 -0.0855 -0.5646
11758TIP3   OH256688   4.715   5.847  12.858  0.1638 -0.2834 -0.5404
11758TIP3    H156689   4.760   5.912  12.912 -1.9089  0.1862  0.7141
11758TIP3    H256690   4.635   5.891  12.828 -0.3493 -1.6403 -1.2581
11759TIP3   OH256691   0.537   2.432  16.498  0.4754  0.1987  0.1857
11759TIP3    H156692   0.518   2.507  16.444  0.4649 -1.8473 -2.8948
11759TIP3    H256693   0.459   2.419  16.552 -0.6620  0.7392 -1.2991
11760TIP3   OH256694   6.405   2.368  16.611  0.7763  0.1133  0.9069
11760TIP3    H156695   6.340   2.318  16.660  0.4522 -0.8149 -0.4355
11760TIP3    H256696   6.387   2.459  16.634  1.7882 -0.3396  3.8874
11761TIP3   OH256697   5.980   3.517  12.492 -0.0496 -0.2746 -0.2039
11761TIP3    H156698   5.945   3.429  12.496 -1.2314  0.2066  0.6546
11761TIP3    H256699   6.056   3.516  12.551 -1.9118  0.0256  2.3759
11762TIP3   OH256700   0.674   2.087  15.303  0.6189 -0.2163  0.3940
11762TIP3    H156701   0.737   2.148  15.263 -1.5225  1.1841 -1.0745
11762TIP3    H256702   0.638   2.039  15.228 -2.0706  1.0586  0.7454
11763TIP3   OH256703   4.585   0.451  17.206  0.8383  0.1090 -0.2063
11763TIP3    H156704   4.518   0.519  17.207 -0.1933 -0.8690 -1.0879
11763TIP3    H256705   4.626   0.460  17.120 -0.2753 -1.2832 -0.9145
11764TIP3   OH256706   4.662   6.696   0.918  0.2172  0.3455 -0.0392
11764TIP3    H156707   4.726   6.762   0.891  1.2363 -0.8906 -0.7646
11764TIP3    H256708   4.714   6.616   0.933 -1.0649 -0.5110  0.0072
11765TIP3   OH256709   2.570   3.886  17.271  0.1008  0.7761 -0.7190
11765TIP3    H156710   2.569   3.980  17.251 -4.1224  0.5552 -2.5562
11765TIP3    H256711   2.537   3.844  17.192 -1.4823 -1.9063  1.1913
11766TIP3   OH256712   5.478   4.308  15.815  0.3583 -0.6413 -0.1692
11766TIP3    H156713   5.454   4.373  15.881 -0.5474 -0.2566 -0.8549
11766TIP3    H256714   5.434   4.338  15.735  0.8585 -1.4818 -0.7682
11767TIP3   OH256715   4.353   5.844   5.533  0.0182  0.8859 -0.3465
11767TIP3    H156716   4.268   5.842   5.490  0.6970  0.8243 -1.7853
11767TIP3    H256717   4.389   5.929   5.509  0.5468  0.7129 -0.1799
11768TIP3   OH256718   2.150   3.517   0.919  0.1651  0.3707 -0.3507
11768TIP3    H156719   2.184   3.511   0.830  1.3577  1.9002 -0.0226
11768TIP3    H256720   2.151   3.610   0.939 -0.0726  0.0439  1.2782
11769TIP3   OH256721   5.211   3.261  12.273  0.2312 -0.0111 -0.0251
11769TIP3    H156722   5.129   3.274  12.226 -0.4128  0.3264  1.1335
11769TIP3    H256723   5.269   3.329  12.240  0.3861 -0.8750 -1.5725
11770TIP3   OH256724   3.953   2.516   0.108  0.3537 -0.3187 -0.5231
11770TIP3    H156725   3.867   2.475   0.108 -0.4809  1.3190 -0.9921
11770TIP3    H256726   4.004   2.468   0.043 -0.1028 -1.4798 -0.0390
11771TIP3   OH256727   4.080   3.882   5.577 -0.0751  0.1828 -0.1713
11771TIP3    H156728   4.094   3.877   5.672  1.3425 -1.1692 -0.4122
11771TIP3    H256729   4.124   3.963   5.552  0.2542  0.1360  0.2299
11772TIP3   OH256730   0.737   1.494   2.591 -0.1118  0.6473  0.5461
11772TIP3    H156731   0.679   1.418   2.591 -0.0197  0.5758 -0.3999
11772TIP3    H256732   0.751   1.514   2.499  1.7933  0.3409  0.7399
11773TIP3   OH256733   2.827   2.308  12.815 -0.4051 -0.8390 -0.3417
11773TIP3    H156734   2.835   2.397  12.848 -0.7391 -0.7193 -0.5708
11773TIP3    H256735   2.739   2.305  12.777  0.0887 -0.8551 -1.5348
11774TIP3   OH256736   3.618   3.349   1.075 -0.1308  0.4635 -0.4410
11774TIP3    H156737   3.547   3.408   1.100  1.2277  2.1654 -0.4499
11774TIP3    H256738   3.678   3.403   1.024  0.0568 -1.5046 -2.4567
11775TIP3   OH256739   0.688   6.574  13.117  0.3599  0.0841  0.1108
11775TIP3    H156740   0.675   6.492  13.069 -1.0494 -0.0844  0.7250
11775TIP3    H256741   0.768   6.610  13.081 -0.8411  0.1924 -2.6988
11776TIP3   OH256742   1.055   0.522  15.784 -0.3201 -0.3553  0.1753
11776TIP3    H156743   0.981   0.508  15.843 -2.1931  2.0835 -1.3819
11776TIP3    H256744   1.016   0.532  15.697  1.9906 -0.4318 -0.9542
11777TIP3   OH256745   6.136   0.193   2.120  0.0183 -0.2486 -0.8918
11777TIP3    H156746   6.161   0.206   2.212 -1.0252  0.5635 -0.6911
11777TIP3    H256747   6.078   0.117   2.122 -0.6659  0.2622 -0.7287
11778TIP3   OH256748   5.551   0.204   5.625 -0.2064  0.0061  0.0724
11778TIP3    H156749   5.463   0.238   5.643  0.2158 -0.2035  3.1872
11778TIP3    H256750   5.610   0.273   5.655  0.6278 -1.6332  2.5790
11779TIP3   OH256751   1.531   5.764  14.998  0.2176 -0.5239  0.0793
11779TIP3    H156752   1.613   5.778  15.046 -0.3878  1.9559  0.5379
11779TIP3    H256753   1.462   5.778  15.063 -0.6077 -0.9320 -0.6795
11780TIP3   OH256754   2.079   1.501  15.437 -0.3246 -0.0558 -0.4030
11780TIP3    H156755   2.123   1.436  15.491 -1.7241 -1.1999 -0.5761
11780TIP3    H256756   2.131   1.505  15.357  0.5287  0.0496  0.1431
11781TIP3   OH256757   2.493   3.169  10.238 -0.2108 -0.0958  0.0221
11781TIP3    H156758   2.512   3.075  10.247 -2.3593 -0.4465  1.9114
11781TIP3    H256759   2.577   3.212  10.255  0.6295 -1.6400 -0.0142
11782TIP3   OH256760   4.561   0.306   4.990  0.3101 -0.9419  0.5787
11782TIP3    H156761   4.548   0.287   5.082  1.5086 -1.2490  0.7051
11782TIP3    H256762   4.478   0.344   4.961  0.6287  1.4114  2.3679
11783TIP3   OH256763   1.097   2.608   3.204 -0.2979  0.3574 -0.2879
11783TIP3    H156764   1.001   2.613   3.202 -0.5946 -3.0236 -0.0991
11783TIP3    H256765   1.117   2.517   3.182  2.8890  0.9049 -0.1268
11784TIP3   OH256766   0.410   5.471  11.536 -0.4935 -0.4726 -0.0014
11784TIP3    H156767   0.347   5.541  11.556  1.1927  1.2635 -0.3664
11784TIP3    H256768   0.488   5.496  11.586  0.9508 -0.7452 -2.0176
11785TIP3   OH256769   2.693   5.193   5.156 -0.3710 -0.3949 -0.3121
11785TIP3    H156770   2.707   5.133   5.083  0.5256  0.8599 -1.1957
11785TIP3    H256771   2.770   5.180   5.212  1.1873  1.7325 -1.8215
11786TIP3   OH256772   4.069   3.808  15.923  0.6023 -0.5121 -0.2313
11786TIP3    H156773   4.110   3.883  15.881  0.0688  0.2359  0.5425
11786TIP3    H256774   3.991   3.791  15.872 -0.6284  1.0809  1.0272
11787TIP3   OH256775   5.333   0.672  14.360  0.2592 -0.1374  0.2280
11787TIP3    H156776   5.240   0.661  14.377 -0.0063  0.7822 -0.5151
11787TIP3    H256777   5.337   0.733  14.286  1.3995 -1.5065 -0.9270
11788TIP3   OH256778   2.702   6.194  15.776  0.2162  0.2971  0.1717
11788TIP3    H156779   2.749   6.277  15.774  0.8646 -0.0645 -2.0031
11788TIP3    H256780   2.619   6.211  15.732  1.0987 -0.5565 -1.9603
11789TIP3   OH256781   0.884   3.801   0.070  0.6899  0.1092 -0.5337
11789TIP3    H156782   0.818   3.785   0.137  0.0091  2.3834 -0.5924
11789TIP3    H256783   0.966   3.774   0.112  0.0258 -0.5218  0.4099
11790TIP3   OH256784   2.447   3.771   3.068 -0.0604 -0.4577  0.6856
11790TIP3    H156785   2.484   3.700   3.014 -0.4484  0.0917 -0.3422
11790TIP3    H256786   2.521   3.828   3.087  0.0394 -0.5329  0.5302
11791TIP3   OH256787   4.413   4.287   4.107 -0.3964 -0.2504  0.5561
11791TIP3    H156788   4.328   4.329   4.097  0.7371  2.0949 -0.1282
11791TIP3    H256789   4.394   4.193   4.110 -2.8542  0.0693 -1.4218
11792TIP3   OH256790   5.879   1.260  14.379 -0.1881  0.4302 -0.5899
11792TIP3    H156791   5.966   1.300  14.378 -0.4629  1.0767 -2.4215
11792TIP3    H256792   5.820   1.330  14.407 -0.2083  0.1701  0.0360
11793TIP3   OH256793   3.802   5.252   3.978 -0.2333 -0.7023  0.4092
11793TIP3    H156794   3.775   5.342   3.958  0.7554 -0.9265 -2.2898
11793TIP3    H256795   3.765   5.235   4.065  0.3747  2.6185  1.4382
11794TIP3   OH256796   5.180   6.447   1.633 -0.3003 -0.0161 -0.2806
11794TIP3    H156797   5.214   6.475   1.547  1.0558 -1.0538 -0.1112
11794TIP3    H256798   5.204   6.355   1.639  2.2645  0.7101  2.4268
11795TIP3   OH256799   5.428   3.293   3.082  0.0763  0.3305 -0.4321
11795TIP3    H156800   5.517   3.312   3.052  0.3253  0.9621  0.6752
11795TIP3    H256801   5.380   3.375   3.070 -0.9510 -0.5378 -2.9517
11796TIP3   OH256802   1.496   0.317   1.716 -0.1781 -0.5703  0.8423
11796TIP3    H156803   1.488   0.375   1.640  1.9895 -0.8884  0.3132
11796TIP3    H256804   1.453   0.364   1.786 -0.4826  0.6469 -0.1210
11797TIP3   OH256805   1.452   1.934  14.324 -0.1717  0.3514 -0.0016
11797TIP3    H156806   1.524   1.870  14.327 -1.1327 -0.7172  0.6907
11797TIP3    H256807   1.392   1.899  14.259 -0.5102  0.7808  0.0770
11798TIP3   OH256808   3.103   2.905   6.704  0.0413 -0.0284  0.5179
11798TIP3    H156809   3.089   2.868   6.791  2.8770  0.1257  1.1265
11798TIP3    H256810   3.087   2.999   6.715  1.7888  0.2166  1.3053
11799TIP3   OH256811   1.724   4.044   5.995  0.3517  0.1838 -0.1745
11799TIP3    H156812   1.807   4.030   6.041  0.2504 -2.9788 -0.6744
11799TIP3    H256813   1.659   3.996   6.048 -1.6029  3.7627  1.0247
11800TIP3   OH256814   1.879   0.961  13.665 -0.9288 -0.4722 -0.2948
11800TIP3    H156815   1.911   0.895  13.726 -0.2401  0.7548  0.7068
11800TIP3    H256816   1.924   1.041  13.690 -2.5744  0.6570 -0.7706
11801TIP3   OH256817   1.126   5.128  15.637  0.2573 -0.3330  0.4805
11801TIP3    H156818   1.186   5.202  15.643 -0.8997  0.7365 -0.5956
11801TIP3    H256819   1.106   5.121  15.544 -2.3162  0.2259  0.9243
11802TIP3   OH256820   3.547   0.207  10.907  0.2279  0.4547  0.2251
11802TIP3    H156821   3.543   0.111  10.901 -3.1051  0.5207 -0.7200
11802TIP3    H256822   3.592   0.234  10.827  0.0783 -0.2921 -0.1197
11803TIP3   OH256823   4.841   5.122  16.875  0.4057  0.1427  0.0683
11803TIP3    H156824   4.862   5.139  16.967 -1.6993 -0.3175  0.6920
11803TIP3    H256825   4.904   5.175  16.826  0.0227  2.3524  1.7833
11804TIP3   OH256826   5.595   4.225  13.212 -0.2375 -0.0731 -0.0772
11804TIP3    H156827   5.689   4.206  13.211 -0.4340 -1.1158 -0.2082
11804TIP3    H256828   5.579   4.275  13.133  0.3499  0.8630  0.3808
11805TIP3   OH256829   5.168   0.681   2.896  0.4708 -0.1644 -0.4057
11805TIP3    H156830   5.169   0.639   2.810 -0.7712 -0.9946 -0.0336
11805TIP3    H256831   5.078   0.711   2.907  0.0422 -1.9472  1.4789
11806TIP3   OH256832   2.170   4.029   4.582  0.4000  0.9990 -0.1954
11806TIP3    H156833   2.146   4.062   4.495 -0.7853  0.1219 -0.2214
11806TIP3    H256834   2.130   4.091   4.643  1.4238  1.7471 -0.2372
11807TIP3   OH256835   4.718   4.538  13.123  0.2502 -0.3343 -0.1041
11807TIP3    H156836   4.701   4.576  13.037  0.2467  2.2142  0.9412
11807TIP3    H256837   4.813   4.539  13.131  0.3359 -1.8578 -0.5641
11808TIP3   OH256838   3.893   1.391   1.715 -0.1242 -0.0271  0.1694
11808TIP3    H156839   3.847   1.355   1.640  0.1280  1.3741 -0.6975
11808TIP3    H256840   3.876   1.485   1.711 -0.0920  0.0949  1.8615
11809TIP3   OH256841   0.367   4.618   5.517  0.2406  1.0850  0.0689
11809TIP3    H156842   0.295   4.602   5.577  0.2498  0.1355 -0.1643
11809TIP3    H256843   0.339   4.694   5.466  0.5266  2.3657  1.7028
11810TIP3   OH256844   1.065   1.570   2.449  0.0135  0.4452 -0.8965
11810TIP3    H156845   0.977   1.591   2.418  0.1126 -0.0737 -1.5644
11810TIP3    H256846   1.054   1.491   2.502  0.0059  0.6804 -0.5445
11811TIP3   OH256847   6.494   1.036  16.793 -0.1024 -0.8188 -0.2791
11811TIP3    H156848   6.448   0.955  16.812  0.5720 -0.6027  2.8035
11811TIP3    H256849   6.583   1.009  16.772 -0.8172 -1.0478 -3.5481
11812TIP3   OH256850   4.540   2.830   4.584  0.2342 -0.0953  0.2046
11812TIP3    H156851   4.557   2.847   4.491  0.5837 -1.2948  0.0351
11812TIP3    H256852   4.483   2.753   4.584  0.8053 -0.5269  1.0049
11813TIP3   OH256853   3.844   4.700   0.280 -0.4712 -0.4471  0.8750
11813TIP3    H156854   3.930   4.693   0.239 -1.6073 -1.7206 -1.5245
11813TIP3    H256855   3.849   4.644   0.357  1.3747  0.9949  1.8761
11814TIP3   OH256856   4.036   6.200   1.000 -0.2378  0.4475 -0.3457
11814TIP3    H156857   3.998   6.274   1.048 -1.0971 -1.0437  1.4319
11814TIP3    H256858   4.042   6.130   1.065  0.0442 -1.2206 -2.0680
11815TIP3   OH256859   0.657   4.316  12.420 -0.1492 -0.5634 -0.0719
11815TIP3    H156860   0.662   4.234  12.372 -0.8342 -1.3486  1.1544
11815TIP3    H256861   0.607   4.295  12.500  0.0309  0.9311  0.4727
11816TIP3   OH256862   6.555   2.383   3.129  0.5823  0.2840  0.3485
11816TIP3    H156863   6.468   2.350   3.148  1.2719 -1.9511 -0.0807
11816TIP3    H256864   6.613   2.308   3.144  1.9905  0.5157 -2.9658
11817TIP3   OH256865   6.312   1.469  15.994 -0.0791 -0.1328 -1.5240
11817TIP3    H156866   6.369   1.395  16.014  1.6641  1.6602  0.7547
11817TIP3    H256867   6.261   1.483  16.074  1.7349  2.7947 -0.7093
11818TIP3   OH256868   1.001   2.890   4.943 -0.2532  0.0052  0.1977
11818TIP3    H156869   0.986   2.901   5.037 -0.1591  2.2571  0.0015
11818TIP3    H256870   0.951   2.961   4.902 -2.0026 -2.1492 -1.6612
11819TIP3   OH256871   3.408   4.047   0.453 -0.4660  0.6106  0.0070
11819TIP3    H156872   3.453   4.109   0.396  1.9993 -0.8958  0.1876
11819TIP3    H256873   3.323   4.033   0.410 -0.1671  2.3042 -1.2554
11820TIP3   OH256874   4.538   3.829  13.629 -0.2279  0.0368 -0.2928
11820TIP3    H156875   4.589   3.836  13.710  0.0989  0.6194 -0.5448
11820TIP3    H256876   4.489   3.747  13.639 -0.8408  0.5141  0.8650
11821TIP3   OH256877   1.976   4.876   6.242  0.1871 -0.2290 -0.2733
11821TIP3    H156878   1.941   4.800   6.288 -1.1636 -0.5701 -1.7567
11821TIP3    H256879   1.983   4.944   6.309  0.4701 -1.3547  0.8812
11822TIP3   OH256880   6.447   2.187   3.837 -0.1761 -0.1114 -0.3556
11822TIP3    H156881   6.499   2.236   3.902  1.3898  0.7546 -2.1639
11822TIP3    H256882   6.388   2.252   3.800 -0.5406 -0.4355 -0.3549
11823TIP3   OH256883   5.176   2.703  13.164 -0.2882 -0.0049 -0.5102
11823TIP3    H156884   5.250   2.687  13.106 -1.1993  0.2694 -1.7750
11823TIP3    H256885   5.121   2.625  13.155  0.2527 -0.6175  1.1134
11824TIP3   OH256886   0.876   2.455   5.836  0.4081  0.1298  0.0288
11824TIP3    H156887   0.968   2.449   5.812 -0.2241 -0.2127 -2.5179
11824TIP3    H256888   0.863   2.547   5.858  1.5243  0.0064  1.4207
11825TIP3   OH256889   0.225   5.688  14.719 -0.4154  0.2281  0.1462
11825TIP3    H156890   0.298   5.719  14.665  0.1846 -0.7236  0.4012
11825TIP3    H256891   0.236   5.594  14.724 -1.7629  0.0394  0.0673
11826TIP3   OH256892   1.365   1.149  15.179  0.0539 -0.0173 -0.2424
11826TIP3    H156893   1.448   1.195  15.169 -0.5234  0.9903 -0.5745
11826TIP3    H256894   1.313   1.205  15.236 -0.5618 -0.4041 -0.4067
11827TIP3   OH256895   2.628   4.736  12.661 -0.0471 -0.2465 -0.1884
11827TIP3    H156896   2.569   4.661  12.670 -0.2844  0.0575  1.0282
11827TIP3    H256897   2.692   4.726  12.731  1.6136 -0.7564 -1.7062
11828TIP3   OH256898   0.510   5.068   0.485 -0.0705  0.4665  0.2945
11828TIP3    H156899   0.508   5.084   0.391 -0.4706 -0.4650  0.1315
11828TIP3    H256900   0.555   5.144   0.521 -0.3275  1.0609 -0.5961
11829TIP3   OH256901   0.807   2.021   4.409 -0.2960 -0.8425 -0.1978
11829TIP3    H156902   0.784   2.114   4.414  0.1248 -0.5171 -3.0559
11829TIP3    H256903   0.738   1.977   4.459 -1.3048  0.8828  0.0109
11830TIP3   OH256904   1.071   0.777   6.428  0.0781 -0.7687  0.1782
11830TIP3    H156905   1.017   0.830   6.486  1.2373 -1.4745  1.9987
11830TIP3    H256906   1.116   0.840   6.372 -0.7651 -0.0353  0.3138
11831TIP3   OH256907   5.183   2.089   1.599  0.5443  0.2571 -0.0712
11831TIP3    H156908   5.215   2.145   1.670 -0.0573 -0.4841  0.8104
11831TIP3    H256909   5.262   2.059   1.554  0.9729  0.1953  0.7068
11832TIP3   OH256910   3.627   2.958  12.192 -0.1965  0.0346 -0.4398
11832TIP3    H156911   3.600   3.034  12.141 -0.8069  0.2278  0.1560
11832TIP3    H256912   3.693   2.992  12.253  0.9985 -0.3158 -1.4766
11833TIP3   OH256913   6.641   0.467  11.667 -0.2960 -0.3133  0.0159
11833TIP3    H156914   6.591   0.500  11.741 -0.9269  0.0658 -0.5756
11833TIP3    H256915   6.668   0.546  11.619 -1.2217 -0.6047 -1.0198
11834TIP3   OH256916   3.963   5.133  14.900 -0.2143  0.5457 -0.0489
11834TIP3    H156917   3.967   5.066  14.968  1.9712  0.2368 -0.4068
11834TIP3    H256918   3.875   5.170  14.908 -0.3005 -0.0172  2.4013
11835TIP3   OH256919   3.850   6.163  16.176  0.1583  0.0917 -0.2530
11835TIP3    H156920   3.896   6.183  16.258  0.6116 -0.0056 -0.4769
11835TIP3    H256921   3.820   6.073  16.187  0.8460 -0.1770 -0.4623
11836TIP3   OH256922   3.890   2.480  16.422  0.3689  0.1410 -0.1538
11836TIP3    H156923   3.907   2.569  16.390  2.3865  0.1952  0.9584
11836TIP3    H256924   3.967   2.430  16.396 -0.1096 -0.9471  0.4645
11837TIP3   OH256925   2.366   4.826   6.176  0.5895  0.7036  0.1215
11837TIP3    H156926   2.439   4.782   6.133 -1.0131 -1.7422 -0.2902
11837TIP3    H256927   2.288   4.777   6.149 -1.1879  2.8372  0.9806
11838TIP3   OH256928   1.218   3.877   0.418  0.1169 -0.4302 -0.3815
11838TIP3    H156929   1.182   3.825   0.346 -1.2047 -0.1723  0.0485
11838TIP3    H256930   1.251   3.956   0.376 -1.1937 -0.0070 -0.6828
11839TIP3   OH256931   6.458   1.375   1.284 -0.4664  0.4866 -0.0461
11839TIP3    H156932   6.404   1.406   1.356 -0.5921  0.6986 -0.2308
11839TIP3    H256933   6.418   1.292   1.258  0.6413 -0.5334  1.3146
11840TIP3   OH256934   6.735   1.584   5.189 -0.0422  1.1308  0.3598
11840TIP3    H156935   6.749   1.671   5.225 -0.3143  1.1075  0.5221
11840TIP3    H256936   6.798   1.528   5.235  1.4431  1.5598 -1.0451
11841TIP3   OH256937   6.474   1.737   2.765  0.4104  0.1298  0.6307
11841TIP3    H156938   6.443   1.675   2.698 -0.1774 -2.1708  2.8810
11841TIP3    H256939   6.564   1.756   2.739 -0.3561  0.8415 -1.8042
11842TIP3   OH256940   1.311   0.350   1.040  0.0394 -0.3930 -0.1672
11842TIP3    H156941   1.398   0.388   1.043 -0.1570  0.0903 -0.4057
11842TIP3    H256942   1.265   0.389   1.114  0.7568 -2.5560  1.5402
11843TIP3   OH256943   5.666   5.174   2.367  0.1633 -0.3737  0.6809
11843TIP3    H156944   5.607   5.243   2.337 -2.3798 -1.8786  1.9079
11843TIP3    H256945   5.696   5.205   2.453  1.1845  0.3698  0.0783
11844TIP3   OH256946   6.544   3.717   6.197  0.3514  0.0291  0.1890
11844TIP3    H156947   6.603   3.701   6.123  1.3943  1.2711  0.7095
11844TIP3    H256948   6.584   3.669   6.270  1.6505  2.0690  0.9238
11845TIP3   OH256949   2.455   4.852  12.311  0.0859  1.0114 -0.3157
11845TIP3    H156950   2.473   4.772  12.361 -0.7581  1.0697  0.0952
11845TIP3    H256951   2.447   4.823  12.221  1.2698  0.8513 -0.3949
11846TIP3   OH256952   6.158   3.747  12.389  0.0253  0.2880  0.3593
11846TIP3    H156953   6.112   3.708  12.315 -1.0809  0.9976  0.6501
11846TIP3    H256954   6.202   3.824  12.352 -1.1009  1.0481  0.5431
11847TIP3   OH256955   0.612   5.951   0.937  0.0763  0.6605  0.2540
11847TIP3    H156956   0.554   5.883   0.904  1.0824 -0.0995 -0.0198
11847TIP3    H256957   0.623   6.011   0.863 -0.4777  0.9013  0.3611
11848TIP3   OH256958   4.450   3.011   1.412 -0.6522 -0.3080  0.1285
11848TIP3    H156959   4.430   3.070   1.484  0.1024 -1.2083  1.1013
11848TIP3    H256960   4.398   2.933   1.430  0.9876 -1.2987  0.7876
11849TIP3   OH256961   2.484   5.096   4.067 -0.3194  0.0461  0.2735
11849TIP3    H156962   2.445   5.013   4.095  2.4241 -1.4017  0.1615
11849TIP3    H256963   2.462   5.158   4.136 -4.0181 -0.1304 -0.4978
11850TIP3   OH256964   4.163   0.462   5.332  0.1627 -0.4057 -0.0239
11850TIP3    H156965   4.083   0.462   5.384 -0.1770 -0.6972 -0.5318
11850TIP3    H256966   4.178   0.554   5.311  1.1801 -0.0916  1.8867
11851TIP3   OH256967   4.126   3.502  16.855 -0.0160  0.2564 -0.3072
11851TIP3    H156968   4.159   3.421  16.815  0.9080  0.3880  0.1825
11851TIP3    H256969   4.064   3.471  16.922  0.6905 -0.0720  0.2051
11852TIP3   OH256970   6.501   5.151   2.338 -0.4835 -0.7723  0.4716
11852TIP3    H156971   6.533   5.063   2.357  0.1744  0.1024  4.1153
11852TIP3    H256972   6.416   5.156   2.381 -0.7381  0.2345 -0.1159
11853TIP3   OH256973   5.526   4.781   1.243  0.5209 -0.3681  0.2589
11853TIP3    H156974   5.569   4.733   1.314  0.4788 -0.1572  0.4276
11853TIP3    H256975   5.434   4.787   1.271 -0.0566 -2.4632 -0.9558
11854TIP3   OH256976   5.603   4.229   1.531  0.2473 -0.4130 -0.3439
11854TIP3    H156977   5.522   4.197   1.571 -0.4112 -1.0155 -2.0713
11854TIP3    H256978   5.605   4.187   1.445  2.4438 -0.4615 -0.3146
11855TIP3   OH256979   5.840   0.768  12.038  0.6222  0.7219 -0.0265
11855TIP3    H156980   5.834   0.672  12.038  0.5748  0.6787  2.1366
11855TIP3    H256981   5.761   0.797  11.991 -0.9207 -0.2904  1.8290
11856TIP3   OH256982   2.192   0.170   0.437 -0.1917 -0.2008  0.3958
11856TIP3    H156983   2.166   0.260   0.414  1.0619 -0.0304 -0.4361
11856TIP3    H256984   2.285   0.176   0.458 -0.1666 -1.2553  0.6435
11857TIP3   OH256985   2.113   4.720   3.518 -0.0370 -0.0547  0.0326
11857TIP3    H156986   2.117   4.802   3.566  0.2109  0.5010 -0.9017
11857TIP3    H256987   2.032   4.726   3.467  0.6551  0.2258 -1.0749
11858TIP3   OH256988   4.471   2.445   2.197 -0.3020 -0.3965  0.1105
11858TIP3    H156989   4.467   2.479   2.287  0.2655 -0.9986  0.3697
11858TIP3    H256990   4.563   2.454   2.172 -0.5679  0.3438 -0.6510
11859TIP3   OH256991   3.485   1.277  15.425  0.2251  0.1088  0.0842
11859TIP3    H156992   3.443   1.222  15.490 -0.5615  0.6350  0.0380
11859TIP3    H256993   3.414   1.334  15.393  1.2365  1.9792  1.0017
11860TIP3   OH256994   0.252   2.478   0.275 -0.4577  0.4244 -0.2348
11860TIP3    H156995   0.285   2.478   0.185 -3.4831 -1.8809 -1.5283
11860TIP3    H256996   0.243   2.571   0.298  2.3933  1.0896 -1.3977
11861TIP3   OH256997   4.422   3.991  11.779  0.2790 -0.3549 -0.3692
11861TIP3    H156998   4.335   3.951  11.777 -0.6717  1.6166 -1.3047
11861TIP3    H256999   4.423   4.041  11.860  0.4755 -0.2535 -0.4347
11862TIP3   OH257000   0.070   2.661   4.568  0.2077  0.0804  0.6058
11862TIP3    H157001  -0.012   2.615   4.587  0.7210 -0.4400  1.6481
11862TIP3    H257002   0.135   2.617   4.623  1.0934  0.7874  0.1375
11863TIP3   OH257003   3.653   3.025   0.078  0.2124 -0.9675  0.1386
11863TIP3    H157004   3.612   2.945   0.112 -2.6798  0.9151  1.4449
11863TIP3    H257005   3.703   3.059   0.152 -0.1180 -0.5966  0.1929
11864TIP3   OH257006   5.128   5.304   3.951  0.0993 -0.1917  0.0393
11864TIP3    H157007   5.052   5.277   3.900 -0.8521  1.0308  0.7452
11864TIP3    H257008   5.193   5.331   3.886 -1.1966  1.6075 -0.5952
11865TIP3   OH257009   2.312   4.348   2.394 -0.9506  0.1106  0.0622
11865TIP3    H157010   2.297   4.270   2.447  1.0232  0.5199  1.3346
11865TIP3    H257011   2.407   4.360   2.396 -1.0113  1.3554 -1.8778
11866TIP3   OH257012   3.559   1.680  12.769  0.0576 -0.9411 -0.6078
11866TIP3    H157013   3.563   1.733  12.689 -1.2174  0.3834  0.1709
11866TIP3    H257014   3.466   1.676  12.791  0.4040 -1.1322  0.9086
11867TIP3   OH257015   4.816   1.042  12.041 -0.5375 -0.9790 -0.6677
11867TIP3    H157016   4.805   1.082  12.127  2.5070  0.1618 -0.6924
11867TIP3    H257017   4.756   1.090  11.984 -0.5284  0.2115  0.2854
11868TIP3   OH257018   5.995   0.741  13.690  0.2706  0.2923 -0.5445
11868TIP3    H157019   5.940   0.669  13.721 -0.0716 -0.1091 -2.0076
11868TIP3    H257020   6.084   0.714  13.714  0.0333 -0.0165  0.0233
11869TIP3   OH257021   0.120   4.857  15.434  0.0487 -0.0849 -0.5843
11869TIP3    H157022   0.136   4.857  15.339  1.7440 -2.4340 -0.4025
11869TIP3    H257023   0.050   4.921  15.447  0.1390  0.7015 -3.3448
11870TIP3   OH257024   4.457   5.654   4.325 -0.1205  0.5206  0.1824
11870TIP3    H157025   4.372   5.612   4.342 -0.7037  2.3019  2.2093
11870TIP3    H257026   4.489   5.613   4.245 -1.4681 -2.3824  0.9933
11871TIP3   OH257027   2.134   5.875   0.338 -0.7683 -0.3232  0.5657
11871TIP3    H157028   2.052   5.925   0.341 -1.3755 -1.3387  1.4396
11871TIP3    H257029   2.108   5.788   0.310  0.1912 -0.3534 -0.2840
11872TIP3   OH257030   2.729   1.852   3.524  0.1358 -0.0129  0.4718
11872TIP3    H157031   2.757   1.865   3.434 -3.2038  0.3590 -0.6830
11872TIP3    H257032   2.676   1.930   3.544  2.0006  0.6763  3.3989
11873TIP3   OH257033   0.989   2.226  12.633 -0.1722 -0.3765 -0.5372
11873TIP3    H157034   0.911   2.172  12.617 -0.6295  0.1851 -0.2631
11873TIP3    H257035   1.046   2.171  12.687 -0.5521 -0.6504 -0.4102
11874TIP3   OH257036   0.831   5.994   1.655 -0.1614  0.5176  0.1843
11874TIP3    H157037   0.853   5.901   1.649 -2.2293  0.0494 -2.4459
11874TIP3    H257038   0.809   6.019   1.565 -3.3899  2.5144  1.3476
11875TIP3   OH257039   1.479   6.659  16.009 -0.4316 -0.4890 -0.1390
11875TIP3    H157040   1.528   6.728  15.963  0.3551 -0.2138  1.0600
11875TIP3    H257041   1.389   6.692  16.012 -0.1820  0.2225 -0.1228
11876TIP3   OH257042   3.158   4.076   0.725 -0.2046  0.1721  0.1729
11876TIP3    H157043   3.242   4.076   0.773  0.2594  0.9422 -0.6185
11876TIP3    H257044   3.117   4.158   0.750 -1.0632 -0.5185  1.1036
11877TIP3   OH257045   0.984   2.967   6.565  0.3331 -0.0017  0.0898
11877TIP3    H157046   0.948   2.944   6.479 -0.5376  0.9380  0.1868
11877TIP3    H257047   0.979   2.885   6.615 -0.3050 -0.2520 -0.3618
11878TIP3   OH257048   1.422   0.935   4.698  0.0887 -0.2240 -0.0282
11878TIP3    H157049   1.338   0.940   4.651 -0.0260 -0.6482  0.1280
11878TIP3    H257050   1.478   0.997   4.652 -0.2367 -0.1171 -0.2901
11879TIP3   OH257051   6.568   2.652  16.433  0.1218  0.2349 -0.1604
11879TIP3    H157052   6.625   2.575  16.431 -0.9710 -0.5767 -0.7334
11879TIP3    H257053   6.592   2.702  16.354  1.8023  1.2426  0.9241
11880TIP3   OH257054   3.529   5.300   2.794  0.0937  0.3686  0.0231
11880TIP3    H157055   3.514   5.277   2.702 -0.1228 -1.3855  0.4668
11880TIP3    H257056   3.583   5.379   2.790 -1.1137  1.1716 -1.6013
11881TIP3   OH257057   0.916   5.880   2.292 -0.3051  0.4260  0.6949
11881TIP3    H157058   0.839   5.925   2.257 -0.7691 -0.2716  0.8051
11881TIP3    H257059   0.958   5.945   2.349 -1.8211  0.2559  2.0894
11882TIP3   OH257060   0.537   6.275   6.270 -0.3557  0.7136  0.6463
11882TIP3    H157061   0.471   6.207   6.278  0.1964  0.3213  2.2948
11882TIP3    H257062   0.612   6.242   6.319  0.9072  1.3621 -0.7595
11883TIP3   OH257063   5.717   0.862   4.210  0.1209  0.5385 -0.2125
11883TIP3    H157064   5.751   0.775   4.191 -0.6713  0.0000  0.7815
11883TIP3    H257065   5.755   0.918   4.142  2.4284 -0.1516  0.4253
11884TIP3   OH257066   2.799   1.598  10.555  0.4429  0.5849  0.2451
11884TIP3    H157067   2.866   1.665  10.545  0.0900  0.8785 -0.2553
11884TIP3    H257068   2.764   1.586  10.466 -0.6953  0.9999  0.6230
11885TIP3   OH257069   6.427   1.945   5.514 -0.3232 -0.8204 -0.5231
11885TIP3    H157070   6.468   2.013   5.567  1.6993 -2.3816  0.0307
11885TIP3    H257071   6.338   1.939   5.547 -0.2787  0.9085  0.0189
11886TIP3   OH257072   1.824   6.103  13.501 -0.3260 -0.2672  0.0068
11886TIP3    H157073   1.759   6.088  13.570  1.4684 -2.9256  1.2889
11886TIP3    H257074   1.875   6.177  13.532 -1.7326  0.8563 -0.2675
11887TIP3   OH257075   1.590   5.705   4.743 -0.2284  0.3121 -0.7508
11887TIP3    H157076   1.577   5.749   4.827 -1.4702  0.9131 -1.2370
11887TIP3    H257077   1.502   5.697   4.706 -0.0989 -2.6767 -0.6580
11888TIP3   OH257078   6.715   3.963  12.102  0.6123 -0.3048 -0.0989
11888TIP3    H157079   6.801   3.948  12.140  1.6465  0.6559 -1.9332
11888TIP3    H257080   6.717   4.055  12.074 -1.4118  0.0614  0.7619
11889TIP3   OH257081   5.071   6.641   4.491  0.0753 -0.0979  0.0969
11889TIP3    H157082   5.064   6.628   4.396  2.1249  0.2438 -0.1598
11889TIP3    H257083   5.029   6.565   4.529  0.6826 -1.0936 -1.1327
11890TIP3   OH257084   1.367   1.693  15.570  0.3896 -0.5868  0.3190
11890TIP3    H157085   1.334   1.604  15.559 -2.8044  0.3511  1.3153
11890TIP3    H257086   1.372   1.728  15.481 -1.0731 -0.8805  0.1102
11891TIP3   OH257087   4.172   2.912  11.440  0.0548 -0.0627  0.0806
11891TIP3    H157088   4.122   2.966  11.500 -0.1192  2.2926 -2.0084
11891TIP3    H257089   4.137   2.824  11.451 -1.2538  0.6496  2.0174
11892TIP3   OH257090   1.335   2.881   0.487  0.0225 -0.2046  0.2905
11892TIP3    H157091   1.283   2.958   0.467  1.6286  0.3911 -1.9462
11892TIP3    H257092   1.315   2.862   0.579 -0.1688  3.0681  1.0421
11893TIP3   OH257093   1.070   5.333   3.567  0.5071  0.1469 -0.0424
11893TIP3    H157094   0.981   5.312   3.593  0.2994 -0.7722 -1.3984
11893TIP3    H257095   1.122   5.259   3.598  0.4004 -0.5027 -1.3691
11894TIP3   OH257096   1.983   2.824   5.813 -0.5558  0.1315  0.3571
11894TIP3    H157097   1.947   2.878   5.883 -0.8883  0.2955  0.0622
11894TIP3    H257098   2.074   2.807   5.840 -0.0677  1.8063 -0.1026
11895TIP3   OH257099   5.573   5.256   0.076 -0.3103  0.3271  0.2465
11895TIP3    H157100   5.492   5.291   0.041  0.1634  2.1656  0.9007
11895TIP3    H257101   5.549   5.223   0.163 -0.5305 -0.0126  0.0617
11896TIP3   OH257102   3.010   4.698   3.340  1.0120 -0.3618 -0.3639
11896TIP3    H157103   2.988   4.742   3.423 -0.3781  1.2433 -1.5095
11896TIP3    H257104   2.925   4.675   3.302  1.6100 -0.7219 -1.5159
11897TIP3   OH257105   4.917   3.823  13.573 -0.7052  0.1077  0.0784
11897TIP3    H157106   5.003   3.782  13.561 -0.0711  1.1478  0.8593
11897TIP3    H257107   4.857   3.767  13.524  0.7924  0.9362 -2.9200
11898TIP3   OH257108   5.293   6.155  17.090 -0.6726 -0.4617  0.0774
11898TIP3    H157109   5.229   6.219  17.120 -0.4097  0.0612 -0.4482
11898TIP3    H257110   5.371   6.172  17.144 -1.2814 -1.7616  1.4105
11899TIP3   OH257111   2.874   2.410   0.408  0.4248  0.4079 -0.0983
11899TIP3    H157112   2.871   2.315   0.413 -1.3130  0.5019  1.4252
11899TIP3    H257113   2.909   2.437   0.493  1.7581  1.1318 -0.8425
11900TIP3   OH257114   0.892   0.922   6.586 -0.0087 -0.3136  0.3666
11900TIP3    H157115   0.868   0.843   6.633 -0.0091 -1.8460 -2.0130
11900TIP3    H257116   0.813   0.976   6.589 -1.2884 -1.9817 -0.9051
11901TIP3   OH257117   6.035   0.379  14.326  0.6952 -0.6602 -0.0129
11901TIP3    H157118   6.100   0.335  14.381  2.4272  0.9844 -0.6267
11901TIP3    H257119   5.976   0.420  14.389  0.9668 -1.1755  0.5938
11902TIP3   OH257120   2.441   1.243  13.742  0.0938  0.7405  0.4116
11902TIP3    H157121   2.404   1.330  13.725 -2.4649 -0.6951 -2.0107
11902TIP3    H257122   2.391   1.210  13.817  0.2100  0.8573  0.5420
11903TIP3   OH257123   3.914   1.957  15.870 -0.2753  0.1094 -0.6962
11903TIP3    H157124   4.009   1.965  15.879 -0.1537 -0.1572 -1.6305
11903TIP3    H257125   3.895   1.999  15.786 -1.0103  0.3188 -0.4274
11904TIP3   OH257126   3.777   0.667  16.922  0.3769 -0.2230  0.2926
11904TIP3    H157127   3.856   0.688  16.872  0.0460 -0.2246 -0.2340
11904TIP3    H257128   3.721   0.620  16.861 -0.1572  0.0401  0.5685
11905TIP3   OH257129   4.742   4.577  16.237  0.2562 -0.3336 -0.3485
11905TIP3    H157130   4.695   4.500  16.270 -1.8001  0.7370 -0.6522
11905TIP3    H257131   4.675   4.630  16.195  2.0810  0.3125 -2.6847
11906TIP3   OH257132   1.683   5.600   6.174  0.9830  0.1259 -0.3502
11906TIP3    H157133   1.623   5.528   6.193 -1.2588  1.3588 -2.1529
11906TIP3    H257134   1.648   5.674   6.223  3.6448 -0.0243  2.0195
11907TIP3   OH257135   5.004   6.536   0.302  0.0687  0.4504  0.3396
11907TIP3    H157136   5.016   6.614   0.356 -1.0298  1.1377 -0.3647
11907TIP3    H257137   4.918   6.548   0.263 -1.4066 -2.4414  2.3647
11908TIP3   OH257138   5.382   2.292   5.099  0.6868 -0.1583 -0.1095
11908TIP3    H157139   5.411   2.383   5.096  0.2835  0.1610  2.5939
11908TIP3    H257140   5.462   2.241   5.088  1.0077  0.5317 -1.0463
11909TIP3   OH257141   2.368   2.075   5.341  0.2488  0.2191 -0.0049
11909TIP3    H157142   2.418   1.994   5.329  0.7212  0.5823 -0.5577
11909TIP3    H257143   2.374   2.094   5.434  0.6487 -0.0579  0.0284
11910TIP3   OH257144   2.106   3.762   1.012 -0.5291  0.4261 -0.8634
11910TIP3    H157145   2.110   3.847   1.056 -0.2818  0.1601 -0.3648
11910TIP3    H257146   2.017   3.731   1.028 -0.5223  0.4498 -0.7792
11911TIP3   OH257147   3.064   6.638   5.257 -0.1318 -0.1826 -0.4445
11911TIP3    H157148   3.026   6.726   5.256  1.7906  0.6965  0.0166
11911TIP3    H257149   3.035   6.601   5.341 -0.3848  0.2709 -0.3282
11912TIP3   OH257150   5.480   1.581   0.562  0.6350  0.0904 -0.7008
11912TIP3    H157151   5.429   1.597   0.642 -2.6303  1.4622 -2.8528
11912TIP3    H257152   5.545   1.651   0.562  1.0579 -0.2426  0.9488
11913TIP3   OH257153   6.396   0.125  15.454 -0.6637  0.4191  0.3805
11913TIP3    H157154   6.395   0.213  15.415 -0.6569 -0.1570 -0.9599
11913TIP3    H257155   6.322   0.125  15.515 -0.0077  1.7053  1.2283
11914TIP3   OH257156   6.215   0.652   3.518 -0.1023  0.0437  0.3678
11914TIP3    H157157   6.221   0.747   3.520 -0.3682  0.0537  1.1122
11914TIP3    H257158   6.127   0.633   3.550 -0.3847 -0.4256 -0.6476
11915TIP3   OH257159   2.896   5.814   2.019  0.2159  0.2745 -0.1600
11915TIP3    H157160   2.815   5.866   2.024 -0.9294 -1.3680 -0.7429
11915TIP3    H257161   2.925   5.808   2.110 -0.3785  0.7834  0.0797
11916TIP3   OH257162   6.730   1.850   3.724  0.5701 -0.1102  0.0207
11916TIP3    H157163   6.647   1.896   3.736  0.3073 -0.6646  0.3645
11916TIP3    H257164   6.779   1.869   3.804  0.2788 -0.7883  0.3709
11917TIP3   OH257165   3.562   4.002  12.400 -0.5545 -0.0726  0.3672
11917TIP3    H157166   3.568   4.035  12.310 -0.2948  1.7138  1.0065
11917TIP3    H257167   3.503   3.926  12.393  0.0503 -0.4405 -1.4087
11918TIP3   OH257168   5.411   3.024   5.827 -0.3743 -0.0400  0.2544
11918TIP3    H157169   5.494   2.977   5.816  0.4680  1.0653  1.5414
11918TIP3    H257170   5.407   3.044   5.920 -0.9360  1.9819 -0.1561
11919TIP3   OH257171   2.449   4.980   4.824 -0.4708 -0.1514 -0.3947
11919TIP3    H157172   2.408   5.007   4.907  0.5963  0.4065 -0.0285
11919TIP3    H257173   2.444   5.059   4.769 -0.1829 -0.1768 -0.4579
11920TIP3   OH257174   1.137   1.064   1.729 -0.0779 -0.4871  0.7416
11920TIP3    H157175   1.121   0.976   1.696 -1.3752 -0.6259  1.6866
11920TIP3    H257176   1.166   1.114   1.652 -0.7264 -1.3770 -0.0928
11921TIP3   OH257177   0.008   4.056  12.897  0.2652 -0.2922  0.3195
11921TIP3    H157178   0.091   4.066  12.942 -0.5812  1.1569  1.6564
11921TIP3    H257179   0.031   4.053  12.804  1.6806  2.8200  0.4439
11922TIP3   OH257180   1.194   6.766  16.043 -0.0881 -0.4241  0.5012
11922TIP3    H157181   1.246   6.833  16.088 -2.5122  2.0260 -0.1296
11922TIP3    H257182   1.103   6.785  16.066 -1.0337 -2.3332 -1.2540
11923TIP3   OH257183   4.432   3.938  12.375 -0.1135  0.2494  0.2606
11923TIP3    H157184   4.375   3.987  12.433  1.0939  0.6255  1.1592
11923TIP3    H257185   4.519   3.976  12.388  0.4071 -0.5034 -0.8502
11924TIP3   OH257186   2.392   5.049   1.491  0.0657 -0.3370 -0.2636
11924TIP3    H157187   2.359   4.959   1.494 -0.3724 -0.1738  0.0971
11924TIP3    H257188   2.368   5.085   1.577 -0.5019  0.3740 -0.7076
11925TIP3   OH257189   0.899   6.180  14.498  0.2926 -0.4002  0.5166
11925TIP3    H157190   0.807   6.199  14.478  0.2930  0.3840  1.2101
11925TIP3    H257191   0.946   6.258  14.469  0.7575 -0.8376  0.0855
11926TIP3   OH257192   0.224   2.593  13.887 -0.2660 -0.3074  0.0519
11926TIP3    H157193   0.139   2.578  13.847 -0.5180  2.4633 -0.6713
11926TIP3    H257194   0.262   2.665  13.837  2.6828 -1.6584  0.1591
11927TIP3   OH257195   5.592   4.113   4.126 -0.2968 -0.3277 -0.2146
11927TIP3    H157196   5.578   4.159   4.043  3.0431 -1.1139 -1.3980
11927TIP3    H257197   5.661   4.163   4.169  0.1414 -1.6310  0.6456
11928TIP3   OH257198   5.064   2.185  14.125 -0.1923  0.8261 -0.1283
11928TIP3    H157199   5.088   2.108  14.073 -2.3667  0.3162 -0.5087
11928TIP3    H257200   5.110   2.173  14.208 -1.3478 -1.5901  0.2817
11929TIP3   OH257201   5.760   5.911   5.704 -0.3446  0.1744 -0.0309
11929TIP3    H157202   5.806   5.918   5.787  1.6405  1.7295 -1.1685
11929TIP3    H257203   5.804   5.839   5.658 -0.4353  0.3060 -0.3265
11930TIP3   OH257204   5.287   1.003   0.980 -0.3376  0.0559 -0.5017
11930TIP3    H157205   5.361   0.980   0.924  0.6542 -1.6433  1.3769
11930TIP3    H257206   5.318   1.078   1.031  0.9208 -1.7453  1.5796
11931TIP3   OH257207   1.668   1.819  14.475  0.4320 -0.2392 -0.1212
11931TIP3    H157208   1.704   1.769  14.549  2.5002 -1.9652 -2.1551
11931TIP3    H257209   1.737   1.882  14.453 -0.0841  0.1247 -0.7186
11932TIP3   OH257210   5.900   5.581  11.549  0.1670 -0.1575 -0.2120
11932TIP3    H157211   5.910   5.487  11.533 -2.1163 -0.3829 -0.7117
11932TIP3    H257212   5.949   5.623  11.479  1.5284 -0.9554  0.2409
11933TIP3   OH257213   1.449   0.104   0.746  0.0977 -0.2954 -0.1307
11933TIP3    H157214   1.462   0.062   0.832  0.4441 -0.0567 -0.0646
11933TIP3    H257215   1.520   0.069   0.692  0.3904  0.2063 -0.0734
11934TIP3   OH257216   0.386   3.266   3.965 -0.4811  1.3939 -0.3972
11934TIP3    H157217   0.383   3.186   3.912  0.5615  0.7906  0.3999
11934TIP3    H257218   0.449   3.322   3.920  1.8624  0.1251  1.1223
11935TIP3   OH257219   6.055   5.099  15.753 -0.2625  0.7401 -0.7948
11935TIP3    H157220   6.131   5.043  15.740 -2.1223 -2.1165 -0.0732
11935TIP3    H257221   5.980   5.045  15.729 -2.3053  2.3056  1.5126
11936TIP3   OH257222   5.683   3.961   5.171  0.9795  0.3076 -0.8292
11936TIP3    H157223   5.664   4.021   5.243 -0.0223  0.0989 -0.8976
11936TIP3    H257224   5.710   3.880   5.214  0.7840  0.3118 -0.6996
11937TIP3   OH257225   1.373   0.553  16.238 -0.3145  0.3006 -0.1674
11937TIP3    H157226   1.335   0.470  16.266  1.8912 -0.2532  1.5130
11937TIP3    H257227   1.422   0.532  16.158  0.3256 -0.0730  0.3125
11938TIP3   OH257228   3.209   4.739  17.263 -0.6325  0.2036  0.1750
11938TIP3    H157229   3.248   4.712  17.180 -0.3806 -0.2020  0.4225
11938TIP3    H257230   3.283   4.760  17.319 -0.8231  1.4332 -0.0056
11939TIP3   OH257231   3.893   5.596  14.193  0.2148 -0.1223 -0.1374
11939TIP3    H157232   3.842   5.668  14.229 -0.5295 -0.2439 -0.9123
11939TIP3    H257233   3.881   5.602  14.098  3.0325  0.8732 -0.5473
11940TIP3   OH257234   5.579   6.153   5.214 -0.2447 -1.1189 -0.1053
11940TIP3    H157235   5.630   6.072   5.217 -1.7248 -2.1983 -2.0718
11940TIP3    H257236   5.515   6.144   5.284  1.5852 -0.1622  1.7785
11941TIP3   OH257237   0.684   5.794   3.959  0.9177  0.6616 -0.0648
11941TIP3    H157238   0.767   5.746   3.959  0.6672  0.1937  1.1076
11941TIP3    H257239   0.710   5.886   3.966  1.3587  0.6311 -1.0157
11942TIP3   OH257240   1.370   4.262   1.134  0.1694 -0.1073 -0.1924
11942TIP3    H157241   1.357   4.168   1.151  0.7526 -0.2603 -0.5473
11942TIP3    H257242   1.465   4.272   1.133  0.1054  0.5197 -0.0071
11943TIP3   OH257243   3.901   3.699  15.099  0.1903 -0.1175 -0.4570
11943TIP3    H157244   3.895   3.794  15.086 -1.0897  0.1405  1.6394
11943TIP3    H257245   3.834   3.663  15.040  1.6366  0.0924 -2.3351
11944TIP3   OH257246   5.524   5.952   4.697  0.5787 -0.3658  0.2707
11944TIP3    H157247   5.604   5.997   4.721 -0.6585  3.1274 -1.3897
11944TIP3    H257248   5.460   5.979   4.763  0.0286 -0.4448 -0.2175
11945TIP3   OH257249   1.558   2.249  10.715  0.5312 -0.3927 -0.1656
11945TIP3    H157250   1.651   2.238  10.736  1.0362  1.6095 -1.0753
11945TIP3    H257251   1.539   2.180  10.652  0.5276 -2.7402  2.1944
11946TIP3   OH257252   3.156   1.041  16.761  0.0690  0.4749 -0.2618
11946TIP3    H157253   3.105   1.075  16.834  0.4225 -1.5605  1.0127
11946TIP3    H257254   3.106   1.066  16.683 -2.2195 -0.3432  0.8708
11947TIP3   OH257255   3.658   6.170   0.966  0.8161  0.1489  0.3048
11947TIP3    H157256   3.711   6.247   0.947  0.3691 -0.0270 -1.8359
11947TIP3    H257257   3.678   6.108   0.896 -0.6763 -0.7114  0.5920
11948TIP3   OH257258   5.050   2.192  12.297 -0.7398 -0.4026 -0.3545
11948TIP3    H157259   5.073   2.240  12.218 -0.5897  0.3304  0.1273
11948TIP3    H257260   4.954   2.196  12.301 -0.6844  0.6084  0.1406
11949TIP3   OH257261   3.391   0.081  15.697  0.1738  1.0311  0.6511
11949TIP3    H157262   3.313   0.029  15.714  1.4491 -0.2478  3.1140
11949TIP3    H257263   3.358   0.170  15.685 -1.6310  0.6580  2.3813
11950TIP3   OH257264   2.143   1.640  14.916  0.5333  0.0614  0.1858
11950TIP3    H157265   2.188   1.587  14.851 -0.5857 -1.9828  0.9646
11950TIP3    H257266   2.056   1.599  14.924  0.9915 -0.5988  3.7299
11951TIP3   OH257267   4.161   1.472   1.248  0.1836 -0.4964  0.1508
11951TIP3    H157268   4.104   1.549   1.242  0.2821 -0.4849 -0.9583
11951TIP3    H257269   4.209   1.472   1.165  2.0658 -0.3175  1.1940
11952TIP3   OH257270   1.310   1.771  14.060  0.1211  0.2100 -0.2619
11952TIP3    H157271   1.285   1.737  14.146 -2.3195  0.3951 -0.8310
11952TIP3    H257272   1.328   1.693  14.008  0.2581  0.0432  0.0314
11953TIP3   OH257273   3.324   2.482  13.990  0.1201  0.1334  0.3897
11953TIP3    H157274   3.244   2.438  13.962 -0.8537  2.6750 -1.1784
11953TIP3    H257275   3.296   2.544  14.057  0.8903  0.5595  0.3381
11954TIP3   OH257276   5.405   1.429  13.122 -0.1645 -0.1150 -0.0017
11954TIP3    H157277   5.390   1.349  13.171  1.2700 -1.5709 -1.8147
11954TIP3    H257278   5.454   1.486  13.182  0.5219 -1.3651  0.6512
11955TIP3   OH257279   2.418   2.642   5.365  0.8276 -0.0542  0.1049
11955TIP3    H157280   2.403   2.572   5.428  1.7525 -0.5125 -0.1663
11955TIP3    H257281   2.486   2.608   5.307  1.8176  1.3284  0.3937
11956TIP3   OH257282   0.167   5.042  13.627  0.0924 -0.2722 -0.0294
11956TIP3    H157283   0.110   5.056  13.551  0.4874 -3.7521 -1.1228
11956TIP3    H257284   0.252   5.078  13.600 -0.4343  0.9975 -0.0826
11957TIP3   OH257285   0.864   3.338  16.908  0.1371  0.3900  0.6330
11957TIP3    H157286   0.810   3.343  16.830  1.1209 -2.2475 -0.3298
11957TIP3    H257287   0.898   3.427  16.920  0.2950  0.7878 -2.1882
11958TIP3   OH257288   0.834   3.049   4.776  0.0805  0.3362 -0.3995
11958TIP3    H157289   0.739   3.060   4.779 -0.0827 -0.9612  1.8138
11958TIP3    H257290   0.853   3.029   4.685 -1.7963  0.4153 -0.8572
11959TIP3   OH257291   2.399   0.976  11.717  0.5544 -0.4025 -0.3555
11959TIP3    H157292   2.488   0.981  11.751  0.4068  0.6163 -0.0795
11959TIP3    H257293   2.370   0.887  11.738  1.0745 -0.3493  0.6715
11960TIP3   OH257294   1.762   3.534   1.802  0.1495  0.0093 -0.2638
11960TIP3    H157295   1.783   3.621   1.766  0.5836 -0.8094 -2.0923
11960TIP3    H257296   1.673   3.516   1.771  0.1817 -0.3201 -0.1667
11961TIP3   OH257297   6.053   6.416   6.238  0.2738  0.1654  0.0160
11961TIP3    H157298   5.978   6.357   6.242 -1.3339  2.0876 -0.4573
11961TIP3    H257299   6.120   6.373   6.293 -1.3969 -1.2635  1.0368
11962TIP3   OH257300   5.882   3.925  11.244  0.4707 -0.2787 -0.2603
11962TIP3    H157301   5.797   3.882  11.249 -0.1406  1.0135  0.9837
11962TIP3    H257302   5.872   3.988  11.172  0.3393 -0.0473 -0.0391
11963TIP3   OH257303   5.059   2.472  16.966 -0.3851 -0.4064 -0.2488
11963TIP3    H157304   5.069   2.565  16.944 -1.6596 -0.5230 -1.4689
11963TIP3    H257305   5.123   2.457  17.035  0.8402  1.0435 -1.0054
11964TIP3   OH257306   3.980   5.505  11.052  0.1469  0.2806 -0.0184
11964TIP3    H157307   4.024   5.588  11.069  0.7150  0.0911 -0.5200
11964TIP3    H257308   3.984   5.458  11.135 -0.2049  0.7613  0.2779
11965TIP3   OH257309   6.599   3.655   1.456 -0.4891  0.0819 -0.1040
11965TIP3    H157310   6.540   3.675   1.528  0.6902 -1.4782  1.3991
11965TIP3    H257311   6.608   3.737   1.408 -0.2176  1.6053  2.3733
11966TIP3   OH257312   3.105   3.640   0.286  0.1342 -0.3398  0.2662
11966TIP3    H157313   3.139   3.614   0.372 -0.5649 -0.7996  0.4127
11966TIP3    H257314   3.113   3.561   0.232 -1.5604 -0.7641  0.5792
11967TIP3   OH257315   4.257   6.615  13.035  0.2224 -0.1858  0.2262
11967TIP3    H157316   4.212   6.601  13.118  0.1779 -2.4806 -0.1382
11967TIP3    H257317   4.187   6.623  12.970  0.2843 -0.7581  0.0847
11968TIP3   OH257318   6.277   3.291   4.721  0.5522  0.5057 -0.0665
11968TIP3    H157319   6.273   3.345   4.643 -0.0477  0.6984  0.0953
11968TIP3    H257320   6.320   3.346   4.787 -2.4716  1.8995  0.9514
11969TIP3   OH257321   2.590   4.463  15.914 -1.0590  0.0018 -0.0242
11969TIP3    H157322   2.501   4.444  15.883 -1.2213  1.8106 -0.7855
11969TIP3    H257323   2.601   4.557  15.899 -0.8194  0.9458  4.6011
11970TIP3   OH257324   1.005   1.506   2.759 -0.2519 -0.3559 -0.5322
11970TIP3    H157325   1.040   1.430   2.713 -0.1627  1.0980 -3.0256
11970TIP3    H257326   0.913   1.510   2.732 -1.5988 -2.0429  3.1170
11971TIP3   OH257327   0.810   1.570   3.845  0.3397 -0.6166  0.0406
11971TIP3    H157328   0.810   1.487   3.891  1.1098 -0.6243  0.0517
11971TIP3    H257329   0.720   1.601   3.850  0.3660 -0.6916  1.4038
11972TIP3   OH257330   0.618   6.729  11.227  0.1324 -0.4348 -0.1153
11972TIP3    H157331   0.604   6.775  11.144  0.6452 -0.5246 -0.2617
11972TIP3    H257332   0.661   6.794  11.283 -1.6552  0.1315  0.6411
11973TIP3   OH257333   6.175   5.545   4.765 -0.2922  0.3497  0.3777
11973TIP3    H157334   6.176   5.635   4.734 -1.4519 -0.1965 -1.4009
11973TIP3    H257335   6.119   5.547   4.843  0.3213  1.2733  0.8112
11974TIP3   OH257336   1.769   3.385  12.586 -0.0048 -0.4207  0.0687
11974TIP3    H157337   1.809   3.433  12.658  1.6322  1.3954 -1.9041
11974TIP3    H257338   1.843   3.341  12.543 -1.1211 -2.5615  0.2335
11975TIP3   OH257339   2.357   4.210  14.977 -0.1091  0.0216  0.2700
11975TIP3    H157340   2.294   4.171  15.037 -0.1747 -0.8386 -0.3486
11975TIP3    H257341   2.328   4.183  14.890 -0.0707  1.3304 -0.1754
11976TIP3   OH257342   2.259   1.019   3.885  0.0621 -0.0825 -0.1294
11976TIP3    H157343   2.297   1.058   3.963  0.9566 -1.8497  0.3732
11976TIP3    H257344   2.175   1.064   3.873  0.7498  1.5019  0.7350
11977TIP3   OH257345   3.602   2.844   3.763  0.5182 -0.9765  0.8729
11977TIP3    H157346   3.518   2.890   3.764  0.4824 -1.0135  2.2073
11977TIP3    H257347   3.623   2.833   3.856  3.0358  0.8737  0.6071
11978TIP3   OH257348   0.282   2.164  16.473 -0.0219 -0.5952  0.4962
11978TIP3    H157349   0.271   2.249  16.430  1.8475 -0.4351  0.2308
11978TIP3    H257350   0.310   2.105  16.403  1.8765 -0.6129  1.1958
11979TIP3   OH257351   1.089   6.464  16.146  0.1427  0.1185 -0.1781
11979TIP3    H157352   1.053   6.542  16.103 -0.9220 -0.8507 -1.0926
11979TIP3    H257353   1.092   6.398  16.077  2.4306 -0.2591  0.2026
11980TIP3   OH257354   6.722   0.345  17.016  0.3220 -0.6016 -0.4275
11980TIP3    H157355   6.724   0.249  17.019  0.6936 -0.5834  0.0093
11980TIP3    H257356   6.812   0.371  17.035 -0.4160 -0.0659  3.0890
11981TIP3   OH257357   3.390   0.665  13.598  0.4170 -0.8444  0.0868
11981TIP3    H157358   3.448   0.660  13.521  1.0307 -0.3209  0.5078
11981TIP3    H257359   3.363   0.757  13.601  2.1237 -0.3188  1.7195
11982TIP3   OH257360   3.972   2.944  14.195 -0.6393 -0.1950  0.0883
11982TIP3    H157361   3.925   2.974  14.273  1.1657  1.9479  0.4235
11982TIP3    H257362   3.982   2.850  14.208 -1.6500 -0.1119  1.7312
11983TIP3   OH257363   3.314   0.426   0.024  0.3289  0.6646  0.0915
11983TIP3    H157364   3.228   0.385   0.010  0.7379 -0.5061  0.8125
11983TIP3    H257365   3.294   0.517   0.047 -0.7138  0.4342  0.1563
11984TIP3   OH257366   2.342   1.927  12.384  0.1610 -0.5386 -0.4153
11984TIP3    H157367   2.278   1.862  12.414 -0.1605  0.2013  0.5614
11984TIP3    H257368   2.422   1.906  12.433  0.0318 -0.1549 -0.0354
11985TIP3   OH257369   6.627   4.902   2.399  0.3696 -0.0183 -0.1512
11985TIP3    H157370   6.691   4.857   2.343 -0.2713  0.0987 -0.9803
11985TIP3    H257371   6.572   4.831   2.433 -1.0940  0.1597 -2.0273
11986TIP3   OH257372   1.385   5.411  16.554 -0.7837 -0.0104 -0.3822
11986TIP3    H157373   1.458   5.470  16.577  0.7591 -2.0407  0.2565
11986TIP3    H257374   1.337   5.400  16.636  0.2224 -1.2561  0.0922
11987TIP3   OH257375   2.316   1.885   0.254 -0.1977 -0.1248  0.2695
11987TIP3    H157376   2.243   1.823   0.254  0.0606 -0.4401 -0.6559
11987TIP3    H257377   2.279   1.967   0.222 -0.3025 -0.0822  0.4962
11988TIP3   OH257378   2.674   3.364  11.241 -0.3201  0.4130 -0.2430
11988TIP3    H157379   2.738   3.432  11.221 -1.8175  2.1409  0.5614
11988TIP3    H257380   2.590   3.400  11.212 -1.0067 -1.6921 -1.0596
11989TIP3   OH257381   2.895   2.672   2.636 -0.4383  0.0209 -0.3114
11989TIP3    H157382   2.914   2.622   2.715  1.4298 -0.2678 -0.9065
11989TIP3    H257383   2.936   2.757   2.651  1.2574 -0.5397 -1.5481
11990TIP3   OH257384   4.937   6.652   6.395 -0.5025 -0.1132 -0.1024
11990TIP3    H157385   4.970   6.583   6.452 -0.8643 -1.3819 -1.3731
11990TIP3    H257386   4.890   6.606   6.326  0.3370  1.3282 -1.7137
11991TIP3   OH257387   0.680   4.428   3.871 -0.2746  0.4955 -0.2722
11991TIP3    H157388   0.751   4.492   3.878  0.4986 -0.1018 -2.1950
11991TIP3    H257389   0.708   4.356   3.928 -0.3189  1.1001  0.5363
11992TIP3   OH257390   1.174   0.474  12.911  0.0546  0.5911  0.1529
11992TIP3    H157391   1.269   0.478  12.906 -0.0074  1.2788 -0.7406
11992TIP3    H257392   1.145   0.562  12.886 -0.7664  0.8983  2.0135
11993TIP3   OH257393   0.981   4.906   0.046  0.3985  0.6037 -0.0558
11993TIP3    H157394   1.025   4.824   0.023  0.1525  0.6351 -0.6761
11993TIP3    H257395   0.941   4.935  -0.036  0.1689  1.1534  0.2449
11994TIP3   OH257396   6.431   2.041  12.015 -0.2057 -0.5155  0.2029
11994TIP3    H157397   6.445   2.008  11.926  0.5970  0.2003  0.0554
11994TIP3    H257398   6.390   2.127  12.003  0.0917 -0.3295  0.5215
11995TIP3   OH257399   5.980   2.554  14.446 -0.3838 -0.2893 -0.5464
11995TIP3    H157400   6.038   2.608  14.500 -0.7327 -0.3673 -0.0966
11995TIP3    H257401   6.017   2.561  14.358 -0.2745  0.4806 -0.4459
11996TIP3   OH257402   6.226   5.025   0.157 -0.2308 -0.4985  0.1197
11996TIP3    H157403   6.315   5.056   0.173 -1.1705  1.7905  1.5253
11996TIP3    H257404   6.209   5.046   0.065  0.2601  0.3212  0.2044
11997TIP3   OH257405   2.948   0.360  12.724  0.2400 -0.5638 -0.1197
11997TIP3    H157406   2.911   0.286  12.676  0.7612 -0.9922  0.1269
11997TIP3    H257407   2.997   0.409  12.657  1.0424 -1.2108 -0.0207
11998TIP3   OH257408   5.033   1.875   3.261  0.1804 -0.1917  0.2903
11998TIP3    H157409   4.948   1.917   3.248  0.6166  1.1711  1.5006
11998TIP3    H257410   5.036   1.806   3.195 -1.7391 -0.0943  0.0282
11999TIP3   OH257411   3.754   5.924   2.899  0.3959 -0.7554 -0.1876
11999TIP3    H157412   3.735   6.015   2.877 -0.8500 -0.8163  0.5361
11999TIP3    H257413   3.668   5.882   2.903  0.8048 -1.5192  1.3235
12000TIP3   OH257414   6.455   5.879   6.640 -0.3515 -0.2323 -0.0854
12000TIP3    H157415   6.366   5.843   6.646  0.2277 -1.5100  2.0760
12000TIP3    H257416   6.511   5.802   6.632  0.6238  0.5203 -0.6494
12001TIP3   OH257417   4.125   1.186  15.743  0.0147  0.6532 -0.4719
12001TIP3    H157418   4.084   1.211  15.826 -0.5343 -1.3072 -0.0981
12001TIP3    H257419   4.052   1.165  15.685  0.3538 -2.2544 -0.0002
12002TIP3   OH257420   6.389   2.742   1.852 -0.1151  0.4510 -0.0437
12002TIP3    H157421   6.412   2.793   1.930  0.0137  0.7087 -0.2504
12002TIP3    H257422   6.470   2.735   1.803 -0.3400  0.8424 -0.4761
12003TIP3   OH257423   2.868   2.333  15.419  0.9127  0.1292  0.2648
12003TIP3    H157424   2.884   2.325  15.513  2.6378  1.5912  0.1632
12003TIP3    H257425   2.814   2.412  15.412 -1.2290 -1.2940  0.1499
12004TIP3   OH257426   4.200   1.250   4.564  0.3189  0.0747  0.6826
12004TIP3    H157427   4.268   1.310   4.595 -0.8026  1.3036  0.8482
12004TIP3    H257428   4.244   1.197   4.498  1.0320  1.9938 -0.4702
12005TIP3   OH257429   4.746   1.261  12.792 -0.8286 -0.1900 -0.0906
12005TIP3    H157430   4.754   1.306  12.875  2.5659 -1.2958  0.3358
12005TIP3    H257431   4.669   1.205  12.802 -2.2526  1.8611  1.1017
12006TIP3   OH257432   1.150   1.452  12.365 -0.1359 -0.2151 -0.5519
12006TIP3    H157433   1.097   1.503  12.426  2.5044  2.1496 -0.0338
12006TIP3    H257434   1.206   1.399  12.421 -0.1364 -0.7229 -1.0243
12007TIP3   OH257435   5.300   4.603   2.739  0.8296  0.3637 -0.0316
12007TIP3    H157436   5.209   4.631   2.737  0.0558 -1.8346  0.9406
12007TIP3    H257437   5.307   4.537   2.670  1.4178 -0.1268  0.4756
12008TIP3   OH257438   6.253   0.004  16.371  0.4842  0.3387 -0.0838
12008TIP3    H157439   6.217   0.093  16.363 -2.9360 -0.7449  1.3082
12008TIP3    H257440   6.208  -0.046  16.304  1.3324 -0.6397  0.0556
12009TIP3   OH257441   3.762   2.162  12.605 -0.2783 -0.3623  0.7399
12009TIP3    H157442   3.673   2.129  12.621  0.4149 -2.1951  1.0717
12009TIP3    H257443   3.794   2.189  12.691 -0.6035  0.6297  0.5684
12010TIP3   OH257444   0.119   3.688  12.079 -0.3866 -0.1971  0.5908
12010TIP3    H157445   0.114   3.612  12.021  0.6039  0.2692 -0.1433
12010TIP3    H257446   0.035   3.733  12.068  0.6946  1.3789 -2.6642
12011TIP3   OH257447   5.684   1.209   2.228 -0.0661 -0.3484  0.6519
12011TIP3    H157448   5.731   1.216   2.311  0.6144 -1.8542  0.4371
12011TIP3    H257449   5.711   1.286   2.178 -0.9006  0.8593  1.9981
12012TIP3   OH257450   3.490   5.795  11.045  0.4311 -0.1238  0.0815
12012TIP3    H157451   3.456   5.712  11.013 -0.3600  0.1864  0.0954
12012TIP3    H257452   3.564   5.814  10.988 -0.2113 -0.1753 -0.7928
12013TIP3   OH257453   6.692   4.202   5.596 -0.8974  0.2388  0.1173
12013TIP3    H157454   6.664   4.293   5.597 -1.9488 -0.0299 -1.2674
12013TIP3    H257455   6.629   4.157   5.653 -2.4206 -0.0904 -1.6994
12014TIP3   OH257456   0.122   0.144  10.536 -0.6216  0.1898  0.5513
12014TIP3    H157457   0.213   0.117  10.545 -0.9847 -0.4574  3.7188
12014TIP3    H257458   0.083   0.079  10.477  0.6215 -0.4561  0.4165
12015TIP3   OH257459   2.035   0.233   4.865 -0.1474 -0.4450  0.1653
12015TIP3    H157460   2.007   0.265   4.779 -2.9997 -0.4226  1.0194
12015TIP3    H257461   2.040   0.311   4.919  2.2185 -0.3806 -0.0331
12016TIP3   OH257462   4.446   5.987  13.226  0.1918 -0.1905  0.3509
12016TIP3    H157463   4.540   5.978  13.215  0.0891  0.8089 -1.7626
12016TIP3    H257464   4.435   6.069  13.275  0.4011 -0.2565  0.5103
12017TIP3   OH257465   5.237   5.710   2.392  0.2598 -0.4787  0.1885
12017TIP3    H157466   5.187   5.658   2.455  1.0672 -1.1555  0.2930
12017TIP3    H257467   5.324   5.719   2.431  0.8554 -1.1266 -0.9134
12018TIP3   OH257468   2.835   5.989   2.700 -0.5561 -0.0111  0.1167
12018TIP3    H157469   2.898   6.047   2.659 -1.8232 -0.1695 -2.2093
12018TIP3    H257470   2.821   6.026   2.787  2.0511  0.4824  0.3990
12019TIP3   OH257471   6.684   1.959  12.513 -0.0569  0.1360 -0.0154
12019TIP3    H157472   6.620   1.929  12.578 -1.0942  1.5267 -0.3621
12019TIP3    H257473   6.641   1.946  12.429  2.1141 -3.8339 -0.7724
12020TIP3   OH257474   1.890   0.967  16.050 -0.0593  0.1507  0.9564
12020TIP3    H157475   1.839   0.896  16.010  2.1847 -1.8986  1.5237
12020TIP3    H257476   1.836   1.045  16.037 -2.5216 -1.5802  0.0503
12021TIP3   OH257477   1.058   6.426  14.433 -0.4220  0.6875 -0.1942
12021TIP3    H157478   1.120   6.419  14.361 -0.0452  1.5510  0.0351
12021TIP3    H257479   1.099   6.488  14.494 -0.1699 -0.9213  1.3436
12022TIP3   OH257480   4.481   3.880   1.431 -0.8675  0.0133 -0.1273
12022TIP3    H157481   4.530   3.800   1.453 -0.9016 -0.2294 -0.8891
12022TIP3    H257482   4.485   3.934   1.510  0.4808 -0.0778 -0.1198
12023TIP3   OH257483   1.718   6.171   4.460 -0.1701  0.5009 -0.1953
12023TIP3    H157484   1.678   6.131   4.537 -1.8403  0.2471 -1.1404
12023TIP3    H257485   1.753   6.097   4.410 -0.6607  0.4960 -0.5327
12024TIP3   OH257486   3.566   6.523   0.816 -0.4595  0.1686  0.4736
12024TIP3    H157487   3.577   6.506   0.910 -0.6479  0.3188  0.5249
12024TIP3    H257488   3.488   6.579   0.811 -1.2723 -0.9568  0.1239
12025TIP3   OH257489   0.473   2.778  17.173 -0.0391 -0.4231  0.0306
12025TIP3    H157490   0.442   2.779  17.083 -0.0153  0.2734  0.0191
12025TIP3    H257491   0.568   2.767  17.166 -0.0488 -0.4742 -0.0216
12026TIP3   OH257492   4.966   4.582  16.846  0.0681  0.4766 -0.4848
12026TIP3    H157493   4.941   4.490  16.837  0.6481  0.0043  1.9477
12026TIP3    H257494   4.909   4.629  16.786 -2.0996 -1.2181  0.1255
12027TIP3   OH257495   3.931   6.024  16.766 -0.2681 -0.1063 -0.4616
12027TIP3    H157496   3.949   5.958  16.833  0.5639 -0.4457 -1.0090
12027TIP3    H257497   3.896   6.098  16.815  3.0653  0.8236  0.8576
12028TIP3   OH257498   2.566   2.527   5.862 -0.4763 -0.3453  0.2261
12028TIP3    H157499   2.498   2.589   5.835 -0.5968 -0.6421 -0.1550
12028TIP3    H257500   2.646   2.560   5.820 -0.7296 -0.9966 -0.7694
12029TIP3   OH257501   5.782   0.492  12.000 -0.2839 -0.3115 -0.0923
12029TIP3    H157502   5.688   0.482  11.985  0.0133 -0.9331 -1.7364
12029TIP3    H257503   5.821   0.490  11.913  1.3645 -1.2805  0.6102
12030TIP3   OH257504   5.202   2.995  16.655 -0.0347 -0.3651 -0.4363
12030TIP3    H157505   5.200   3.089  16.636 -0.9246  0.0369  1.4421
12030TIP3    H257506   5.135   2.958  16.597  0.7084  0.0302 -1.5994
12031TIP3   OH257507   3.254   2.459  15.800 -0.5306 -0.2058 -0.3442
12031TIP3    H157508   3.248   2.432  15.892 -1.3881 -0.4679 -0.4619
12031TIP3    H257509   3.247   2.378  15.751  0.3313 -0.1064 -0.6407
12032TIP3   OH257510   5.267   2.000  17.203  0.2416  0.1638  0.2367
12032TIP3    H157511   5.267   1.968  17.113  0.3760 -2.0759  0.9561
12032TIP3    H257512   5.359   2.001  17.228  0.1448 -0.0610  0.6109
12033TIP3   OH257513   4.449   2.209  16.633  0.3092 -0.1020  0.0816
12033TIP3    H157514   4.517   2.251  16.687  0.3077 -0.6408  0.5178
12033TIP3    H257515   4.367   2.233  16.675  0.3618 -1.4125  0.9876
12034TIP3   OH257516   6.106   4.013  10.717  0.0183 -0.2145  0.0878
12034TIP3    H157517   6.116   3.969  10.632 -0.6902  1.3996 -0.8604
12034TIP3    H257518   6.184   4.067  10.725 -2.3487  4.0657 -2.3160
12035TIP3   OH257519   4.567   0.887  14.610  0.7889  0.1341 -0.6027
12035TIP3    H157520   4.644   0.916  14.659 -0.2358 -0.5644  1.5562
12035TIP3    H257521   4.567   0.792  14.619 -1.3330  0.2167  1.1765
12036TIP3   OH257522   0.527   4.339  11.936 -0.1011  0.3947  0.6569
12036TIP3    H157523   0.445   4.353  11.889  0.5936  2.0512 -0.1888
12036TIP3    H257524   0.595   4.355  11.870  0.9112 -0.5040  1.4406
12037TIP3   OH257525   0.301   3.875  15.998 -0.4872 -0.6377 -0.4200
12037TIP3    H157526   0.286   3.943  15.932 -0.2398 -0.1280  0.0349
12037TIP3    H257527   0.277   3.917  16.081 -0.6782 -1.2303 -0.1744
12038TIP3   OH257528   6.303   0.655   1.556 -0.5682  0.4753  0.7578
12038TIP3    H157529   6.299   0.563   1.582  0.4809  0.0094 -0.5825
12038TIP3    H257530   6.261   0.658   1.470 -1.5686  1.4673  1.2493
12039TIP3   OH257531   5.614   6.296  17.170 -0.2628 -0.3108  0.6585
12039TIP3    H157532   5.644   6.219  17.123 -0.8435 -0.0008 -0.2586
12039TIP3    H257533   5.653   6.370  17.123 -0.7410 -0.0012  0.7395
12040TIP3   OH257534   2.241   0.068   0.736 -0.6563 -0.0358 -0.4880
12040TIP3    H157535   2.166   0.008   0.739 -0.1261 -0.7738 -1.4567
12040TIP3    H257536   2.267   0.079   0.828  0.2014 -2.5560 -0.3717
12041TIP3   OH257537   4.383   4.324  14.042  0.0675 -0.5281  0.0339
12041TIP3    H157538   4.301   4.371  14.059 -0.6030 -1.6458  0.0087
12041TIP3    H257539   4.409   4.290  14.128  2.1580  2.2972  0.6548
12042TIP3   OH257540   3.432   0.799  13.114  0.2876  0.1007 -0.1962
12042TIP3    H157541   3.450   0.875  13.170 -0.4064  0.1466 -0.0230
12042TIP3    H257542   3.337   0.795  13.110  0.3187  0.3380 -1.6982
12043TIP3   OH257543   2.414   0.248   0.568 -0.5055  0.7954  0.0574
12043TIP3    H157544   2.482   0.299   0.524 -0.7535  0.5086 -0.6666
12043TIP3    H257545   2.433   0.259   0.662  0.4374  0.8503 -0.1309
12044TIP3   OH257546   1.423   4.756   0.776  0.3722  0.6770  0.0064
12044TIP3    H157547   1.517   4.764   0.794  0.6039  0.0961 -0.8939
12044TIP3    H257548   1.401   4.837   0.730  0.5016  0.6739 -0.0621
12045TIP3   OH257549   6.401   4.504   5.507 -0.2646  0.6803  0.8502
12045TIP3    H157550   6.380   4.413   5.487 -2.2671  1.3263 -0.2439
12045TIP3    H257551   6.432   4.540   5.423  2.8418  0.4857  1.7840
12046TIP3   OH257552   2.596   0.272   4.686 -0.1137 -0.0189  0.4142
12046TIP3    H157553   2.587   0.178   4.666 -0.0485 -0.5058  2.3972
12046TIP3    H257554   2.674   0.299   4.638  1.6017 -1.7330  2.0390
12047TIP3   OH257555   6.634   3.590   0.440  0.4303  0.2764  0.7945
12047TIP3    H157556   6.695   3.623   0.507 -0.9917  0.5893  1.9710
12047TIP3    H257557   6.568   3.659   0.432  1.1508  0.7581 -1.7864
12048TIP3   OH257558   4.924   5.987  14.991 -0.4751  0.4440 -0.2835
12048TIP3    H157559   4.855   5.960  14.929  0.1481  1.0870 -1.2717
12048TIP3    H257560   4.945   6.076  14.966 -0.5404  0.8936  1.1892
12049TIP3   OH257561   6.204   6.199   3.418  0.4107  0.3048 -0.2818
12049TIP3    H157562   6.180   6.287   3.390 -0.8082 -0.3029 -1.2352
12049TIP3    H257563   6.294   6.207   3.449  0.9872  1.5318 -2.1147
12050TIP3   OH257564   5.205   1.743   0.205  0.1279 -0.4057 -0.0990
12050TIP3    H157565   5.140   1.695   0.255 -0.8090 -0.7774 -1.6038
12050TIP3    H257566   5.213   1.827   0.250 -3.5753  0.8510 -1.3906
12051TIP3   OH257567   4.860   1.999  13.971  0.8966  0.0393 -0.3243
12051TIP3    H157568   4.837   1.943  13.897 -1.3951 -1.3461  1.3364
12051TIP3    H257569   4.792   1.983  14.036  1.9674  2.3587  1.5202
12052TIP3   OH257570   2.874   6.652   3.355  0.2454  0.3095  0.1676
12052TIP3    H157571   2.887   6.580   3.293  1.7206  1.0384 -0.4287
12052TIP3    H257572   2.867   6.730   3.300 -0.0720  0.7747  0.8513
12053TIP3   OH257573   5.118   2.779   3.501 -0.3173 -0.3635 -0.0636
12053TIP3    H157574   5.198   2.768   3.449  0.3110 -0.6656  0.9353
12053TIP3    H257575   5.076   2.693   3.498  0.8534 -1.0589  1.7035
12054TIP3   OH257576   4.533   3.707  11.878 -0.2003 -0.5481  0.2682
12054TIP3    H157577   4.516   3.801  11.878 -0.6738 -0.6318  0.2676
12054TIP3    H257578   4.617   3.698  11.833  0.9811  0.0655  2.2205
12055TIP3   OH257579   3.067   4.275   0.500  0.0605 -0.6061  0.0660
12055TIP3    H157580   3.106   4.332   0.567  0.7677  0.5186 -1.2477
12055TIP3    H257581   2.976   4.264   0.528  0.6546 -1.2536  1.9004
12056TIP3   OH257582   5.049   0.478   5.447  0.2419 -0.0984 -0.6117
12056TIP3    H157583   5.090   0.529   5.517  0.6926  0.0766 -0.9963
12056TIP3    H257584   5.021   0.397   5.490  0.0365  0.2291 -0.1182
12057TIP3   OH257585   5.925   0.731   4.787 -0.3425  0.1279  0.4396
12057TIP3    H157586   5.923   0.696   4.875  0.5874  1.5225  1.0595
12057TIP3    H257587   5.849   0.788   4.782  0.2743  1.0077  0.7929
12058TIP3   OH257588   5.521   5.616   5.073  0.4057  0.0201 -0.1773
12058TIP3    H157589   5.615   5.631   5.067  0.5090 -0.9208 -1.1376
12058TIP3    H257590   5.484   5.657   4.995  0.0634  0.0673  0.0069
12059TIP3   OH257591   4.909   1.893   6.796 -0.2081  0.6864  0.3283
12059TIP3    H157592   4.846   1.882   6.867  0.6679  1.3779  1.2279
12059TIP3    H257593   4.950   1.807   6.786  0.6701  0.9290  1.6392
12060TIP3   OH257594   0.749   0.141  16.931  0.0778  0.0734 -0.0634
12060TIP3    H157595   0.726   0.232  16.911  0.1820  0.2381  0.5484
12060TIP3    H257596   0.685   0.089  16.883 -1.3685  0.5189  1.2982
12061TIP3   OH257597   0.446   5.127  10.365 -0.0179 -0.1240  0.2794
12061TIP3    H157598   0.510   5.186  10.324 -1.2640  1.3512  0.3904
12061TIP3    H257599   0.438   5.159  10.455  0.5659 -1.5713  0.8736
12062TIP3   OH257600   1.099   5.171  12.007  0.2159 -0.4495 -0.6775
12062TIP3    H157601   1.012   5.172  12.047  0.3968  1.4900 -0.2215
12062TIP3    H257602   1.159   5.172  12.081  0.5753  0.8508 -0.9596
12063TIP3   OH257603   4.363   1.741  16.022  0.0509 -0.0425 -0.3140
12063TIP3    H157604   4.447   1.760  16.064 -0.0819 -0.5999  0.2147
12063TIP3    H257605   4.305   1.810  16.054  0.1494 -0.0153 -0.1923
12064TIP3   OH257606   4.230   3.890   2.620 -0.0616  0.1839  0.3256
12064TIP3    H157607   4.247   3.816   2.562  2.6136  0.3026  0.8417
12064TIP3    H257608   4.281   3.962   2.582  2.0443  0.2003  2.8627
12065TIP3   OH257609   6.292   0.112   1.156  0.3729  0.4447 -0.2022
12065TIP3    H157610   6.325   0.157   1.233 -0.5498 -0.8471  0.9944
12065TIP3    H257611   6.199   0.134   1.153  0.0266 -0.9049  0.0889
12066TIP3   OH257612   3.567   3.393   5.630  0.2485 -0.2448  0.7314
12066TIP3    H157613   3.486   3.444   5.630  0.4656  0.1005  0.8659
12066TIP3    H257614   3.616   3.426   5.555 -0.0137 -0.9005  0.2682
12067TIP3   OH257615   1.665   6.451   4.813  0.3585 -0.4688  0.0316
12067TIP3    H157616   1.634   6.462   4.903  1.9351 -1.7869  0.7992
12067TIP3    H257617   1.668   6.540   4.777  0.8009  0.2203  1.6897
12068TIP3   OH257618   4.004   2.559   2.187  0.3728 -0.4203 -0.4645
12068TIP3    H157619   3.990   2.471   2.150 -0.4595 -0.4471 -0.1007
12068TIP3    H257620   4.031   2.543   2.277 -1.1121 -0.2913  0.0256
12069TIP3   OH257621   2.328   6.769   1.363  0.1842  0.5093 -0.2010
12069TIP3    H157622   2.289   6.718   1.292  1.4415 -1.0912  0.1941
12069TIP3    H257623   2.408   6.806   1.325  1.0127 -0.5883  0.4258
12070TIP3   OH257624   2.982   2.090   4.361 -0.1457 -0.8728  0.2628
12070TIP3    H157625   3.073   2.062   4.371  0.6362  0.4934 -2.2406
12070TIP3    H257626   2.956   2.059   4.274 -1.5643  0.0646  0.3088
12071TIP3   OH257627   1.907   1.073  15.530  0.1439 -0.7793  0.0960
12071TIP3    H157628   1.991   1.079  15.575 -1.1441 -1.2445  2.7846
12071TIP3    H257629   1.922   1.012  15.458  2.6545  1.0664 -1.0835
12072TIP3   OH257630   1.566   2.753  12.697  0.4531 -0.0388 -0.1414
12072TIP3    H157631   1.535   2.838  12.666 -1.6156 -0.1194  1.5179
12072TIP3    H257632   1.499   2.691  12.667  0.1604 -0.5689  1.5399
12073TIP3   OH257633   3.656   1.701   4.790 -0.0924 -0.4663  0.0758
12073TIP3    H157634   3.686   1.620   4.831  0.3890 -1.1216 -1.4877
12073TIP3    H257635   3.669   1.687   4.696  0.3175  1.5467 -0.2311
12074TIP3   OH257636   2.047   3.251   1.560  0.1865 -0.3128  0.2605
12074TIP3    H157637   2.131   3.209   1.580 -0.0375 -0.6257  0.5626
12074TIP3    H257638   2.006   3.264   1.646 -0.1358 -0.2945  0.1068
12075TIP3   OH257639   1.648   6.646  15.632 -0.3775 -0.0212 -0.3331
12075TIP3    H157640   1.675   6.554  15.645 -0.5123 -0.0025  0.1068
12075TIP3    H257641   1.723   6.686  15.588  0.5921  0.1613  1.3688
12076TIP3   OH257642   5.726   3.441   6.222 -0.0358 -0.9417 -0.3104
12076TIP3    H157643   5.791   3.448   6.291 -0.2006  2.3271 -0.3714
12076TIP3    H257644   5.650   3.400   6.265  0.3598 -0.2588  1.0800
12077TIP3   OH257645   4.809   5.217  10.541  0.2204 -0.3324 -0.1483
12077TIP3    H157646   4.726   5.222  10.494 -0.3192 -0.6406  0.7545
12077TIP3    H257647   4.811   5.295  10.596 -0.5515 -1.4471  1.5388
12078TIP3   OH257648   3.384   1.620   6.179  0.4517 -0.0527 -0.5050
12078TIP3    H157649   3.391   1.668   6.261 -1.1128  0.5767 -0.7001
12078TIP3    H257650   3.290   1.603   6.169  0.8374 -2.1598 -1.0327
12079TIP3   OH257651   0.893   1.780  13.609  0.8502  0.2752  0.1785
12079TIP3    H157652   0.981   1.804  13.579  0.8009  0.3322  0.0772
12079TIP3    H257653   0.871   1.848  13.672  1.3186 -0.3469  1.0330
12080TIP3   OH257654   1.113   2.364   4.988 -0.5179 -0.3236 -0.2282
12080TIP3    H157655   1.042   2.426   5.004 -2.2384 -2.4160  0.7865
12080TIP3    H257656   1.151   2.348   5.074 -0.4647 -1.0690 -0.3824
12081TIP3   OH257657   6.680   4.919  11.939  0.1544 -0.5226  0.7461
12081TIP3    H157658   6.636   4.998  11.907  1.6338  0.3647  0.7876
12081TIP3    H257659   6.638   4.847  11.893 -0.0937  0.4375 -0.5857
12082TIP3   OH257660   6.366   1.716  13.481 -0.2389 -0.6781  0.0822
12082TIP3    H157661   6.285   1.668  13.496 -1.0982  0.6820 -0.1231
12082TIP3    H257662   6.411   1.714  13.566  0.2899 -2.7532 -0.1795
12083TIP3   OH257663   4.801   2.318   0.575  0.1689 -0.3848  0.1679
12083TIP3    H157664   4.744   2.274   0.513 -1.0482  1.6507 -0.2465
12083TIP3    H257665   4.748   2.326   0.654 -0.5720  2.3837 -0.5258
12084TIP3   OH257666   5.755   0.704  12.627 -0.0263  0.0861 -0.4686
12084TIP3    H157667   5.775   0.616  12.597  0.6800 -0.5011  1.5750
12084TIP3    H257668   5.676   0.728  12.579  0.3735 -1.2055 -1.8614
12085TIP3   OH257669   1.596   3.684   2.044 -0.3073  0.5572 -0.6823
12085TIP3    H157670   1.616   3.590   2.047  0.9418  0.7773 -1.6586
12085TIP3    H257671   1.678   3.726   2.021  0.1115  2.2640  3.0939
12086TIP3   OH257672   3.924   1.087   1.041  0.4557  0.0370  0.2620
12086TIP3    H157673   3.873   1.072   1.121 -0.4837 -0.1967 -0.3542
12086TIP3    H257674   3.991   1.150   1.066  0.2435 -0.1172  1.2578
12087TIP3   OH257675   4.567   0.492   5.287  0.4326 -0.1980 -0.2956
12087TIP3    H157676   4.654   0.470   5.254  0.1962  0.3971 -1.3639
12087TIP3    H257677   4.512   0.418   5.262  0.3045  0.1451 -1.0550
12088TIP3   OH257678   4.194   5.339   4.526 -0.0519  0.3248  0.3258
12088TIP3    H157679   4.253   5.313   4.597 -0.7547  1.4450  1.3581
12088TIP3    H257680   4.236   5.307   4.446  1.0186 -0.5030  1.1988
12089TIP3   OH257681   5.539   6.587  14.803  0.2545  0.2113 -0.4981
12089TIP3    H157682   5.513   6.519  14.865  0.2405 -0.3136 -1.0592
12089TIP3    H257683   5.459   6.608  14.756 -0.1949  2.0513  0.9789
12090TIP3   OH257684   6.549   4.519  16.357 -0.0502 -0.2552 -0.4940
12090TIP3    H157685   6.571   4.530  16.264 -0.8474 -2.3247 -0.9893
12090TIP3    H257686   6.504   4.600  16.381 -0.1852  0.1625 -2.0304
12091TIP3   OH257687   3.268   3.014   6.473  1.0733 -0.2103 -0.3316
12091TIP3    H157688   3.265   3.101   6.511  3.5451 -1.1595  2.4463
12091TIP3    H257689   3.222   2.959   6.536  1.1035 -1.1599 -1.1173
12092TIP3   OH257690   2.575   2.340   2.033 -0.3200  0.0645 -0.7391
12092TIP3    H157691   2.670   2.345   2.025 -0.1940 -0.3310  0.3536
12092TIP3    H257692   2.544   2.427   2.008  0.4201  0.5620  0.0130
12093TIP3   OH257693   4.359   4.805   4.412 -0.1902  0.5031 -0.0055
12093TIP3    H157694   4.372   4.896   4.437  1.4734 -0.0218  1.2613
12093TIP3    H257695   4.444   4.777   4.379 -0.5823 -0.6647 -0.0755
12094TIP3   OH257696   3.157   6.718  15.659  0.3716 -0.1343 -0.0712
12094TIP3    H157697   3.062   6.718  15.665  0.3249 -1.6544 -0.5449
12094TIP3    H257698   3.176   6.723  15.565  0.7711  0.2188  0.0222
12095TIP3   OH257699   6.497   0.443   2.006 -0.0236 -0.4794 -0.0969
12095TIP3    H157700   6.485   0.352   2.032 -0.8583 -0.1821  0.5967
12095TIP3    H257701   6.591   0.452   1.993  0.3308 -0.9101  1.8908
12096TIP3   OH257702   1.746   0.956  14.646  0.5382 -1.0453 -0.2706
12096TIP3    H157703   1.823   0.899  14.641  2.8393  1.7016  1.0997
12096TIP3    H257704   1.732   0.986  14.557  1.9789 -0.4877 -0.3294
12097TIP3   OH257705   4.867   3.936   2.585  0.2818  0.3291  0.0350
12097TIP3    H157706   4.916   3.940   2.503  0.2337  2.0802  0.0567
12097TIP3    H257707   4.776   3.953   2.560 -0.1412 -1.6093  0.1628
12098TIP3   OH257708   0.736   4.375   6.507  0.7507 -0.0333 -0.1365
12098TIP3    H157709   0.654   4.337   6.538  1.2725 -1.0452  0.0478
12098TIP3    H257710   0.755   4.447   6.567 -1.1861  1.7824 -1.5435
12099TIP3   OH257711   5.581   6.060   1.919 -0.1030 -0.5135  0.5290
12099TIP3    H157712   5.627   6.144   1.912 -1.6261  0.2408 -1.6293
12099TIP3    H257713   5.546   6.059   2.008 -0.2882  1.2728  0.5067
12100TIP3   OH257714   6.660   3.175   6.260 -0.0800 -0.1818 -0.4462
12100TIP3    H157715   6.738   3.196   6.311 -0.4624  0.4093 -0.1006
12100TIP3    H257716   6.690   3.109   6.197  0.1327 -1.8610  1.3102
12101TIP3   OH257717   0.759   0.405  17.126 -0.8260  0.0217  0.1073
12101TIP3    H157718   0.687   0.443  17.075  0.2957  2.2342  0.0693
12101TIP3    H257719   0.753   0.450  17.211  2.3041  2.6471 -0.8883
12102TIP3   OH257720   4.377   2.056  15.843 -0.3452 -0.0693  0.2756
12102TIP3    H157721   4.465   2.070  15.878 -0.5827 -1.2395  1.4102
12102TIP3    H257722   4.392   2.013  15.758  0.1858 -0.2194  0.4366
12103TIP3   OH257723   2.290   0.521   3.380 -0.1894  0.8133  0.2355
12103TIP3    H157724   2.265   0.598   3.432 -0.1722  1.3887 -0.5808
12103TIP3    H257725   2.353   0.474   3.434  2.0877  2.9326 -0.3801
12104TIP3   OH257726   2.151   4.158   4.831  0.3717 -0.2939  0.0379
12104TIP3    H157727   2.189   4.094   4.890  0.1689 -0.0733  0.4095
12104TIP3    H257728   2.059   4.165   4.859 -0.2423 -1.5749 -1.4824
12105TIP3   OH257729   2.848   4.191  15.956 -0.2399 -0.1194 -0.5178
12105TIP3    H157730   2.809   4.235  15.880 -0.9888 -0.1183 -0.1362
12105TIP3    H257731   2.851   4.259  16.023  0.5176 -0.0927 -0.5728
12106TIP3   OH257732   1.124   6.775  11.006 -0.5336  0.2088 -0.5237
12106TIP3    H157733   1.081   6.824  10.936 -1.8605 -0.8959 -0.5304
12106TIP3    H257734   1.118   6.833  11.083 -1.0909  0.5070 -0.7846
12107TIP3   OH257735   6.487   4.132  16.540 -0.4167 -0.1072  0.8737
12107TIP3    H157736   6.456   4.090  16.459  0.9967  0.8303 -0.2052
12107TIP3    H257737   6.515   4.059  16.595 -1.6196 -0.7825  0.6546
12108TIP3   OH257738   3.934   2.236  17.145  0.1159  0.2598 -0.1921
12108TIP3    H157739   4.006   2.290  17.112 -0.7451  0.0802 -2.5287
12108TIP3    H257740   3.904   2.186  17.069 -0.9062 -1.4987  1.2812
12109TIP3   OH257741   6.274   5.246  16.944  0.2918  0.0915 -0.6193
12109TIP3    H157742   6.270   5.296  17.025  2.9535 -1.5180  0.6526
12109TIP3    H257743   6.340   5.291  16.891  1.9695 -1.3764  0.1241
12110TIP3   OH257744   0.281   6.127   6.288 -0.0909  0.0940  0.4188
12110TIP3    H157745   0.232   6.145   6.368 -0.3112  0.2534  0.2495
12110TIP3    H257746   0.217   6.139   6.218  0.0399 -0.2925  0.2347
12111TIP3   OH257747   1.937   3.750   2.547 -0.2744 -0.2083 -0.4370
12111TIP3    H157748   1.891   3.804   2.483 -0.4945 -0.8482 -0.8261
12111TIP3    H257749   1.994   3.694   2.495 -0.6371 -0.9071 -0.1010
12112TIP3   OH257750   4.544   0.703  14.064  0.4486  0.1208  0.3586
12112TIP3    H157751   4.451   0.728  14.064  0.4112  0.1380 -1.8989
12112TIP3    H257752   4.544   0.610  14.042  0.9877  0.1032  0.4282
12113TIP3   OH257753   1.012   6.134   3.812  0.0528  0.4553  0.1020
12113TIP3    H157754   0.984   6.211   3.862  1.7433  0.4937  1.0546
12113TIP3    H257755   0.936   6.111   3.759 -1.2008  1.5156  1.3565
12114TIP3   OH257756   3.512   2.087  14.892  0.4784  0.1819 -0.5468
12114TIP3    H157757   3.587   2.052  14.844 -0.4456 -2.5625 -0.1206
12114TIP3    H257758   3.521   2.051  14.980 -1.0256  0.3290 -0.3196
12115TIP3   OH257759   3.806   5.326   3.350 -0.5052 -0.1551 -0.2481
12115TIP3    H157760   3.846   5.284   3.427 -1.3980  0.3948  0.5347
12115TIP3    H257761   3.868   5.308   3.279 -1.0821 -3.3196 -0.1082
12116TIP3   OH257762   1.099   1.117   1.139  0.1743  0.2097 -0.6612
12116TIP3    H157763   1.097   1.078   1.227  0.2206  2.5687  0.4616
12116TIP3    H257764   1.186   1.096   1.105  0.8980  0.8975  0.6849
12117TIP3   OH257765   6.056   3.667  13.065 -0.6512 -0.3146 -0.4227
12117TIP3    H157766   6.101   3.625  13.139  2.4376  2.2059 -0.6741
12117TIP3    H257767   5.994   3.726  13.106  0.9654  0.9909  0.2688
12118TIP3   OH257768   6.126   0.441  15.038 -0.3006  0.5769 -0.4167
12118TIP3    H157769   6.164   0.518  14.995  1.2643  1.1012  1.7302
12118TIP3    H257770   6.052   0.476  15.087 -0.6741  0.3842 -0.8372
12119TIP3   OH257771   6.596   3.291   4.978 -0.2063  0.5334 -0.1171
12119TIP3    H157772   6.675   3.286   4.923 -0.3003 -2.2995 -0.1737
12119TIP3    H257773   6.629   3.298   5.067  0.0242  1.7313 -0.2816
12120TIP3   OH257774   1.554   0.255   3.468 -0.1112 -0.0702  0.1443
12120TIP3    H157775   1.544   0.349   3.451 -0.1972 -0.1380 -0.1724
12120TIP3    H257776   1.534   0.246   3.561 -2.5681 -0.1195 -0.3174
12121TIP3   OH257777   0.883   6.442   2.876 -0.4457  0.1708 -0.1064
12121TIP3    H157778   0.873   6.473   2.786 -0.4236  0.3894 -0.0356
12121TIP3    H257779   0.977   6.429   2.887 -0.4109  0.4851 -0.0068
12122TIP3   OH257780   2.248   6.025   2.679 -0.4050 -0.2166 -1.1714
12122TIP3    H157781   2.316   5.961   2.698 -0.2229  0.6179  1.4029
12122TIP3    H257782   2.293   6.109   2.682 -1.1413  0.2061 -1.7184
12123TIP3   OH257783   0.994   6.260  16.639  0.3992 -0.3286  0.4773
12123TIP3    H157784   0.993   6.305  16.554  0.6557 -0.2088  0.5346
12123TIP3    H257785   0.949   6.320  16.698 -0.9680 -1.0024  0.1446
12124TIP3   OH257786   1.628   6.124  14.048  0.7055 -0.0111  0.1579
12124TIP3    H157787   1.666   6.037  14.037 -0.8596 -1.0883  2.4477
12124TIP3    H257788   1.534   6.109  14.051  0.4494  1.5611  1.9281
12125TIP3   OH257789   3.129   6.140   3.208  0.4060  0.6522 -0.1238
12125TIP3    H157790   3.050   6.192   3.193 -0.0580  0.3470  1.1073
12125TIP3    H257791   3.108   6.086   3.284  1.9711  0.9261  0.5454
12126TIP3   OH257792   1.229   0.870   2.218  0.1130 -0.2642  0.3765
12126TIP3    H157793   1.140   0.903   2.235 -0.1375 -0.1972 -0.9223
12126TIP3    H257794   1.215   0.780   2.188  0.4929 -0.2942  0.2908
12127TIP3   OH257795   2.926   3.437  15.661  0.4019 -0.4991 -0.5558
12127TIP3    H157796   2.992   3.505  15.649 -0.3297  0.1034 -1.3549
12127TIP3    H257797   2.887   3.426  15.575 -2.8107  1.5930  0.4295
12128TIP3   OH257798   4.314   5.824  13.662  0.5894  0.7464 -0.1956
12128TIP3    H157799   4.403   5.828  13.699  0.1912 -1.3203  1.1835
12128TIP3    H257800   4.281   5.738  13.690 -1.1004  0.5843 -2.4267
12129TIP3   OH257801   1.468   6.095  16.530 -0.2586  0.3968 -0.3511
12129TIP3    H157802   1.484   6.039  16.454 -1.6292 -0.1179 -0.2796
12129TIP3    H257803   1.413   6.042  16.588  0.3020  0.9807  0.7648
12130TIP3   OH257804   4.656   3.220  16.301 -0.3735  0.7705  0.5568
12130TIP3    H157805   4.568   3.187  16.313 -0.9454  2.2618  0.7026
12130TIP3    H257806   4.665   3.291  16.365  1.6085 -0.5461  1.8658
12131TIP3   OH257807   3.265   0.965   0.633  0.0600 -0.2633 -0.2401
12131TIP3    H157808   3.239   1.017   0.709 -0.6900 -1.4374  0.3340
12131TIP3    H257809   3.212   0.999   0.561  0.6652  0.7555 -0.2164
12132TIP3   OH257810   6.313   2.377   1.236  0.2668 -0.3745 -0.3738
12132TIP3    H157811   6.343   2.450   1.182 -0.3039 -0.2694 -0.5632
12132TIP3    H257812   6.275   2.420   1.313 -1.4248 -0.3801 -1.1625
12133TIP3   OH257813   1.273   0.020   5.123  0.6989 -0.4851  0.3695
12133TIP3    H157814   1.315  -0.051   5.075 -0.1828 -0.8721  0.1450
12133TIP3    H257815   1.300   0.007   5.214  1.2732 -0.5611  0.1902
12134TIP3   OH257816   1.200   3.373   0.198  0.2052  0.1036  0.3550
12134TIP3    H157817   1.231   3.383   0.288 -3.3401  0.6018  1.6794
12134TIP3    H257818   1.160   3.286   0.197 -0.6798  0.5159 -0.4511
12135TIP3   OH257819   5.936   0.845   1.681 -0.5336  0.5718 -0.2671
12135TIP3    H157820   5.861   0.891   1.718 -0.7639  0.5161 -0.6593
12135TIP3    H257821   5.902   0.802   1.602 -0.7474 -1.6498  0.9490
12136TIP3   OH257822   2.391   6.327   4.073 -0.2325  0.1761  0.5801
12136TIP3    H157823   2.457   6.326   4.004 -0.1847 -3.6125  0.4984
12136TIP3    H257824   2.318   6.376   4.035  1.5399  2.3871 -0.2153
12137TIP3   OH257825   2.989   1.771  10.834 -0.1265 -0.4045 -0.1732
12137TIP3    H157826   2.898   1.797  10.818 -0.4799 -0.8985  0.9552
12137TIP3    H257827   3.021   1.835  10.898  0.7452  0.5389 -1.4870
12138TIP3   OH257828   1.678   2.269   2.753 -0.7763 -0.0064  0.2006
12138TIP3    H157829   1.755   2.297   2.801  0.0514 -1.2306 -0.3810
12138TIP3    H257830   1.672   2.175   2.768 -1.5225 -0.1119 -0.6494
12139TIP3   OH257831   1.376   0.179  13.822  0.6853  0.0615 -0.0565
12139TIP3    H157832   1.302   0.227  13.859 -0.4976 -1.6787 -0.0557
12139TIP3    H257833   1.442   0.179  13.891 -0.6453 -1.2668  1.2938
12140TIP3   OH257834   3.731   0.331  12.912 -0.4988 -0.9005  0.2260
12140TIP3    H157835   3.663   0.266  12.930  0.2867 -1.5745  0.8255
12140TIP3    H257836   3.755   0.365  12.998 -0.6394 -0.0735 -0.0495
12141TIP3   OH257837   0.973   2.694   5.409 -0.1697  0.1528 -0.3397
12141TIP3    H157838   0.878   2.690   5.420 -0.1345 -0.3570 -0.1653
12141TIP3    H257839   1.007   2.661   5.492  0.1721  0.9404 -0.1607
12142TIP3   OH257840   2.146   5.072   6.002 -0.2648  0.0760  0.2479
12142TIP3    H157841   2.098   4.994   5.974 -0.2736 -0.5956  2.0203
12142TIP3    H257842   2.143   5.130   5.926 -0.2245 -1.6513 -1.1291
12143TIP3   OH257843   1.020   5.188   0.089  0.4014  0.4155 -0.4933
12143TIP3    H157844   1.082   5.198   0.162 -0.3715  0.7086  0.1439
12143TIP3    H257845   1.066   5.132   0.026  2.4909  2.9708 -1.4075
12144TIP3   OH257846   2.992   2.000   0.851 -0.2467  0.2981 -0.1418
12144TIP3    H157847   2.963   2.009   0.760  0.6839  3.0338 -0.2621
12144TIP3    H257848   3.081   1.966   0.844 -0.0250  0.9003 -0.2858
12145TIP3   OH257849   1.075   4.415  11.433  0.1033  0.8035 -0.0591
12145TIP3    H157850   1.055   4.466  11.355 -2.3779 -0.3159 -0.2426
12145TIP3    H257851   1.168   4.430  11.448  0.6294  1.2453 -3.0841
12146TIP3   OH257852   1.961   1.426  15.824  0.5988  0.0888  0.1746
12146TIP3    H157853   1.910   1.505  15.840  1.0984  0.5546 -0.4583
12146TIP3    H257854   1.976   1.389  15.911 -2.3949 -1.1273  0.2798
12147TIP3   OH257855   4.982   5.089   0.895  0.1782  0.2170 -0.2299
12147TIP3    H157856   5.055   5.028   0.897  0.1391  0.1796  0.0003
12147TIP3    H257857   4.914   5.043   0.846  0.2089  0.1438 -0.2037
12148TIP3   OH257858   5.808   6.561  17.126 -0.1588  0.2221  0.3682
12148TIP3    H157859   5.852   6.522  17.050  0.8195 -0.3530  1.2163
12148TIP3    H257860   5.739   6.616  17.087 -0.2161 -0.7024 -0.9111
12149TIP3   OH257861   3.295   6.286  12.446 -0.6446  0.0163  0.4392
12149TIP3    H157862   3.249   6.356  12.493 -1.9006 -0.5680  0.1268
12149TIP3    H257863   3.236   6.263  12.374 -1.4989 -3.0810  1.9528
12150TIP3   OH257864   2.984   6.350  12.617 -0.6548 -0.3242 -0.1996
12150TIP3    H157865   2.973   6.322  12.708  1.3071 -0.3452  0.0786
12150TIP3    H257866   2.973   6.271  12.565  0.1081 -0.7027  0.1991
12151TIP3   OH257867   1.645   5.748  15.491 -0.2635  0.2369  0.1083
12151TIP3    H157868   1.701   5.798  15.432 -0.8089 -0.2329 -0.8462
12151TIP3    H257869   1.603   5.814  15.546 -1.2845  0.9189 -1.4006
12152TIP3   OH257870   6.271   0.726  13.773 -0.0491 -0.3351 -0.1934
12152TIP3    H157871   6.275   0.818  13.746 -0.0488 -0.9344 -2.4656
12152TIP3    H257872   6.362   0.702  13.790  0.2615 -0.5008 -1.9175
12153TIP3   OH257873   4.746   0.706  13.831  0.0717  0.0251  0.2557
12153TIP3    H157874   4.753   0.664  13.917  1.3431  0.0908  0.2008
12153TIP3    H257875   4.681   0.653  13.785 -0.4082 -0.1904  1.1418
12154TIP3   OH257876   1.198   0.354  15.301  0.1581  0.0208  0.8844
12154TIP3    H157877   1.240   0.268  15.295 -0.1300 -0.0261 -0.9787
12154TIP3    H257878   1.113   0.337  15.342 -0.4790 -0.8377 -0.7103
12155TIP3   OH257879   6.774   1.323   4.247 -0.2930 -0.1108  0.4525
12155TIP3    H157880   6.823   1.401   4.221  0.6179 -0.5428  0.8416
12155TIP3    H257881   6.751   1.281   4.164  0.7067 -0.3289  0.2794
12156TIP3   OH257882   1.372   2.664   5.475  0.2005  0.4826 -0.3359
12156TIP3    H157883   1.428   2.641   5.549 -1.2744  1.1486  1.0497
12156TIP3    H257884   1.409   2.616   5.401  0.7983 -1.4910  1.1490
12157TIP3   OH257885   0.498   0.760  14.771 -0.9000 -0.3832 -0.3759
12157TIP3    H157886   0.484   0.709  14.851 -2.7597 -3.2628 -2.3040
12157TIP3    H257887   0.432   0.829  14.775 -0.0128  0.4342  1.1625
12158TIP3   OH257888   3.021   0.161  15.213  0.0902  0.6433 -0.7250
12158TIP3    H157889   3.022   0.257  15.210 -1.6347  0.7394  0.7046
12158TIP3    H257890   2.951   0.136  15.153  0.6260  0.2580 -1.1982
12159TIP3   OH257891   4.865   0.325  12.531 -0.4329 -0.2549 -0.0676
12159TIP3    H157892   4.865   0.415  12.564 -1.9782 -0.4049  0.4130
12159TIP3    H257893   4.928   0.326  12.458  1.2099  0.6608  1.2898
12160TIP3   OH257894   5.479   1.698   4.211 -0.0992  0.0678 -0.4604
12160TIP3    H157895   5.508   1.609   4.232  0.4651  0.2634 -0.3841
12160TIP3    H257896   5.435   1.729   4.289  0.2310  0.0702 -0.2743
12161TIP3   OH257897   0.489   6.759   4.987  0.0107 -0.4076  0.0107
12161TIP3    H157898   0.445   6.830   4.940  0.4849 -0.5530 -0.6770
12161TIP3    H257899   0.419   6.715   5.035 -0.5483 -0.4403 -0.8103
12162TIP3   OH257900   2.801   1.375  15.745  0.1126  0.2323  0.5445
12162TIP3    H157901   2.733   1.441  15.732  0.1692  0.0289 -0.9235
12162TIP3    H257902   2.848   1.372  15.662  0.5157 -1.2082  0.7909
12163TIP3   OH257903   1.976   6.290   3.121 -0.3248  0.6484 -0.7069
12163TIP3    H157904   2.052   6.252   3.166 -1.6612 -1.7911 -0.3496
12163TIP3    H257905   1.948   6.362   3.178 -0.3011 -0.5970  0.9425
12164TIP3   OH257906   1.145   1.532  13.366  0.1898 -0.3007 -0.1349
12164TIP3    H157907   1.207   1.495  13.303 -0.1128  0.1743 -0.7322
12164TIP3    H257908   1.186   1.518  13.451  0.5114 -1.1460 -0.4201
12165TIP3   OH257909   5.451   6.588  13.323  0.4287 -0.1562 -0.3248
12165TIP3    H157910   5.367   6.631  13.336 -0.3799 -1.9033  0.4746
12165TIP3    H257911   5.510   6.630  13.385 -0.4220 -0.4062  0.6715
12166TIP3   OH257912   4.144   1.721   3.776  0.4662 -0.1951 -0.2219
12166TIP3    H157913   4.132   1.639   3.823 -0.8474 -0.8785 -1.6476
12166TIP3    H257914   4.222   1.706   3.722  0.5661 -0.2985 -0.0485
12167TIP3   OH257915   5.488   2.758   5.737  0.4702 -0.4323  0.6129
12167TIP3    H157916   5.565   2.774   5.683 -0.3858 -1.3657 -0.9652
12167TIP3    H257917   5.439   2.691   5.689  0.1663 -2.0886  3.0820
12168TIP3   OH257918   6.456   1.888  16.916 -0.2771 -0.1422 -0.2518
12168TIP3    H157919   6.502   1.946  16.976  1.6662  1.5215 -3.1478
12168TIP3    H257920   6.513   1.812  16.907 -0.5734 -0.3969 -0.0210
12169TIP3   OH257921   1.497   3.874  15.463 -0.5307 -0.5239 -0.5561
12169TIP3    H157922   1.570   3.824  15.426 -1.3222 -2.4954  0.3912
12169TIP3    H257923   1.528   3.903  15.549 -0.6315 -0.8134 -0.4202
12170TIP3   OH257924   3.678   1.056  15.427  0.6668  0.1516 -0.1907
12170TIP3    H157925   3.597   1.107  15.416  0.5032 -0.2687 -1.0293
12170TIP3    H257926   3.736   1.114  15.476 -0.5419  0.0252  1.4750
12171TIP3   OH257927   5.000   1.357  11.770  0.0713  0.3654  0.4378
12171TIP3    H157928   5.017   1.359  11.864 -0.2597 -0.2354  0.5170
12171TIP3    H257929   5.064   1.296  11.735  0.6962  1.1650  0.1542
12172TIP3   OH257930   5.752   2.026  15.127  0.0996 -0.2895 -0.3330
12172TIP3    H157931   5.744   2.052  15.219 -0.1344 -1.5412  0.0251
12172TIP3    H257932   5.694   1.950  15.119  1.0636 -0.9566 -1.2118
12173TIP3   OH257933   6.376   2.879   1.417  0.1509 -0.3791  0.0663
12173TIP3    H157934   6.468   2.857   1.432 -0.2296 -1.4509  0.9693
12173TIP3    H257935   6.361   2.860   1.324  0.6005 -1.0925  0.1391
12174TIP3   OH257936   6.521   0.700   0.181  0.1225  0.1015 -0.6165
12174TIP3    H157937   6.586   0.651   0.130 -1.0110 -0.2445 -1.7571
12174TIP3    H257938   6.547   0.685   0.272  1.9413  0.3958 -1.0522
12175TIP3   OH257939   5.049   6.190   0.807 -0.4189  0.5158 -0.4603
12175TIP3    H157940   5.081   6.261   0.752  0.1217  0.7262  0.1103
12175TIP3    H257941   5.120   6.175   0.870 -0.8508  0.0011 -0.0898
12176TIP3   OH257942   0.080   5.035   2.650 -1.2162 -0.2590 -0.1475
12176TIP3    H157943   0.032   5.050   2.732 -1.8289  2.4232 -0.9294
12176TIP3    H257944   0.053   5.106   2.592  0.0488 -1.4542 -2.3282
12177TIP3   OH257945   0.208   0.169   4.353 -0.4463  0.0350 -0.4917
12177TIP3    H157946   0.198   0.142   4.262 -0.8240  0.7430 -0.6659
12177TIP3    H257947   0.145   0.114   4.401 -0.5066 -0.0808 -0.7032
12178TIP3   OH257948   6.022   1.912  13.625  0.4601 -0.2650 -0.0306
12178TIP3    H157949   6.102   1.900  13.676  0.1920 -1.0970  0.2031
12178TIP3    H257950   6.052   1.944  13.540  1.1516 -1.7506 -0.3694
12179TIP3   OH257951   2.916   3.425  12.670  0.0541 -0.2908 -0.0171
12179TIP3    H157952   2.870   3.453  12.591 -1.3433 -0.2637  0.7722
12179TIP3    H257953   2.889   3.334  12.682  0.4525 -0.3698  0.2994
12180TIP3   OH257954   2.629   4.805  16.686 -0.2432  0.1654 -0.4983
12180TIP3    H157955   2.722   4.792  16.669 -0.2014 -0.6862  0.3180
12180TIP3    H257956   2.623   4.893  16.722  0.0378  0.8149 -1.9737
12181TIP3   OH257957   1.853   2.535   1.770 -0.0904  0.4251 -0.2048
12181TIP3    H157958   1.786   2.472   1.794 -1.1972  1.5787 -0.1296
12181TIP3    H257959   1.908   2.489   1.707 -0.0991 -1.0061  0.8029
12182TIP3   OH257960   0.579   5.084  13.002 -0.2987  0.3325  0.6711
12182TIP3    H157961   0.606   5.075  13.093 -0.5394 -0.3252  0.6818
12182TIP3    H257962   0.608   5.172  12.977 -0.7741  0.7490  1.5527
12183TIP3   OH257963   0.866   1.232  14.788 -0.7382 -0.0032 -0.3780
12183TIP3    H157964   0.835   1.152  14.832  0.9964 -0.6692 -0.2672
12183TIP3    H257965   0.952   1.248  14.826 -0.6593  1.3891 -1.0903
12184TIP3   OH257966   6.498   2.430  10.817 -0.2271  0.1310 -0.5722
12184TIP3    H157967   6.549   2.415  10.896  0.0728 -0.5783 -0.8906
12184TIP3    H257968   6.547   2.496  10.768 -0.3111  0.4244 -0.2650
12185TIP3   OH257969   3.716   1.689   1.161  0.1588  0.1412  0.1462
12185TIP3    H157970   3.779   1.661   1.227  0.8738  0.5210 -0.3583
12185TIP3    H257971   3.745   1.646   1.080 -0.6253 -0.2145  0.0375
12186TIP3   OH257972   2.095   2.165  16.543  0.0364 -0.2728  0.2419
12186TIP3    H157973   2.069   2.213  16.621  1.2069 -0.6343  0.8851
12186TIP3    H257974   2.013   2.140  16.501 -0.6325  2.1622 -0.0747
12187TIP3   OH257975   0.278   3.950   6.708  0.7874  0.0451 -0.1524
12187TIP3    H157976   0.254   3.858   6.700 -1.4827  0.5712  0.0050
12187TIP3    H257977   0.215   3.997   6.654  0.9173  1.6229  0.9748
12188TIP3   OH257978   0.776   4.629  10.798 -0.2571  0.2625 -0.4622
12188TIP3    H157979   0.725   4.580  10.863  1.1511 -0.6266  0.0190
12188TIP3    H257980   0.862   4.588  10.800  0.3229  1.3711 -1.6475
12189TIP3   OH257981   5.570   4.068  14.715  0.1910 -0.3913 -0.1903
12189TIP3    H157982   5.582   4.035  14.804  1.0887  0.8500  0.1685
12189TIP3    H257983   5.561   3.989  14.662  0.1957 -1.1641  0.9208
12190TIP3   OH257984   1.128   5.751   3.411  0.5333  0.5629  0.2321
12190TIP3    H157985   1.192   5.814   3.378 -0.0530  1.2498  0.3760
12190TIP3    H257986   1.179   5.671   3.427  0.9212  0.3372 -1.8609
12191TIP3   OH257987   1.404   1.778   4.803 -0.1312  0.8258 -0.1712
12191TIP3    H157988   1.434   1.710   4.742 -0.5439  0.7085 -0.2497
12191TIP3    H257989   1.459   1.768   4.880 -2.1668 -1.6810  1.1170
12192TIP3   OH257990   3.863   6.473   0.384  0.4583  0.3526  0.3082
12192TIP3    H157991   3.773   6.440   0.388  0.0925  0.9147 -1.8489
12192TIP3    H257992   3.872   6.527   0.462 -0.3705 -1.3444  1.6460
12193TIP3   OH257993   4.145   0.974  16.111 -0.2462 -0.4073  0.3010
12193TIP3    H157994   4.094   0.925  16.175 -0.2965 -0.3614  0.2963
12193TIP3    H257995   4.170   0.910  16.045 -3.2248  0.1406 -1.5657
12194TIP3   OH257996   4.213   2.969  14.093  0.0379  0.1352  0.1577
12194TIP3    H157997   4.126   2.976  14.132  0.8707  0.6518  2.0290
12194TIP3    H257998   4.244   3.059  14.088  1.0314 -0.1510  0.9032
12195TIP3   OH257999   1.418   6.615  15.469  0.0656  0.1093  0.5077
12195TIP3    H158000   1.488   6.637  15.529  0.4344  0.2512  0.0332
12195TIP3    H258001   1.347   6.584  15.525  1.2168 -2.0110  0.8937
12196TIP3   OH258002   3.009   0.504   4.741  0.2735 -0.8044  0.0668
12196TIP3    H158003   2.976   0.498   4.831  0.5181  1.2925  0.3519
12196TIP3    H258004   2.980   0.590   4.711  0.1303 -1.4876 -1.9173
12197TIP3   OH258005   1.037   5.602   0.371 -0.3386  0.4593 -0.3548
12197TIP3    H158006   1.083   5.674   0.327  0.1550  1.9273  2.3296
12197TIP3    H258007   1.086   5.588   0.452 -0.8382 -2.5053 -0.4652
12198TIP3   OH258008   0.502   0.993   4.546 -0.0422  0.2315 -0.1927
12198TIP3    H158009   0.435   0.938   4.506  0.0466 -0.4050  0.5337
12198TIP3    H258010   0.454   1.070   4.577  0.0234  1.2390 -2.3978
12199TIP3   OH258011   1.860   5.521  13.979  0.2943  0.1045 -0.2630
12199TIP3    H158012   1.925   5.559  14.038 -0.8257 -0.2508  1.2715
12199TIP3    H258013   1.885   5.429  13.973 -0.3059 -0.1476  0.7392
12200TIP3   OH258014   2.783   6.768   3.591  0.1458 -0.2686  0.0396
12200TIP3    H158015   2.773   6.854   3.552 -0.8345 -0.8801 -1.1077
12200TIP3    H258016   2.811   6.712   3.518 -1.6010 -1.4092  0.1969
12201TIP3   OH258017   6.483   0.998  12.886  0.0768  0.1203 -1.1960
12201TIP3    H158018   6.455   0.927  12.943  3.6008 -0.4740  0.0731
12201TIP3    H258019   6.497   1.073  12.944  3.7914 -0.5115 -1.0207
12202TIP3   OH258020   0.217   1.332  16.802 -0.3123  0.0949 -0.7986
12202TIP3    H158021   0.231   1.394  16.874  0.8797  1.0140 -1.7917
12202TIP3    H258022   0.167   1.261  16.842  1.0614  0.1482  1.1797
12203TIP3   OH258023   4.731   2.316   1.373 -0.3463 -0.0764  0.1399
12203TIP3    H158024   4.731   2.408   1.401 -0.5649  0.2385 -0.8604
12203TIP3    H258025   4.795   2.313   1.302  1.2089 -1.1393  1.4977
12204TIP3   OH258026   1.206   3.670   1.429 -0.1471  0.0560 -0.1369
12204TIP3    H158027   1.161   3.751   1.453  0.7023  0.9703 -1.4665
12204TIP3    H258028   1.273   3.698   1.366  3.3457 -0.9285  2.7744
12205TIP3   OH258029   5.734   6.352  11.635  0.1478 -0.4679 -0.0619
12205TIP3    H158030   5.653   6.400  11.616 -0.8664 -1.8664  0.5417
12205TIP3    H258031   5.776   6.401  11.705 -1.9832 -1.5445  2.1431
12206TIP3   OH258032   3.698   3.873   6.197 -0.0147  1.0664  0.2246
12206TIP3    H158033   3.708   3.955   6.245 -2.8944  0.8044  1.4773
12206TIP3    H258034   3.770   3.818   6.227  1.1015  2.5945  0.4524
12207TIP3   OH258035   0.640   0.666  15.963 -0.0248 -0.1862 -0.0935
12207TIP3    H158036   0.549   0.694  15.965  0.1170  0.4085 -1.0973
12207TIP3    H258037   0.666   0.678  15.871  1.4089  0.8241  0.4163
12208TIP3   OH258038   1.840   4.122   0.309 -0.2053  0.1586  0.3721
12208TIP3    H158039   1.890   4.085   0.382  1.9585 -0.4655 -1.3299
12208TIP3    H258040   1.783   4.051   0.280 -1.1266  0.4297  1.4357
12209TIP3   OH258041   6.005   0.860  12.544 -0.1528  0.4391  0.4853
12209TIP3    H158042   5.917   0.867  12.582 -0.6493 -0.2275 -0.4990
12209TIP3    H258043   5.990   0.844  12.451  1.0037 -0.4704  0.4265
12210TIP3   OH258044   3.013   4.913   0.229 -0.0470 -0.0646  0.1167
12210TIP3    H158045   2.989   4.980   0.165  0.9057 -0.3419 -0.5529
12210TIP3    H258046   3.044   4.839   0.176 -2.1311 -1.5074  0.7794
12211TIP3   OH258047   2.197   4.473  16.767 -0.0313  0.1673 -0.3969
12211TIP3    H158048   2.171   4.415  16.839 -1.6666  0.5846 -0.6119
12211TIP3    H258049   2.277   4.516  16.798 -0.5009  0.0746  1.0239
12212TIP3   OH258050   4.469   0.399  14.281 -0.3807 -0.2921  0.2273
12212TIP3    H158051   4.460   0.403  14.185 -3.5058 -2.3065  0.3104
12212TIP3    H258052   4.553   0.356  14.295  1.3589  2.2383 -1.4657
12213TIP3   OH258053   5.898   2.554   4.509 -0.4318  0.2054 -0.3400
12213TIP3    H158054   5.907   2.472   4.461 -0.5023 -0.0793  0.1314
12213TIP3    H258055   5.854   2.613   4.447  0.4150  0.1678 -0.9937
12214TIP3   OH258056   1.114   4.521  15.608  0.1218 -0.0360  0.7280
12214TIP3    H158057   1.037   4.497  15.558  0.1402 -0.7119  1.0218
12214TIP3    H258058   1.136   4.443  15.658  1.8445 -0.3489 -0.4150
12215TIP3   OH258059   0.533   1.201   0.937  0.9094  0.4150 -0.1232
12215TIP3    H158060   0.591   1.131   0.907  0.0828 -0.4766  0.2886
12215TIP3    H258061   0.486   1.163   1.011  0.9294  1.6509  0.5511
12216TIP3   OH258062   0.628   1.346  15.959  0.4992  0.0630 -0.3156
12216TIP3    H158063   0.534   1.328  15.963  0.5479  0.0005  1.3981
12216TIP3    H258064   0.665   1.296  16.032  1.7285  0.7992 -0.4027
12217TIP3   OH258065   6.562   1.603  16.001  0.0809  0.2155  0.0438
12217TIP3    H158066   6.570   1.559  15.916  0.1456 -1.1925  0.7498
12217TIP3    H258067   6.470   1.594  16.024  0.2565 -0.3083  0.5726
12218TIP3   OH258068   1.850   3.489  16.482 -0.2828 -0.0336 -0.4665
12218TIP3    H158069   1.919   3.442  16.434  0.1117  0.1553 -0.0898
12218TIP3    H258070   1.870   3.472  16.574  0.7710  2.1246 -0.2496
12219TIP3   OH258071   1.044   3.828   3.332  0.0692 -0.0699 -0.3442
12219TIP3    H158072   1.087   3.837   3.417  0.9273  0.0479 -0.7770
12219TIP3    H258073   1.093   3.886   3.273  0.0057 -0.7487 -1.0961
12220TIP3   OH258074   0.982   4.422   4.613 -0.1405 -0.3570 -0.2544
12220TIP3    H158075   1.076   4.441   4.612 -0.2390  0.1578 -0.0262
12220TIP3    H258076   0.946   4.474   4.540 -0.4013  0.2826  0.3229
12221TIP3   OH258077   6.464   0.609   2.241  0.0565  0.1747 -0.1977
12221TIP3    H158078   6.507   0.533   2.280 -0.9085 -0.1235  0.3076
12221TIP3    H258079   6.460   0.589   2.147 -2.0250 -1.3691  0.1510
12222TIP3   OH258080   6.494   4.652  12.558  0.4030  0.3608  0.5246
12222TIP3    H158081   6.449   4.671  12.476  2.8847 -0.6700 -1.1723
12222TIP3    H258082   6.449   4.575  12.593 -0.8462  0.9686  0.3350
12223TIP3   OH258083   5.929   6.010  15.265 -0.4971  0.3138  0.0420
12223TIP3    H158084   5.990   6.068  15.219 -0.5113  0.6921  0.4937
12223TIP3    H258085   5.843   6.037  15.234 -0.4556 -0.0307 -0.3807
12224TIP3   OH258086   3.512   3.850  13.096 -0.6729  0.2702 -0.2877
12224TIP3    H158087   3.461   3.871  13.018 -0.0755 -0.6485 -0.9394
12224TIP3    H258088   3.503   3.756  13.106  0.9133  0.0659 -0.4461
12225TIP3   OH258089   0.626   5.289   2.815 -0.1026 -0.1316 -0.4366
12225TIP3    H158090   0.537   5.280   2.849  0.0823  1.1489  0.4589
12225TIP3    H258091   0.615   5.290   2.720 -1.1721  1.0468 -0.3232
12226TIP3   OH258092   1.033   1.235   5.846  0.0031 -0.2673 -0.3165
12226TIP3    H158093   1.115   1.202   5.882 -0.9799  0.8270  3.3559
12226TIP3    H258094   1.039   1.330   5.857 -1.3055 -0.0831 -1.0036
12227TIP3   OH258095   5.167   1.587  15.875  0.4551 -0.4015  0.0972
12227TIP3    H158096   5.112   1.570  15.951 -0.2578  1.1299 -0.0403
12227TIP3    H258097   5.106   1.614  15.807  1.2716  0.1525 -0.4244
12228TIP3   OH258098   0.292   5.765   3.551  0.2971 -1.1066  0.0523
12228TIP3    H158099   0.317   5.839   3.496 -1.3175 -1.0854 -0.7341
12228TIP3    H258100   0.374   5.723   3.575  1.4736  2.0993  2.2973
12229TIP3   OH258101   5.426   3.552  11.628 -0.2389  0.7164  0.1645
12229TIP3    H158102   5.443   3.562  11.534 -1.5920 -1.5713 -0.4013
12229TIP3    H258103   5.498   3.497  11.659  0.7386  2.2486  0.7269
12230TIP3   OH258104   1.845   6.146  13.218 -0.2662 -0.3027  0.1033
12230TIP3    H158105   1.786   6.219  13.198 -0.3350 -0.4782 -0.3425
12230TIP3    H258106   1.839   6.136  13.313 -0.7312 -0.1309  0.0954
12231TIP3   OH258107   2.637   2.628   4.482  0.4383  0.2649  0.5592
12231TIP3    H158108   2.588   2.567   4.427  0.0390  1.3574 -0.3349
12231TIP3    H258109   2.650   2.581   4.564  1.5407 -1.6297 -0.6401
12232TIP3   OH258110   0.310   6.606   5.136  0.2422 -0.0129  0.1377
12232TIP3    H158111   0.302   6.640   5.225  1.2045 -0.2419  0.3202
12232TIP3    H258112   0.220   6.602   5.104 -0.2940 -1.4040  1.6465
12233TIP3   OH258113   4.211   0.268   1.740 -0.3946 -0.1207 -0.0176
12233TIP3    H158114   4.138   0.206   1.741 -0.9970  0.5612 -0.2560
12233TIP3    H258115   4.207   0.311   1.826  0.7671 -1.2304  0.6265
12234TIP3   OH258116   6.188   3.359  12.250  0.3571 -0.2943 -0.4732
12234TIP3    H158117   6.249   3.385  12.319 -0.4570  0.1331  0.0981
12234TIP3    H258118   6.133   3.436  12.237 -2.4665 -1.7903  1.6265
12235TIP3   OH258119   5.450   3.591  16.259  0.3050 -0.1015 -0.9849
12235TIP3    H158120   5.424   3.517  16.204 -1.5778 -0.9125  0.8571
12235TIP3    H258121   5.370   3.643  16.268  0.1135 -0.7320  2.0018
12236TIP3   OH258122   4.878   2.976  15.886  0.4460  0.2842 -0.3889
12236TIP3    H158123   4.848   3.055  15.932 -0.5559 -0.7932  0.8861
12236TIP3    H258124   4.913   2.920  15.955 -0.3906 -1.0592 -1.0255
12237TIP3   OH258125   5.312   6.528   4.972 -0.2941 -0.4119 -0.2030
12237TIP3    H158126   5.301   6.607   4.920  0.7937  0.6730  1.1422
12237TIP3    H258127   5.406   6.524   4.990 -0.5415 -1.1119  1.0879
12238TIP3   OH258128   0.971   3.209   0.084  0.1035  0.0695  0.3752
12238TIP3    H158129   0.933   3.122   0.072  2.7836 -1.4786  2.0829
12238TIP3    H258130   0.938   3.238   0.169  1.1246 -0.4088  0.9502
12239TIP3   OH258131   4.613   2.132   5.844 -0.3971 -0.3568  0.2380
12239TIP3    H158132   4.639   2.041   5.860 -1.2649 -0.4490  1.2586
12239TIP3    H258133   4.531   2.125   5.796 -0.6448 -0.1249  0.6217
12240TIP3   OH258134   1.480   3.186   4.917 -0.4509  0.1351  0.0338
12240TIP3    H158135   1.526   3.266   4.893 -0.1672 -0.1965 -0.5615
12240TIP3    H258136   1.407   3.181   4.855 -0.5042 -0.0338  0.1095
12241TIP3   OH258137   4.961   4.114  14.473  0.4396 -0.8121  0.1142
12241TIP3    H158138   5.030   4.162  14.518 -1.9158  1.3456  1.6644
12241TIP3    H258139   4.929   4.052  14.539 -0.3773 -0.4417  0.0702
12242TIP3   OH258140   1.835   5.732  11.564  0.1700 -0.8990 -0.7889
12242TIP3    H158141   1.914   5.690  11.599  0.4675 -1.3306 -1.9317
12242TIP3    H258142   1.779   5.659  11.537  0.5231 -0.5798 -2.4340
12243TIP3   OH258143   2.739   2.309   5.252  0.0805 -0.6959  0.5828
12243TIP3    H158144   2.772   2.301   5.341  0.5111 -1.2617  0.3741
12243TIP3    H258145   2.818   2.317   5.198 -0.1860  1.1090  0.3765
12244TIP3   OH258146   5.697   5.151   5.256 -0.6440 -0.2644  0.0920
12244TIP3    H158147   5.607   5.185   5.264 -1.0158 -1.2021 -0.0226
12244TIP3    H258148   5.691   5.061   5.289  0.3323 -0.2126  0.4224
12245TIP3   OH258149   0.010   4.754   0.240 -0.2398  0.0547 -0.0548
12245TIP3    H158150   0.027   4.800   0.158  0.7744  2.6195  1.4744
12245TIP3    H258151  -0.077   4.784   0.267  1.1636  2.8174  1.8771
12246TIP3   OH258152   0.131   0.904   1.465  0.6425  1.0223 -0.6752
12246TIP3    H158153   0.123   0.922   1.371  2.5742  0.9935 -0.8993
12246TIP3    H258154   0.123   0.989   1.507 -1.0890  0.9291 -0.7673
12247TIP3   OH258155   1.325   5.610  12.610 -0.3270 -0.2359 -0.0582
12247TIP3    H158156   1.367   5.616  12.524 -1.8416  0.5205 -0.8002
12247TIP3    H258157   1.394   5.630  12.672  0.7291 -0.4494 -1.1287
12248TIP3   OH258158   6.501   5.437   0.655 -0.0008  0.0012  0.8233
12248TIP3    H158159   6.405   5.438   0.646  0.0609 -0.9207 -0.1040
12248TIP3    H258160   6.520   5.353   0.695  0.5677 -0.8559 -1.1477
12249TIP3   OH258161   6.182   3.232  13.884  0.6784 -0.5679  0.0212
12249TIP3    H158162   6.185   3.327  13.885  0.2698 -0.5534  0.8777
12249TIP3    H258163   6.248   3.204  13.947  1.3593 -0.8817 -0.8134
12250TIP3   OH258164   2.400   4.932  15.786 -0.2428 -0.2387 -0.4531
12250TIP3    H158165   2.462   4.860  15.797  0.5977  0.2490 -1.8386
12250TIP3    H258166   2.405   4.955  15.694 -0.0829  1.9629  0.0543
12251TIP3   OH258167   0.456   4.197   6.096 -0.0516  0.4454  0.0587
12251TIP3    H158168   0.420   4.230   6.013 -1.7135  1.7833  1.2309
12251TIP3    H258169   0.512   4.268   6.127 -1.7659  1.2711  1.4487
12252TIP3   OH258170   3.417   3.115   0.421 -0.5524 -0.4401  0.6855
12252TIP3    H158171   3.367   3.071   0.490 -1.5578  0.2111  0.3931
12252TIP3    H258172   3.413   3.055   0.346 -1.0062 -0.3304  0.6224
12253TIP3   OH258173   5.788   4.645   3.324  0.1859  0.1910 -0.6309
12253TIP3    H158174   5.825   4.620   3.239  3.7410  1.7711  0.2893
12253TIP3    H258175   5.806   4.571   3.381 -0.5177 -0.1119 -0.7935
12254TIP3   OH258176   2.852   3.155  11.927 -0.2277 -0.1147 -0.1267
12254TIP3    H158177   2.841   3.065  11.956 -1.3870 -0.6955 -2.2285
12254TIP3    H258178   2.931   3.153  11.872  0.7550  0.5586  1.1839
12255TIP3   OH258179   2.641   4.872   3.717  0.6021 -0.3652 -0.4058
12255TIP3    H158180   2.652   4.819   3.796 -1.2200  2.2880  1.8253
12255TIP3    H258181   2.547   4.869   3.698  0.3451  2.1178  0.0125
12256TIP3   OH258182   2.177   5.232   5.255 -0.2215 -0.6519  0.4088
12256TIP3    H158183   2.268   5.204   5.266 -0.3898 -1.2014  0.4121
12256TIP3    H258184   2.175   5.320   5.292  0.4908 -0.3242 -0.2872
12257TIP3   OH258185   3.393   6.729   4.895 -0.1971  0.1185 -0.1409
12257TIP3    H158186   3.392   6.807   4.950  1.0740 -0.6369  1.0075
12257TIP3    H258187   3.340   6.753   4.819 -1.2889  1.4951  0.9868
12258TIP3   OH258188   3.931   4.094  14.389 -0.1277  0.4496  0.0910
12258TIP3    H158189   3.986   4.032  14.437  0.6633  0.4630 -0.7855
12258TIP3    H258190   3.842   4.059  14.400  0.4168 -1.6987 -1.5875
12259TIP3   OH258191   2.988   0.967  12.708  0.4718 -0.5567  0.1119
12259TIP3    H158192   2.971   0.940  12.798  2.2198 -2.6966 -0.1120
12259TIP3    H258193   2.916   0.929  12.657  1.7137 -3.0942  0.1151
12260TIP3   OH258194   3.710   1.191   3.895 -0.2357 -0.0986  0.0420
12260TIP3    H158195   3.689   1.178   3.803  0.6200 -0.3658 -0.1271
12260TIP3    H258196   3.767   1.118   3.917  0.3355  0.4785  0.5254
12261TIP3   OH258197   3.891   1.162  12.181 -0.8148 -0.1032 -0.3841
12261TIP3    H158198   3.888   1.258  12.182  0.1846 -0.0541 -0.7826
12261TIP3    H258199   3.801   1.135  12.198 -1.4920  0.9208 -2.0856
12262TIP3   OH258200   5.375   6.662   0.769  0.1386  0.1732  0.7096
12262TIP3    H158201   5.467   6.650   0.790  0.4478  0.7038 -0.2649
12262TIP3    H258202   5.340   6.573   0.763  1.1505 -0.1491 -1.1755
12263TIP3   OH258203   1.320   0.644   4.871 -0.1174  0.2660  0.0372
12263TIP3    H158204   1.407   0.683   4.883  0.2891 -1.2411  2.7460
12263TIP3    H258205   1.302   0.599   4.953 -2.3443 -1.7163 -1.3931
12264TIP3   OH258206   0.946   1.392   4.564 -0.0495 -0.4463  0.3379
12264TIP3    H158207   0.916   1.396   4.655  0.2420 -1.4214  0.4885
12264TIP3    H258208   0.942   1.299   4.541  0.9730 -0.3592 -0.2780
12265TIP3   OH258209   5.586   2.770   3.117  0.3492  0.0185  0.3411
12265TIP3    H158210   5.671   2.726   3.122  0.3417 -0.0755 -0.2420
12265TIP3    H258211   5.600   2.855   3.159  0.4110 -0.4602  1.3204
12266TIP3   OH258212   5.379   3.271  14.255  0.0776 -0.5565  0.3749
12266TIP3    H158213   5.404   3.255  14.345 -1.1231  2.7644  1.4788
12266TIP3    H258214   5.437   3.342  14.226  1.4658 -2.5313 -2.0818
12267TIP3   OH258215   0.796   2.459  13.446  0.2022 -0.2826  0.3896
12267TIP3    H158216   0.701   2.450  13.452  0.2599 -0.6199  0.8324
12267TIP3    H258217   0.818   2.524  13.514  0.5347 -1.9179  1.9103
12268TIP3   OH258218   6.201   2.285  16.749 -0.4414  0.2912  0.0276
12268TIP3    H158219   6.171   2.203  16.710  1.0800 -0.4116  0.2629
12268TIP3    H258220   6.208   2.266  16.842  0.0507  0.6278  0.0661
12269TIP3   OH258221   5.530   1.761   1.604 -0.7821 -0.1444 -0.4681
12269TIP3    H158222   5.499   1.842   1.565 -1.6084 -0.3985 -0.3662
12269TIP3    H258223   5.478   1.752   1.684  0.1824 -0.1410  0.1723
12270TIP3   OH258224   4.229   2.488   1.071 -0.1957  0.5389  0.2283
12270TIP3    H158225   4.153   2.442   1.035 -0.4951  0.1645  1.2929
12270TIP3    H258226   4.193   2.538   1.145  0.5509  0.5361  0.6012
12271TIP3   OH258227   5.692   6.454   4.297  0.3610 -0.1500  0.7831
12271TIP3    H158228   5.761   6.447   4.231  0.0178 -1.1918  0.5094
12271TIP3    H258229   5.671   6.363   4.319 -2.1611  0.0348 -0.4456
12272TIP3   OH258230   2.761   0.875  16.087  0.0999 -0.1401 -0.2432
12272TIP3    H158231   2.817   0.810  16.045  2.9596  1.1208  1.3501
12272TIP3    H258232   2.685   0.824  16.118  2.8487 -3.1851  2.2714
12273TIP3   OH258233   5.097   5.827  16.200 -0.0905 -0.1461  0.2736
12273TIP3    H158234   5.070   5.873  16.120 -1.1694 -0.4057  0.4655
12273TIP3    H258235   5.174   5.875  16.231  1.2066 -0.8817 -1.6713
12274TIP3   OH258236   5.996   4.458  17.102  0.2073  0.2274 -0.0712
12274TIP3    H158237   5.949   4.532  17.139  0.5160  0.7268 -0.6514
12274TIP3    H258238   5.949   4.437  17.021 -0.3657 -0.7485  0.4898
12275TIP3   OH258239   2.256   5.818   2.374 -0.2572 -0.6997  0.5196
12275TIP3    H158240   2.184   5.859   2.422 -0.8409 -1.0547 -0.0373
12275TIP3    H258241   2.221   5.803   2.286  0.3458 -1.2860  0.3677
12276TIP3   OH258242   5.693   4.912  12.239  0.3835 -0.2459 -0.3900
12276TIP3    H158243   5.602   4.892  12.219 -0.0185 -0.3994  1.4774
12276TIP3    H258244   5.694   5.006  12.254  0.5552 -0.2273 -0.5195
12277TIP3   OH258245   6.602   4.615   2.261 -0.3451  0.1845  0.3269
12277TIP3    H158246   6.693   4.589   2.270 -0.8994 -2.5057 -0.9157
12277TIP3    H258247   6.561   4.591   2.344 -0.1158  0.6972  0.5976
12278TIP3   OH258248   3.145   3.243   0.290  0.1156 -0.2389 -0.0362
12278TIP3    H158249   3.134   3.175   0.225 -0.1770 -2.3384  2.0870
12278TIP3    H258250   3.235   3.232   0.322 -0.9245 -2.0063  2.6857
12279TIP3   OH258251   0.078   5.337   4.962  0.0954  0.5400 -0.4103
12279TIP3    H158252   0.085   5.242   4.950  2.5850 -0.0388  3.6111
12279TIP3    H258253  -0.010   5.350   4.997 -0.1172 -0.3912 -0.5600
12280TIP3   OH258254   0.310   6.606   4.682 -0.3002  0.6247 -0.5881
12280TIP3    H158255   0.321   6.646   4.596 -1.1948  0.7866 -0.6462
12280TIP3    H258256   0.318   6.512   4.667  2.1392  0.7363 -0.4022
12281TIP3   OH258257   5.456   0.804   3.787 -0.3027  0.2963  0.6507
12281TIP3    H158258   5.420   0.817   3.875 -0.1042  3.2709  0.4218
12281TIP3    H258259   5.549   0.789   3.801 -0.2009  1.1417  0.9820
12282TIP3   OH258260   2.132   3.272   6.124 -0.2472  0.0104 -0.6386
12282TIP3    H158261   2.218   3.286   6.165 -0.2805 -0.6306 -0.3306
12282TIP3    H258262   2.070   3.279   6.197 -0.4050 -0.0823 -0.7649
12283TIP3   OH258263   5.222   0.647  16.877 -0.1439 -0.2712  0.6655
12283TIP3    H158264   5.200   0.740  16.864  0.2061 -0.3161 -0.2929
12283TIP3    H258265   5.139   0.607  16.905 -0.6278  0.0883 -0.2031
12284TIP3   OH258266   4.910   1.631   3.676 -0.2279  0.0471 -0.2400
12284TIP3    H158267   4.914   1.688   3.753 -1.3525 -0.2960  0.0821
12284TIP3    H258268   4.982   1.569   3.689  0.5964  0.9660 -0.2743
12285TIP3   OH258269   6.201   5.279  16.451 -0.5291 -0.1973 -0.0717
12285TIP3    H158270   6.254   5.299  16.374 -0.3002  0.0074  0.1368
12285TIP3    H258271   6.238   5.196  16.484 -0.3084 -0.0344  0.0959
12286TIP3   OH258272   0.530   6.279  11.685  0.1645  0.0413 -0.3398
12286TIP3    H158273   0.463   6.216  11.659 -1.4906  0.0304  3.2696
12286TIP3    H258274   0.491   6.365  11.667 -0.3684  0.0213  0.6384
12287TIP3   OH258275   2.249   1.590  17.252 -0.1940 -0.3210  0.4045
12287TIP3    H158276   2.221   1.520  17.193  0.1008 -0.0347 -0.0818
12287TIP3    H258277   2.262   1.546  17.336  1.5965 -1.1942 -0.2708
12288TIP3   OH258278   0.475   6.147  12.038  1.4349  0.5260  0.3497
12288TIP3    H158279   0.545   6.108  11.985  1.4404 -0.2514  0.9198
12288TIP3    H258280   0.454   6.229  11.992  0.7699 -0.5653 -1.4298
12289TIP3   OH258281   4.398   4.989  15.479  0.1978  0.1792  0.0386
12289TIP3    H158282   4.338   4.915  15.468  0.1885  0.0222  1.0590
12289TIP3    H258283   4.483   4.948  15.496  0.0985  0.3785  1.1172
12290TIP3   OH258284   2.748   5.228  11.562  0.4608  0.2670 -0.1594
12290TIP3    H158285   2.790   5.143  11.553  1.1881  0.4407  1.2507
12290TIP3    H258286   2.793   5.284  11.498  0.8884 -0.0866 -0.1689
12291TIP3   OH258287   3.327   6.365   5.669 -0.6878 -0.7330 -0.0978
12291TIP3    H158288   3.341   6.360   5.574  0.6402  2.7249 -0.2155
12291TIP3    H258289   3.410   6.396   5.704 -2.0853  1.1294  1.7961
12292TIP3   OH258290   6.473   1.958  11.753  0.2437  0.1093  0.2083
12292TIP3    H158291   6.445   2.039  11.710  1.3133 -0.7212 -2.2093
12292TIP3    H258292   6.569   1.959  11.746  0.2742 -1.3891  0.0786
12293TIP3   OH258293   4.328   5.600   2.600 -0.1323 -0.4314  0.3927
12293TIP3    H158294   4.322   5.620   2.693  1.2221 -0.6196  0.5285
12293TIP3    H258295   4.241   5.568   2.577 -1.5368  2.6138  0.8524
12294TIP3   OH258296   2.458   3.488  11.149 -0.4798 -0.1802  0.6047
12294TIP3    H158297   2.471   3.506  11.056 -1.2345 -3.1349 -0.2088
12294TIP3    H258298   2.363   3.493  11.162 -0.3965  0.0395  1.1627
12295TIP3   OH258299   6.416   1.605   4.249  0.5210 -0.0402  0.3910
12295TIP3    H158300   6.493   1.609   4.305 -0.0697 -0.2969  1.2441
12295TIP3    H258301   6.392   1.697   4.235  0.8676  0.0345  0.2742
12296TIP3   OH258302   2.667   4.130  16.301 -0.0631 -0.4184  0.4493
12296TIP3    H158303   2.694   4.131  16.392  1.8687 -0.7555 -0.0849
12296TIP3    H258304   2.608   4.205  16.293  0.2194 -0.0230  1.8311
12297TIP3   OH258305   6.560   3.555  10.480  0.5285 -0.1080 -0.5643
12297TIP3    H158306   6.472   3.589  10.493  0.7267  0.3179 -0.3172
12297TIP3    H258307   6.615   3.605  10.540  0.9476 -0.3426 -0.7413
12298TIP3   OH258308   1.312   6.263  11.485  0.0561 -0.0023 -0.0092
12298TIP3    H158309   1.270   6.304  11.410 -0.9022  0.5385  0.7931
12298TIP3    H258310   1.338   6.336  11.541  1.5164 -0.3607 -0.1924
12299TIP3   OH258311   3.064   2.997   2.785  0.6252 -0.1434 -0.3919
12299TIP3    H158312   2.979   2.963   2.755  0.5074 -0.1640 -0.0363
12299TIP3    H258313   3.042   3.070   2.842  0.7954 -0.8548  0.6150
12300TIP3   OH258314   1.011   4.657  13.628  0.7784 -0.3410  0.0784
12300TIP3    H158315   1.085   4.645  13.688  0.1869  1.3574  1.1996
12300TIP3    H258316   1.028   4.741  13.585  0.0807 -0.4997 -0.5373
12301TIP3   OH258317   3.061   3.583   4.534 -0.5125  1.1688 -0.3846
12301TIP3    H158318   3.126   3.604   4.468  0.3069  0.5423  0.1905
12301TIP3    H258319   3.013   3.509   4.498  0.5892  0.1740  0.0969
12302TIP3   OH258320   2.427   5.149   5.267  0.2795  0.7389  0.2962
12302TIP3    H158321   2.480   5.198   5.204  2.4716 -0.5173  1.0560
12302TIP3    H258322   2.480   5.148   5.347 -0.1896 -1.8260  0.6642
12303TIP3   OH258323   5.183   6.676   3.549 -0.3574 -0.1577 -0.0056
12303TIP3    H158324   5.151   6.593   3.512 -0.9512  0.0974 -0.0749
12303TIP3    H258325   5.104   6.718   3.584 -0.0854  0.4572 -0.1250
12304TIP3   OH258326   3.268   3.990  12.076  1.0325  0.4114  0.0552
12304TIP3    H158327   3.240   4.064  12.023 -0.4546 -0.8033 -0.9284
12304TIP3    H258328   3.200   3.981  12.143 -1.2157 -2.5583 -2.3476
12305TIP3   OH258329   3.305   6.779   4.641 -0.2280  0.0490 -0.6315
12305TIP3    H158330   3.336   6.755   4.553 -0.7073 -0.3271 -0.7018
12305TIP3    H258331   3.253   6.858   4.628  0.4495  0.5180 -0.5534
12306TIP3   OH258332   1.082   4.583  11.166  0.1915  0.3361 -0.0912
12306TIP3    H158333   1.148   4.642  11.130  0.7793 -0.2743 -0.0237
12306TIP3    H258334   1.077   4.511  11.103  0.3357 -0.1242  0.4122
12307TIP3   OH258335   2.038   3.256  11.728 -0.5626  0.1095 -0.0032
12307TIP3    H158336   2.091   3.277  11.651 -1.5231 -1.3917 -1.1084
12307TIP3    H258337   1.973   3.194  11.697  0.2089 -2.0929  2.4087
12308TIP3   OH258338   3.432   1.248   6.500  0.0191  0.9244 -0.1353
12308TIP3    H158339   3.364   1.257   6.433  0.9460 -0.7438 -1.3748
12308TIP3    H258340   3.384   1.219   6.578 -0.7492 -0.1547 -0.9635
12309TIP3   OH258341   1.394   3.251  12.586  0.4540  0.5084  0.1095
12309TIP3    H158342   1.325   3.255  12.521 -0.1397  0.3063  0.7167
12309TIP3    H258343   1.461   3.313  12.555  1.1448 -1.0806 -1.7722
12310TIP3   OH258344   5.018   3.533  14.497  0.4295  0.1312 -0.2341
12310TIP3    H158345   5.081   3.508  14.430  0.4250  0.7812 -0.4841
12310TIP3    H258346   4.936   3.546  14.450 -0.0537 -1.2553  0.1658
12311TIP3   OH258347   2.632   2.547   0.691 -0.0389  0.5977 -0.1485
12311TIP3    H158348   2.681   2.599   0.627 -0.3594  1.1285  0.0339
12311TIP3    H258349   2.699   2.508   0.747  0.1519  3.8003  2.0726
12312TIP3   OH258350   3.296   1.833  13.745 -0.5268  0.2148  1.1808
12312TIP3    H158351   3.315   1.893  13.817 -2.4149  0.0709  1.8522
12312TIP3    H258352   3.225   1.778  13.778  0.3015 -1.5759  0.1243
12313TIP3   OH258353   6.638   2.974   5.337 -0.9159  0.3151 -0.8547
12313TIP3    H158354   6.710   2.971   5.274  0.2048 -0.9142  0.4098
12313TIP3    H258355   6.603   2.884   5.337 -0.3778  0.0801  0.8214
12314TIP3   OH258356   5.698   4.357   1.762  0.1852 -0.1653  0.0396
12314TIP3    H158357   5.656   4.274   1.785 -0.1303 -0.2767 -0.8955
12314TIP3    H258358   5.712   4.352   1.667 -1.2850  1.4932 -0.3206
12315TIP3   OH258359   2.722   5.975  15.511 -0.2360 -0.1066  0.4729
12315TIP3    H158360   2.682   6.039  15.452  0.8678 -0.4276 -0.6575
12315TIP3    H258361   2.693   5.890  15.479  1.2582 -0.3472 -0.3522
12316TIP3   OH258362   3.470   6.477   4.340  0.2727  0.8866  0.1585
12316TIP3    H158363   3.503   6.387   4.337 -0.3012  0.6616  0.4995
12316TIP3    H258364   3.410   6.478   4.415 -2.6083  0.5553 -1.9759
12317TIP3   OH258365   3.430   6.101   5.557 -0.3469 -0.0641  0.1538
12317TIP3    H158366   3.512   6.105   5.605  0.6102  1.3714 -1.4823
12317TIP3    H258367   3.384   6.025   5.594  1.3532 -0.4533  1.6197
12318TIP3   OH258368   1.153   5.292   1.654 -0.1438  0.0116 -0.0492
12318TIP3    H158369   1.185   5.205   1.679  0.3501  0.4732  0.9591
12318TIP3    H258370   1.224   5.330   1.602  1.0461  1.0292  2.1748
12319TIP3   OH258371   4.625   0.993   5.171 -0.2585 -0.3271  0.0450
12319TIP3    H158372   4.559   0.925   5.177  0.2741 -0.9812 -1.0987
12319TIP3    H258373   4.576   1.075   5.170 -0.8380 -0.5678  2.9041
12320TIP3   OH258374   3.105   0.980   1.328 -0.1725 -0.4513  0.1298
12320TIP3    H158375   3.127   1.059   1.377  2.5227 -0.9131 -0.1882
12320TIP3    H258376   3.047   0.930   1.386 -1.1686  1.2975  0.6981
12321TIP3   OH258377   4.945   0.120  14.276 -0.0343  0.0220 -0.2014
12321TIP3    H158378   5.041   0.114  14.283 -0.0859  0.7335  1.7059
12321TIP3    H258379   4.918   0.032  14.249  0.9486 -1.2358  2.5188
12322TIP3   OH258380   1.750   4.473  12.065  0.2835 -0.1241  0.0687
12322TIP3    H158381   1.715   4.561  12.081 -2.3388 -1.3780  1.9841
12322TIP3    H258382   1.700   4.441  11.990  0.9639 -0.1379 -0.3857
12323TIP3   OH258383   6.031   6.033  17.147 -0.2242  0.1714  0.0847
12323TIP3    H158384   6.110   6.018  17.096 -0.3243 -0.1875  0.0294
12323TIP3    H258385   6.058   6.092  17.217 -0.1090  0.7286 -0.4317
12324TIP3   OH258386   6.693   0.247   4.508  0.5798  0.5891  0.2629
12324TIP3    H158387   6.710   0.279   4.596  0.0872  1.6317 -0.0010
12324TIP3    H258388   6.774   0.263   4.460  2.2250 -3.3073  1.3493
12325TIP3   OH258389   4.282   1.846   5.779  0.4721  0.4788 -0.0774
12325TIP3    H158390   4.336   1.863   5.856  0.5527 -0.5558  0.1135
12325TIP3    H258391   4.196   1.822   5.814  0.8538 -1.2725 -0.2108
12326TIP3   OH258392   2.472   3.096  13.762  0.6202  0.3302  0.2693
12326TIP3    H158393   2.508   3.118  13.676 -1.1919 -0.6709 -0.8372
12326TIP3    H258394   2.390   3.145  13.767 -0.1766 -0.9703  0.6166
12327TIP3   OH258395   5.927   4.540   5.942 -0.2222  0.3717  0.8075
12327TIP3    H158396   5.990   4.575   5.879  1.3138 -0.9221  1.5542
12327TIP3    H258397   5.979   4.524   6.021 -1.4784 -0.8066  1.4312
12328TIP3   OH258398   4.572   5.537  12.475 -0.1683  0.2175  0.1568
12328TIP3    H158399   4.651   5.538  12.529  0.7088 -2.0747 -0.9080
12328TIP3    H258400   4.512   5.479  12.522 -0.2965  0.0849 -0.1646
12329TIP3   OH258401   0.421   1.181  16.034  0.1229 -0.2391  0.1542
12329TIP3    H158402   0.398   1.091  16.055 -0.3314 -0.8439 -2.5149
12329TIP3    H258403   0.377   1.234  16.100 -0.6994 -1.8915  0.9920
12330TIP3   OH258404   0.855   4.586  15.874 -0.4231 -0.2155 -0.5868
12330TIP3    H158405   0.789   4.613  15.937 -0.3731 -0.5729 -0.3795
12330TIP3    H258406   0.868   4.493  15.891 -0.7604 -0.4295 -1.4419
12331TIP3   OH258407   4.651   4.337   3.475 -0.6421  0.5118 -0.3716
12331TIP3    H158408   4.682   4.306   3.560  0.4764  0.7629 -0.6635
12331TIP3    H258409   4.590   4.270   3.444  0.4322 -0.5572 -0.2355
12332TIP3   OH258410   3.268   1.260   4.563  0.1694  0.5533 -0.1846
12332TIP3    H158411   3.229   1.271   4.476 -0.3653  0.8898  0.0877
12332TIP3    H258412   3.308   1.344   4.582  0.4296  0.4266 -0.1757
12333TIP3   OH258413   3.366   0.902   0.274  0.4285  0.1383 -0.0384
12333TIP3    H158414   3.443   0.917   0.219  0.8526 -3.1135 -0.5026
12333TIP3    H258415   3.395   0.923   0.362  1.5880 -0.2244 -0.3211
12334TIP3   OH258416   6.654   2.660   3.985 -0.1620  0.2191  0.0028
12334TIP3    H158417   6.702   2.649   3.903 -1.2731 -0.9892 -0.5264
12334TIP3    H258418   6.692   2.738   4.025  0.8764  0.4290 -1.3235
12335TIP3   OH258419   1.288   6.081   3.760 -0.0100 -0.0122 -0.2258
12335TIP3    H158420   1.266   6.037   3.678  1.0422  0.3385 -0.7062
12335TIP3    H258421   1.205   6.118   3.791 -0.4761 -0.4459 -0.9441
12336TIP3   OH258422   1.812   6.456   2.842 -0.0797  0.2179  0.0940
12336TIP3    H158423   1.752   6.514   2.888  1.2552  0.6313  1.4136
12336TIP3    H258424   1.775   6.368   2.854 -0.8189  0.5396  0.2139
12337TIP3   OH258425   0.536   2.712   3.109  0.9233 -0.2707 -0.4183
12337TIP3    H158426   0.453   2.717   3.062  1.2451 -1.3666 -1.1342
12337TIP3    H258427   0.528   2.632   3.161  0.6813  0.7713  1.2167
12338TIP3   OH258428   0.847   3.716   0.624  0.0753 -0.2128 -0.4141
12338TIP3    H158429   0.818   3.779   0.557  1.7343  0.5663 -0.4563
12338TIP3    H258430   0.824   3.758   0.707 -0.2701 -0.3016 -0.4626
12339TIP3   OH258431   2.492   5.042   2.300 -0.1799  0.4431 -0.3997
12339TIP3    H158432   2.529   5.029   2.387  0.5121 -0.4993 -0.8213
12339TIP3    H258433   2.427   5.111   2.312 -0.9821 -0.5263  1.1120
12340TIP3   OH258434   1.865   5.849  13.406  0.3690  0.0614  0.1014
12340TIP3    H158435   1.872   5.938  13.441 -0.0917 -0.0339  0.4455
12340TIP3    H258436   1.809   5.803  13.468 -0.3716 -0.1426 -0.6982
12341TIP3   OH258437   2.956   4.630   5.551  0.4574 -0.1648 -0.2986
12341TIP3    H158438   2.985   4.670   5.469 -1.0643  0.1475 -0.7111
12341TIP3    H258439   3.037   4.598   5.592  2.0356  4.3148  0.6575
12342TIP3   OH258440   4.028   1.479  15.756 -0.0698  1.0237  0.0094
12342TIP3    H158441   4.082   1.558  15.746  1.3732  0.0404 -0.2849
12342TIP3    H258442   4.079   1.424  15.816  0.4739 -0.9666 -2.1672
12343TIP3   OH258443   1.350   1.279   1.398 -0.4039  0.4314  0.2747
12343TIP3    H158444   1.318   1.325   1.321  0.0666  0.1215 -0.1111
12343TIP3    H258445   1.297   1.199   1.402  1.0920 -0.6915 -1.0767
12344TIP3   OH258446   4.738   6.159  16.660 -0.3686 -0.3659  0.1181
12344TIP3    H158447   4.798   6.229  16.688 -1.4571 -0.0713  1.8622
12344TIP3    H258448   4.764   6.140  16.569  0.1106  2.1159 -0.3295
12345TIP3   OH258449   6.163   3.750   1.431  0.0081  0.5720 -0.7245
12345TIP3    H158450   6.158   3.834   1.384 -0.9365  0.7492 -0.3175
12345TIP3    H258451   6.236   3.762   1.492 -2.7008  2.7185  2.3867
12346TIP3   OH258452   1.259   4.772  11.065 -0.2498  0.0641 -0.5996
12346TIP3    H158453   1.317   4.842  11.094 -1.6597  1.7219 -1.6487
12346TIP3    H258454   1.303   4.732  10.990 -0.2752  1.0726 -1.1599
12347TIP3   OH258455   4.209   0.034  12.018  0.0429  0.3848 -0.1667
12347TIP3    H158456   4.131   0.046  11.964  0.7583  1.6083 -0.9663
12347TIP3    H258457   4.226  -0.060  12.016 -1.7535  0.0046  0.5442
12348TIP3   OH258458   6.261   2.536   1.450 -0.3299 -0.4984  0.1141
12348TIP3    H158459   6.330   2.573   1.506 -0.9034  1.4484 -0.3822
12348TIP3    H258460   6.182   2.543   1.503 -0.5295 -0.5320 -0.1802
12349TIP3   OH258461   0.129   0.481   1.490  0.1101 -0.3554  0.0884
12349TIP3    H158462   0.104   0.431   1.412 -0.3747 -2.2022  1.3511
12349TIP3    H258463   0.200   0.430   1.529 -1.3606 -0.8912  2.2086
12350TIP3   OH258464   2.161   0.355   0.759  0.4730  0.4267  0.0556
12350TIP3    H158465   2.206   0.281   0.718 -0.4887 -2.9046  4.2045
12350TIP3    H258466   2.069   0.342   0.738  0.0646 -0.8856  2.2602
12351TIP3   OH258467   5.158   2.030   4.578 -0.2283 -0.0089  0.1923
12351TIP3    H158468   5.074   2.024   4.533 -1.5804 -0.1720  2.5777
12351TIP3    H258469   5.173   2.124   4.589  0.7679  0.0883 -1.6560
12352TIP3   OH258470   6.722   2.905  13.874  0.7607  0.2581 -0.3239
12352TIP3    H158471   6.770   2.893  13.792  2.7530 -0.1941  0.8290
12352TIP3    H258472   6.752   2.990  13.907  1.3363 -0.3242  0.7331
12353TIP3   OH258473   2.855   4.097  13.508 -0.0925 -0.5123 -0.3557
12353TIP3    H158474   2.854   4.188  13.476  0.7579 -0.1204  0.6614
12353TIP3    H258475   2.790   4.097  13.578  1.8495  0.0939  1.5550
12354TIP3   OH258476   0.542   5.901   1.218 -0.7090 -0.5579  0.1671
12354TIP3    H158477   0.538   5.885   1.123  3.0603  1.1218 -0.4358
12354TIP3    H258478   0.528   5.996   1.226  0.3570 -0.4749  1.1226
12355TIP3   OH258479   0.596   0.416  11.527  0.1672  0.0300  0.0262
12355TIP3    H158480   0.641   0.495  11.499 -0.3822 -0.6800 -3.3163
12355TIP3    H258481   0.511   0.419  11.482 -0.7469 -1.4357  1.5325
12356TIP3   OH258482   4.198   6.115   5.334 -0.1767  0.1805 -0.4854
12356TIP3    H158483   4.152   6.079   5.258 -0.5182 -0.6978  0.1209
12356TIP3    H258484   4.266   6.051   5.354 -0.2302  0.2929  0.0839
12357TIP3   OH258485   3.111   0.133   1.189  0.7392 -0.6264  0.1792
12357TIP3    H158486   3.124   0.150   1.096 -1.4501 -0.6920 -0.2047
12357TIP3    H258487   3.197   0.109   1.222  1.6189 -0.3088 -1.7655
12358TIP3   OH258488   4.969   3.954  12.660  0.3015 -0.7429  0.0555
12358TIP3    H158489   4.878   3.934  12.635  0.2443 -1.6215  0.8963
12358TIP3    H258490   4.970   4.048  12.675 -0.5822 -0.7851  0.4374
12359TIP3   OH258491   4.507   2.237   1.521 -0.4646  0.5279  0.0744
12359TIP3    H158492   4.517   2.315   1.576 -0.7162 -0.1551  1.0930
12359TIP3    H258493   4.558   2.258   1.442  0.9611  1.0097  1.0884
12360TIP3   OH258494   2.565   5.773  13.897  0.9123  0.0278 -0.5252
12360TIP3    H158495   2.495   5.839  13.898 -0.0352 -0.9450  0.7483
12360TIP3    H258496   2.523   5.694  13.864  1.8853 -0.1178 -1.4449
12361TIP3   OH258497   6.696   5.925  12.435  0.6370 -0.0971  0.5365
12361TIP3    H158498   6.720   5.948  12.525  0.3198  0.5656  0.4568
12361TIP3    H258499   6.742   5.989  12.380  0.9944 -0.6256  0.2136
12362TIP3   OH258500   6.629   4.088   4.106 -0.1845  0.2925 -0.0975
12362TIP3    H158501   6.635   4.000   4.069  0.7038 -0.5824  1.9225
12362TIP3    H258502   6.667   4.145   4.040  0.3864 -1.0149 -0.9494
12363TIP3   OH258503   5.822   6.015   0.659 -0.0996 -0.0966 -0.0415
12363TIP3    H158504   5.809   5.957   0.734 -0.0566 -0.5354 -0.3686
12363TIP3    H258505   5.874   6.088   0.693 -0.5947  0.0051  0.4937
12364TIP3   OH258506   0.819   5.139   5.622  0.3744  0.4088  0.1362
12364TIP3    H158507   0.789   5.075   5.687  1.2191 -0.0550  0.0844
12364TIP3    H258508   0.770   5.219   5.642 -0.6188 -0.2143  0.2742
12365TIP3   OH258509   4.877   5.132   2.183 -0.3410 -0.0198  0.0856
12365TIP3    H158510   4.893   5.216   2.140 -2.2732  0.6088  0.5034
12365TIP3    H258511   4.874   5.153   2.276 -1.2639 -0.4437  0.1669
12366TIP3   OH258512   4.443   0.284  16.128 -0.2443  0.0253 -0.0005
12366TIP3    H158513   4.478   0.200  16.098 -1.0730 -0.8365  1.3141
12366TIP3    H258514   4.378   0.308  16.062 -0.1641 -0.4908 -0.2722
12367TIP3   OH258515   2.859   5.545  15.590 -0.0402  0.3438 -0.3727
12367TIP3    H158516   2.815   5.525  15.672 -0.9752  0.0371 -0.9433
12367TIP3    H258517   2.790   5.578  15.533  0.7002  1.0620 -0.8723
12368TIP3   OH258518   5.382   5.148   2.363 -0.4701  0.2693  0.0754
12368TIP3    H158519   5.375   5.243   2.361  1.1489  0.4259  0.4023
12368TIP3    H258520   5.422   5.129   2.449 -0.7265 -0.6911 -0.0064
12369TIP3   OH258521   2.377   6.694   2.445  0.2896  0.4028  0.3847
12369TIP3    H158522   2.298   6.653   2.479 -0.1321 -0.0477 -1.0773
12369TIP3    H258523   2.446   6.668   2.506  0.2304 -3.2577 -0.8471
12370TIP3   OH258524   2.462   0.394  14.929  0.1176 -0.6217 -0.0828
12370TIP3    H158525   2.439   0.304  14.950 -1.7787  0.0602  1.0125
12370TIP3    H258526   2.423   0.409  14.843 -0.6939 -0.4922  0.2937
12371TIP3   OH258527   1.998   0.734   3.355 -0.5361 -0.8110  0.4995
12371TIP3    H158528   1.917   0.778   3.382 -0.9576 -1.2846  0.0319
12371TIP3    H258529   1.972   0.680   3.281  0.5214  0.1581 -0.6196
12372TIP3   OH258530   0.240   6.360  13.382  0.1504  0.4536  0.0816
12372TIP3    H158531   0.249   6.310  13.463  1.7470 -0.2393 -0.4695
12372TIP3    H258532   0.249   6.295  13.312  0.2235  1.2291 -0.6516
12373TIP3   OH258533   5.799   1.449   2.250 -0.4054 -0.1036 -0.0787
12373TIP3    H158534   5.868   1.465   2.315  0.2756  1.8877 -1.1919
12373TIP3    H258535   5.845   1.447   2.166 -1.7500  2.1974 -0.9521
12374TIP3   OH258536   3.432   3.562  11.045  0.3543 -0.4600  0.0719
12374TIP3    H158537   3.381   3.630  11.088  0.5296 -0.0500 -0.3435
12374TIP3    H258538   3.520   3.571  11.082  0.2151 -0.9170  0.5161
12375TIP3   OH258539   2.649   4.021   3.040  0.2381  0.4858  0.4249
12375TIP3    H158540   2.664   3.968   2.962 -0.3119 -1.4853  1.5809
12375TIP3    H258541   2.707   4.096   3.030  0.0092  0.4169 -1.9714
12376TIP3   OH258542   3.018   1.218   1.001  0.1445 -0.3254 -0.5239
12376TIP3    H158543   2.968   1.267   0.936 -1.0264  2.2464  2.1228
12376TIP3    H258544   2.976   1.239   1.085  1.6946 -3.2903  1.1687
12377TIP3   OH258545   0.662   1.000  12.728  0.0136 -0.1128  0.0046
12377TIP3    H158546   0.640   1.044  12.810  1.9761  0.3572  0.3216
12377TIP3    H258547   0.607   1.043  12.663 -1.6947 -0.5964  1.0512
12378TIP3   OH258548   2.769   6.304  16.702 -0.3926  0.2862 -0.4643
12378TIP3    H158549   2.798   6.215  16.721 -3.6783 -1.2789 -2.1404
12378TIP3    H258550   2.779   6.313  16.607 -1.5222  1.1480 -0.5178
12379TIP3   OH258551   0.160   3.495  16.199 -0.2781  0.0587  0.2622
12379TIP3    H158552   0.081   3.476  16.249 -1.2620 -1.2675 -1.6772
12379TIP3    H258553   0.128   3.539  16.120  1.1555  1.3805  0.3655
12380TIP3   OH258554   1.710   3.479   1.231  0.3298  0.5552 -0.6580
12380TIP3    H158555   1.658   3.558   1.243  0.3750  0.6925 -1.3146
12380TIP3    H258556   1.648   3.407   1.237  0.3918  0.5868  0.6388
12381TIP3   OH258557   4.800   4.532   2.347  0.2595  0.2395 -0.0665
12381TIP3    H158558   4.842   4.596   2.404  2.0333 -0.7502 -0.1927
12381TIP3    H258559   4.839   4.548   2.261  0.1346 -0.5012 -0.2611
12382TIP3   OH258560   6.396   4.645  12.075  0.4823 -0.4614  0.6028
12382TIP3    H158561   6.344   4.617  11.999 -0.0077  0.9275  0.4039
12382TIP3    H258562   6.472   4.586  12.074  1.0173  0.1354 -1.5932
12383TIP3   OH258563   0.336   2.387  13.194 -0.0805  0.3526 -0.4333
12383TIP3    H158564   0.400   2.329  13.154  2.2154  2.0512  0.5807
12383TIP3    H258565   0.314   2.450  13.126 -0.6406 -0.1807 -0.7561
12384TIP3   OH258566   0.351   2.661   2.738 -0.1145 -0.2050 -0.6565
12384TIP3    H158567   0.292   2.651   2.663  0.4263 -2.2600 -0.8779
12384TIP3    H258568   0.424   2.712   2.705 -0.2421 -0.4456 -1.3248
12385TIP3   OH258569   3.364   3.021   6.237  0.3647 -0.2198 -0.2602
12385TIP3    H158570   3.314   3.035   6.318 -0.8485 -0.9250 -0.8558
12385TIP3    H258571   3.422   2.947   6.257 -0.6907 -1.0993 -0.3312
12386TIP3   OH258572   1.765   3.659  17.057 -0.3172 -0.3936 -0.1367
12386TIP3    H158573   1.790   3.572  17.087 -0.0540 -0.3734 -0.3006
12386TIP3    H258574   1.847   3.700  17.031 -0.5400 -0.3824 -0.8226
12387TIP3   OH258575   0.630   1.318   6.047  0.0962 -0.3764  0.1712
12387TIP3    H158576   0.542   1.281   6.046 -0.9217  1.8911 -1.3123
12387TIP3    H258577   0.669   1.290   5.964 -0.0853  0.4693 -0.2104
12388TIP3   OH258578   4.798   4.021   1.484 -0.2107 -0.0348 -0.0280
12388TIP3    H158579   4.806   3.969   1.404  2.4333 -1.6665  1.1749
12388TIP3    H258580   4.877   4.074   1.487 -0.2054 -0.0888  1.5615
12389TIP3   OH258581   2.201   4.119   0.201  0.3467 -0.0962  0.4395
12389TIP3    H158582   2.113   4.114   0.163  0.3510 -0.5289  0.4857
12389TIP3    H258583   2.191   4.082   0.288  0.4107  0.5797  0.7426
12390TIP3   OH258584   3.178   3.304  15.004 -0.1081  0.0265 -0.0559
12390TIP3    H158585   3.192   3.339  14.915  1.6275  0.2844  0.2810
12390TIP3    H258586   3.259   3.257  15.024 -1.2567 -1.7228  0.6568
12391TIP3   OH258587   2.376   3.153  14.129 -0.5724 -0.5741 -0.0616
12391TIP3    H158588   2.447   3.092  14.111 -0.8527 -0.9148 -0.0219
12391TIP3    H258589   2.296   3.102  14.114 -0.8185  0.1600 -1.3603
12392TIP3   OH258590   4.970   6.256  12.081  0.6511 -0.4978  0.2385
12392TIP3    H158591   5.061   6.261  12.054  1.3390  0.1760  2.4267
12392TIP3    H258592   4.922   6.235  12.001  2.5313  0.6522 -1.2905
12393TIP3   OH258593   1.153   0.830   3.752  0.4267 -0.0776 -0.0769
12393TIP3    H158594   1.215   0.890   3.794 -0.9763  0.2967  1.5545
12393TIP3    H258595   1.108   0.788   3.825  0.1874 -1.8714 -1.2221
12394TIP3   OH258596   2.977   3.954   3.926  0.1540  0.1779 -0.0873
12394TIP3    H158597   3.041   3.971   3.858  0.2023  1.4461  0.2566
12394TIP3    H258598   3.001   4.012   3.998 -0.5460 -0.3412  0.5920
12395TIP3   OH258599   0.545   4.053  16.212 -0.8940 -0.0783 -0.0347
12395TIP3    H158600   0.600   4.056  16.134 -2.9162 -2.6442 -1.7478
12395TIP3    H258601   0.557   4.138  16.253  2.7518  0.2045 -1.3185
12396TIP3   OH258602   6.415   6.027   2.400 -0.0047 -0.1023 -0.0509
12396TIP3    H158603   6.434   5.945   2.446 -0.2159 -0.2847 -0.2808
12396TIP3    H258604   6.332   6.011   2.356 -0.8036  0.7586  1.1081
12397TIP3   OH258605   5.192   2.941  12.998  0.4820  0.2091  0.3577
12397TIP3    H158606   5.133   2.957  13.072 -0.0444 -1.2403  0.2899
12397TIP3    H258607   5.258   2.881  13.033 -0.4391 -1.4411 -0.6130
12398TIP3   OH258608   2.354   2.839  10.927  0.1452  0.3839 -0.0751
12398TIP3    H158609   2.335   2.928  10.958  1.0874  0.3758  0.5484
12398TIP3    H258610   2.322   2.838  10.837 -0.6596  1.0845  0.1876
12399TIP3   OH258611   4.919   2.156   5.975  0.3339 -0.1810 -1.1041
12399TIP3    H158612   4.883   2.078   6.016 -0.5470  0.1042 -1.3210
12399TIP3    H258613   4.851   2.186   5.914  1.7042 -0.7810 -3.0535
12400TIP3   OH258614   5.860   0.104   5.746 -0.5512  0.3385  0.8484
12400TIP3    H158615   5.842   0.010   5.744  0.0808  0.2109  0.9427
12400TIP3    H258616   5.797   0.140   5.809 -0.0710 -0.1879  1.6401
12401TIP3   OH258617   4.695   6.199  14.701 -0.4086 -0.0702 -0.6595
12401TIP3    H158618   4.757   6.271  14.716  1.8165 -1.6936 -1.3810
12401TIP3    H258619   4.684   6.159  14.787 -0.9268  0.5537 -0.4266
12402TIP3   OH258620   3.568   6.604   3.556  0.2039  0.3129 -0.8326
12402TIP3    H158621   3.553   6.597   3.462  0.1062 -2.3697 -0.6847
12402TIP3    H258622   3.481   6.603   3.595  0.2071  2.1121 -0.6904
12403TIP3   OH258623   2.715   5.944  16.986 -0.3415 -0.6485  0.0273
12403TIP3    H158624   2.703   5.876  17.053 -0.3496 -0.9238 -0.2538
12403TIP3    H258625   2.810   5.954  16.980 -0.3195  1.7671  2.5030
12404TIP3   OH258626   5.890   2.170  10.868  0.0214 -0.4618  0.2527
12404TIP3    H158627   5.859   2.244  10.816  2.4936 -0.1174 -0.8590
12404TIP3    H258628   5.874   2.093  10.812  0.6419 -0.3480 -0.0873
12405TIP3   OH258629   0.626   3.465  11.120  0.3725  0.3092 -0.0168
12405TIP3    H158630   0.593   3.521  11.049 -0.0143  4.0927  2.8285
12405TIP3    H258631   0.547   3.436  11.165  0.6671  0.3982  0.5617
12406TIP3   OH258632   4.781   4.294   3.743 -0.2180  0.1414  0.3603
12406TIP3    H158633   4.733   4.338   3.813 -0.1552 -0.1068  0.5584
12406TIP3    H258634   4.778   4.202   3.766 -0.9227 -0.0358 -0.4003
12407TIP3   OH258635   2.964   4.695  14.027  0.0662 -0.2463 -0.4435
12407TIP3    H158636   3.047   4.649  14.040 -0.5629 -0.9827  1.2801
12407TIP3    H258637   2.951   4.743  14.109 -0.0815  1.7893 -1.5849
12408TIP3   OH258638   0.491   0.537   1.720 -0.3151  0.0160 -0.3933
12408TIP3    H158639   0.413   0.588   1.699 -1.5285 -1.8389 -0.5501
12408TIP3    H258640   0.467   0.487   1.798  0.7550 -0.5032 -0.3723
12409TIP3   OH258641   5.942   0.579  11.789  0.5260 -0.1458 -0.0259
12409TIP3    H158642   5.989   0.562  11.708 -0.2694  0.3268 -0.6007
12409TIP3    H258643   5.855   0.609  11.761  0.9695  2.2887  0.9433
12410TIP3   OH258644   1.878   5.387  11.684  0.4944 -0.4093  0.4662
12410TIP3    H158645   1.957   5.339  11.709  0.8835 -0.0239  0.0084
12410TIP3    H258646   1.830   5.325  11.629  2.1787  0.4757 -2.2023
12411TIP3   OH258647   4.546   3.589  16.674 -0.0260  0.1315 -0.1557
12411TIP3    H158648   4.614   3.652  16.698  0.8612 -0.5986 -0.7464
12411TIP3    H258649   4.490   3.638  16.613 -0.1572  0.7940  0.4783
12412TIP3   OH258650   5.912   5.073   3.789 -0.0650  0.0314  0.1123
12412TIP3    H158651   5.931   5.044   3.700  1.8424 -2.9698  1.3444
12412TIP3    H258652   5.977   5.141   3.806 -0.9613  1.2138 -0.9845
12413TIP3   OH258653   3.634   1.623  14.787  0.2033  0.6804 -0.6594
12413TIP3    H158654   3.623   1.534  14.753  0.4653  1.3503 -2.6019
12413TIP3    H258655   3.545   1.658  14.791  0.1398  0.4825 -0.3095
12414TIP3   OH258656   1.011   5.782  11.781 -0.1349  0.5814 -0.0303
12414TIP3    H158657   0.980   5.774  11.871  1.3649  0.7405  0.5223
12414TIP3    H258658   0.932   5.772  11.728 -1.1652  1.2397  1.3169
12415TIP3   OH258659   0.667   2.940  13.712 -0.3407  0.4262  0.0488
12415TIP3    H158660   0.591   2.996  13.697  0.0953  1.7995  2.4049
12415TIP3    H258661   0.737   3.001  13.734  0.6847 -0.9587  0.7530
12416TIP3   OH258662   6.386   2.154   0.343 -0.2151  0.0302 -0.4640
12416TIP3    H158663   6.389   2.238   0.297 -0.0011  1.5786  2.2126
12416TIP3    H258664   6.293   2.130   0.343 -1.0760  2.6762  2.6190
12417TIP3   OH258665   4.188   2.064  12.382 -0.4328 -0.1396  0.8854
12417TIP3    H158666   4.254   2.070  12.451  0.0427  1.0496  0.3484
12417TIP3    H258667   4.123   2.131  12.404  0.9592  1.9900 -1.0636
12418TIP3   OH258668   3.585   0.680  10.427  0.4493 -0.2168  0.3725
12418TIP3    H158669   3.645   0.680  10.352 -0.3637 -0.1017 -0.3000
12418TIP3    H258670   3.614   0.752  10.481 -0.2994  1.1663 -0.9804
12419TIP3   OH258671   3.839   2.879  11.872  0.6495  0.2541 -0.0851
12419TIP3    H158672   3.919   2.831  11.894  0.6996  0.3727 -0.0067
12419TIP3    H258673   3.860   2.970  11.891  0.6515  0.3441 -0.5136
12420TIP3   OH258674   2.966   2.011   2.827  0.8543  0.0026 -0.2802
12420TIP3    H158675   2.993   1.935   2.879  1.8511  0.0157 -0.7584
12420TIP3    H258676   2.870   2.010   2.831  0.9037  0.3839  2.0914
12421TIP3   OH258677   1.335   2.954   3.490  0.3829 -0.3194  0.1484
12421TIP3    H158678   1.418   2.972   3.534 -0.1721  2.0121  0.3835
12421TIP3    H258679   1.332   3.017   3.418 -0.1251 -2.0108 -1.3787
12422TIP3   OH258680   3.423   2.885  15.804  0.2880 -0.6498 -0.1091
12422TIP3    H158681   3.425   2.797  15.768  1.2496 -1.2956  1.4180
12422TIP3    H258682   3.474   2.879  15.885 -1.0288  0.9019  0.9101
12423TIP3   OH258683   4.859   3.774   5.211 -0.0042 -0.1784 -0.1724
12423TIP3    H158684   4.891   3.830   5.140 -0.6718 -1.4715 -1.5490
12423TIP3    H258685   4.786   3.824   5.249 -1.2296 -0.4464 -2.0165
12424TIP3   OH258686   5.214   1.357  15.284  0.2949 -0.4279 -0.6582
12424TIP3    H158687   5.139   1.299  15.269 -0.1390  0.3208 -1.4717
12424TIP3    H258688   5.290   1.300  15.273 -0.1239 -0.8285 -1.5983
12425TIP3   OH258689   6.772   0.196  14.839 -0.6108  0.1218 -0.5823
12425TIP3    H158690   6.862   0.199  14.808 -0.7487 -1.2835 -1.2237
12425TIP3    H258691   6.723   0.245  14.773 -0.7205 -1.7916 -2.0330
12426TIP3   OH258692   5.619   4.054  15.851 -0.1597  0.0521 -0.0117
12426TIP3    H158693   5.581   4.139  15.830 -0.1834 -0.1562 -0.8487
12426TIP3    H258694   5.640   4.015  15.766 -1.0055 -1.1621  0.2981
12427TIP3   OH258695   0.403   4.342   0.403  0.2410 -0.0138  0.1500
12427TIP3    H158696   0.335   4.409   0.415  0.1088  0.3318 -2.0883
12427TIP3    H258697   0.464   4.356   0.475  0.6339  3.0811 -0.6571
12428TIP3   OH258698   6.389   3.275   2.211  0.6614 -0.1986  0.1916
12428TIP3    H158699   6.310   3.233   2.177  1.1500 -0.1399 -1.0846
12428TIP3    H258700   6.358   3.355   2.255 -0.0193 -0.4212  0.1128
12429TIP3   OH258701   6.116   6.628  15.509 -0.3896  0.1409  0.1317
12429TIP3    H158702   6.162   6.684  15.570 -1.4855  1.0057  0.1905
12429TIP3    H258703   6.024   6.636  15.533 -0.7610 -0.1400 -1.1023
12430TIP3   OH258704   6.371   5.243   4.130 -0.3987  0.0553 -0.4412
12430TIP3    H158705   6.395   5.150   4.123 -1.2035 -0.1699 -0.2531
12430TIP3    H258706   6.279   5.242   4.155 -0.7901  0.9164 -1.7812
12431TIP3   OH258707   2.340   6.548  14.086 -0.4020  0.0234 -0.6795
12431TIP3    H158708   2.425   6.504  14.094 -0.5774 -0.3417 -0.7834
12431TIP3    H258709   2.358   6.628  14.036 -0.1070 -0.0221 -0.6433
12432TIP3   OH258710   0.448   3.456  17.015  0.1466  0.7301  0.2129
12432TIP3    H158711   0.425   3.509  17.092  0.4126 -0.2106  0.9488
12432TIP3    H258712   0.365   3.422  16.983 -0.0750  1.8567 -0.4893
12433TIP3   OH258713   0.585   6.754  14.302 -0.1709 -0.7852  0.5170
12433TIP3    H158714   0.575   6.847  14.322  1.0339 -0.8429  1.4729
12433TIP3    H258715   0.562   6.748  14.209  1.3422  0.7803 -0.0363
12434TIP3   OH258716   5.393   4.603  13.883 -0.0640 -0.0123 -0.8081
12434TIP3    H158717   5.302   4.578  13.868 -0.1688  0.2304 -0.5811
12434TIP3    H258718   5.396   4.696  13.860  0.3522 -0.2492 -1.7650
12435TIP3   OH258719   0.045   6.703  13.485 -0.0778  0.5298  0.3880
12435TIP3    H158720   0.004   6.661  13.560 -0.5020 -0.2132 -0.2451
12435TIP3    H258721   0.032   6.797  13.499 -1.3733  0.3404  0.5561
12436TIP3   OH258722   4.060   6.255   4.967 -0.2918  0.8427  0.4671
12436TIP3    H158723   4.044   6.280   5.058 -0.6301 -1.1261  0.9967
12436TIP3    H258724   4.155   6.244   4.963 -0.2901  0.7926  0.6229
12437TIP3   OH258725   5.104   2.492  12.904 -0.0406 -0.2282 -0.0435
12437TIP3    H158726   5.146   2.414  12.870  0.4580  0.4603 -1.0624
12437TIP3    H258727   5.090   2.474  12.997 -0.7255 -1.8457 -0.4269
12438TIP3   OH258728   0.775   3.713   2.026 -0.1813  0.2826 -0.4025
12438TIP3    H158729   0.757   3.806   2.012  0.8479  0.4779 -0.4668
12438TIP3    H258730   0.870   3.706   2.026 -0.2208 -0.5606  0.9879
12439TIP3   OH258731   2.700   2.806   6.764  0.5803  0.1130 -0.4375
12439TIP3    H158732   2.698   2.898   6.791 -1.1115  0.1127 -0.4564
12439TIP3    H258733   2.615   2.791   6.724  0.5502 -1.6550  0.1919
12440TIP3   OH258734   0.675   1.453  12.244 -0.4945 -0.2290 -0.2938
12440TIP3    H158735   0.610   1.428  12.309 -0.5751 -0.1320 -0.3353
12440TIP3    H258736   0.759   1.430  12.283 -0.6053 -1.2779 -0.6555
12441TIP3   OH258737   6.146   3.182   4.493  0.0408 -0.5446 -0.0623
12441TIP3    H158738   6.135   3.267   4.450  3.0984 -0.4409 -0.8872
12441TIP3    H258739   6.101   3.120   4.436 -2.0642  0.4326  0.4485
12442TIP3   OH258740   3.903   1.152   3.020  0.1290  0.1412 -0.5673
12442TIP3    H158741   3.966   1.080   3.032 -0.5724 -0.4285 -0.1920
12442TIP3    H258742   3.897   1.162   2.925  0.8576  0.2647 -0.6025
12443TIP3   OH258743   4.608   3.738   0.096  0.7588 -0.2719  0.4933
12443TIP3    H158744   4.703   3.735   0.100  0.6871 -1.2575  2.4208
12443TIP3    H258745   4.583   3.812   0.151  0.3896  0.0729 -0.1156
12444TIP3   OH258746   0.490   6.747   1.906  0.1639  0.4419 -0.0875
12444TIP3    H158747   0.517   6.671   1.958 -2.0194  0.7828  1.6584
12444TIP3    H258748   0.498   6.718   1.815 -0.1451 -1.7188  0.5302
12445TIP3   OH258749   0.909   5.888  13.712  0.2561  0.7147  0.3388
12445TIP3    H158750   0.989   5.921  13.672 -0.1879 -0.7539 -1.9726
12445TIP3    H258751   0.939   5.820  13.772  0.7984  0.8317  0.2082
12446TIP3   OH258752   2.503   0.197  16.734  0.1975 -0.2375 -0.1885
12446TIP3    H158753   2.500   0.195  16.638 -2.1769 -2.6045 -0.1962
12446TIP3    H258754   2.521   0.106  16.759 -1.5099 -0.1637  1.5566
12447TIP3   OH258755   3.074   4.122  13.208  0.3838  0.2432 -0.1081
12447TIP3    H158756   3.110   4.169  13.283 -0.3795 -0.8858  1.0143
12447TIP3    H258757   3.082   4.183  13.135  2.6080  0.8077  0.5252
12448TIP3   OH258758   0.518   3.433   5.893 -0.0534 -0.0531  0.5245
12448TIP3    H158759   0.607   3.458   5.866  0.0620  0.3574  1.2681
12448TIP3    H258760   0.531   3.354   5.946 -0.3268 -1.1570 -0.9746
12449TIP3   OH258761   5.267   4.241   5.772  0.8451 -0.1517  0.2794
12449TIP3    H158762   5.277   4.223   5.865  0.7985 -0.1209  0.2903
12449TIP3    H258763   5.198   4.183   5.743  1.3772 -0.7034  0.1033
12450TIP3   OH258764   6.437   5.974   3.568  0.6662  0.8108  0.2553
12450TIP3    H158765   6.437   6.069   3.571 -0.7786  0.9690 -2.2798
12450TIP3    H258766   6.476   5.952   3.484 -0.1548 -0.7784  0.2425
12451TIP3   OH258767   3.344   0.198  13.353  0.5102 -0.5457  0.0766
12451TIP3    H158768   3.339   0.137  13.426  2.6676  1.5126  2.1462
12451TIP3    H258769   3.430   0.180  13.313 -0.0355 -0.6973 -1.0610
12452TIP3   OH258770   6.670   2.289   0.431  0.5944 -0.5325  0.2548
12452TIP3    H158771   6.621   2.257   0.507  0.3222 -0.1589  0.2410
12452TIP3    H258772   6.607   2.342   0.383  1.2020  0.5368  0.6025
12453TIP3   OH258773   6.564   4.882   0.590  0.1844  0.5848 -0.2734
12453TIP3    H158774   6.655   4.911   0.584 -0.2003  2.3651  1.3317
12453TIP3    H258775   6.513   4.963   0.590 -1.3087 -0.3020  0.2328
12454TIP3   OH258776   4.009   3.014   2.832 -0.4220 -0.3210 -0.0892
12454TIP3    H158777   3.927   3.029   2.786 -0.5574  0.0226  0.2628
12454TIP3    H258778   4.077   3.030   2.767 -0.6538 -2.3161 -0.8896
12455TIP3   OH258779   5.197   0.076  14.160 -0.7777  0.3158  0.1176
12455TIP3    H158780   5.225   0.030  14.080 -1.1365 -1.1330  0.7956
12455TIP3    H258781   5.257   0.150  14.167  0.0275 -0.2129 -0.8560
12456TIP3   OH258782   2.050   6.567   5.445  0.5401  0.2344 -0.3381
12456TIP3    H158783   2.103   6.501   5.402  2.2401  0.5816  1.1123
12456TIP3    H258784   2.040   6.536   5.535  0.2629  1.3095  0.0263
12457TIP3   OH258785   3.567   5.261   1.629 -0.2222 -0.3548 -0.6375
12457TIP3    H158786   3.494   5.253   1.690  1.4704 -1.7138  1.3797
12457TIP3    H258787   3.552   5.344   1.585 -2.7175 -0.3825  0.0010
12458TIP3   OH258788   6.345   5.679  12.801 -0.6774 -0.5582  0.0745
12458TIP3    H158789   6.360   5.766  12.765 -0.5610 -1.0245 -1.0558
12458TIP3    H258790   6.255   5.658  12.776 -0.6648 -0.8080  0.2337
12459TIP3   OH258791   3.871   0.049   3.674  0.0293  0.2013  0.1957
12459TIP3    H158792   3.918   0.099   3.608  2.4357 -1.6563  0.3675
12459TIP3    H258793   3.927  -0.027   3.691 -1.1343 -0.0848  3.4006
12460TIP3   OH258794   3.031   1.789   3.014  0.1487  0.5507  0.2713
12460TIP3    H158795   3.096   1.722   2.995 -0.8149  0.0325 -1.3627
12460TIP3    H258796   3.076   1.850   3.072  1.8391 -0.1783 -0.2166
12461TIP3   OH258797   4.347   1.598   3.607  0.2724 -0.4894 -0.8429
12461TIP3    H158798   4.426   1.595   3.552  0.6229  0.0016 -0.3723
12461TIP3    H258799   4.276   1.572   3.548  0.4902  0.9961 -1.8119
12462TIP3   OH258800   3.961   6.024   1.891 -0.3703 -0.3608  0.0686
12462TIP3    H158801   4.008   5.966   1.831 -0.4511 -0.3923  0.0345
12462TIP3    H258802   3.956   6.108   1.844  1.9081  0.4341  1.1078
12463TIP3   OH258803   0.386   5.213   3.124  0.2675  0.1449 -0.4102
12463TIP3    H158804   0.328   5.182   3.193 -0.1274 -1.0654 -1.2310
12463TIP3    H258805   0.392   5.307   3.137 -0.3576  0.0293  0.8375
12464TIP3   OH258806   5.787   0.900  16.465  0.5391  0.0073 -0.2145
12464TIP3    H158807   5.720   0.833  16.457 -0.8212  1.3508 -0.6752
12464TIP3    H258808   5.740   0.983  16.451  2.6581  0.9007 -2.9364
12465TIP3   OH258809   4.326   5.391  15.527 -0.3380  0.0249  0.0236
12465TIP3    H158810   4.335   5.373  15.433  0.1652 -0.1887  0.1085
12465TIP3    H258811   4.241   5.435  15.535 -1.1139 -1.3385 -0.3373
12466TIP3   OH258812   4.549   3.590   5.393  0.0587 -0.5538  0.1640
12466TIP3    H158813   4.601   3.510   5.396  1.2215  0.2034  1.8522
12466TIP3    H258814   4.560   3.630   5.479  0.5423  2.0607 -0.9922
12467TIP3   OH258815   2.591   1.613   2.070 -0.1272 -0.0722 -0.2332
12467TIP3    H158816   2.542   1.596   1.990  0.7299  0.3814 -0.8715
12467TIP3    H258817   2.533   1.584   2.141 -1.0572 -0.1033 -0.9926
12468TIP3   OH258818   5.806   4.381  10.589  0.5481 -0.1744  0.1586
12468TIP3    H158819   5.896   4.406  10.612  1.2293 -1.3116 -1.0804
12468TIP3    H258820   5.803   4.389  10.493 -0.2120 -1.5298  0.0441
12469TIP3   OH258821   6.391   6.610  12.005 -0.2247 -0.5407 -0.0615
12469TIP3    H158822   6.447   6.682  11.976  0.2821 -0.9832 -0.1893
12469TIP3    H258823   6.330   6.596  11.932 -0.3452 -0.2236 -0.0226
12470TIP3   OH258824   0.470   3.531   2.967  0.5399 -0.0752 -0.1818
12470TIP3    H158825   0.445   3.452   3.014 -2.2412  0.3423 -0.7832
12470TIP3    H258826   0.564   3.523   2.955  0.1418 -4.5954 -2.5048
12471TIP3   OH258827   1.768   5.319  10.449  0.4021 -0.7409  0.1216
12471TIP3    H158828   1.807   5.234  10.429 -0.8233 -1.7145  1.6183
12471TIP3    H258829   1.833   5.362  10.505  1.0785 -0.6181 -0.7388
12472TIP3   OH258830   5.195   3.843   6.654 -0.4637 -0.1323 -0.1182
12472TIP3    H158831   5.188   3.919   6.713 -1.6368  1.4093 -2.1445
12472TIP3    H258832   5.287   3.816   6.663 -0.3422  0.6630  1.6402
12473TIP3   OH258833   4.860   4.457   6.562  0.3337  0.5307 -0.1902
12473TIP3    H158834   4.812   4.445   6.480 -0.2486 -2.5671  0.4694
12473TIP3    H258835   4.891   4.369   6.584  1.0324  1.3813  2.5838
12474TIP3   OH258836   3.989   5.427   4.682  0.2579 -0.1538  0.1898
12474TIP3    H158837   3.949   5.340   4.682  0.0835 -0.0835 -0.9229
12474TIP3    H258838   4.060   5.421   4.618 -0.6675  0.9129 -0.9911
12475TIP3   OH258839   3.496   2.333   6.669 -0.0544  0.0519  0.1157
12475TIP3    H158840   3.532   2.357   6.584 -0.0726 -1.8204 -0.4719
12475TIP3    H258841   3.402   2.349   6.661  0.1003  1.1328  0.2689
12476TIP3   OH258842   5.847   1.495  11.192  0.3071 -0.3498  1.0079
12476TIP3    H158843   5.843   1.471  11.099 -0.3740 -0.1915  0.9934
12476TIP3    H258844   5.887   1.419  11.234  0.9639 -0.2801  0.5439
12477TIP3   OH258845   6.105   0.063   0.177  0.3097  0.2889 -0.3003
12477TIP3    H158846   6.111   0.002   0.103  0.1035  1.4180 -1.2711
12477TIP3    H258847   6.011   0.072   0.193  0.3347  0.4545 -0.2449
12478TIP3   OH258848   0.174   6.441   1.465  0.2175 -0.6105 -0.0511
12478TIP3    H158849   0.225   6.522   1.464 -1.0161  0.3621  3.1882
12478TIP3    H258850   0.236   6.374   1.494  0.2120  0.1513  1.8323
12479TIP3   OH258851   4.352   4.582   1.147 -0.1394 -0.2551  0.0133
12479TIP3    H158852   4.417   4.541   1.091  0.6101  0.7486  0.1240
12479TIP3    H258853   4.270   4.573   1.100  0.6402  1.6185 -1.8626
12480TIP3   OH258854   2.755   4.034   5.979 -0.5239  0.3708 -0.1104
12480TIP3    H158855   2.832   3.977   5.988 -0.3570  0.7463  0.9350
12480TIP3    H258856   2.681   3.974   5.983 -0.2910 -0.0246 -1.3800
12481TIP3   OH258857   5.616   2.702   5.266 -0.0939  0.3408 -0.0043
12481TIP3    H158858   5.703   2.661   5.267 -0.0615  0.4172  0.2877
12481TIP3    H258859   5.562   2.642   5.214  0.1181  0.2626 -0.1356
12482TIP3   OH258860   3.009   4.383   5.327 -0.0598  0.2478 -0.5469
12482TIP3    H158861   2.943   4.328   5.285 -1.0152  0.5829  0.4831
12482TIP3    H258862   2.978   4.472   5.315  0.2433  0.4155 -0.1319
12483TIP3   OH258863   0.968   6.228  12.547  0.1888  0.5472 -0.3508
12483TIP3    H158864   1.045   6.216  12.603 -1.2189  2.3067  2.1758
12483TIP3    H258865   0.989   6.303  12.492  0.8981 -0.0380 -0.8879
12484TIP3   OH258866   2.151   6.767   2.183  0.5448 -0.3582 -0.1367
12484TIP3    H158867   2.160   6.835   2.250  4.5520  0.1343 -0.9016
12484TIP3    H258868   2.102   6.697   2.227 -1.7286  2.0193  1.4085
12485TIP3   OH258869   4.198   2.024  13.617  0.0345 -0.1938  0.5754
12485TIP3    H158870   4.243   1.950  13.658 -0.3359 -0.4963  0.4433
12485TIP3    H258871   4.219   2.099  13.672  1.6545 -0.0934 -0.1285
12486TIP3   OH258872   3.896   4.273  15.463  0.3758  0.5557 -0.5995
12486TIP3    H158873   3.953   4.296  15.536 -0.7658  0.0683  0.4853
12486TIP3    H258874   3.808   4.268  15.501 -0.3336  0.8069 -2.1159
12487TIP3   OH258875   4.032   1.370   3.162 -0.1817  0.5208  0.1020
12487TIP3    H158876   4.082   1.399   3.086  0.8742 -3.3753 -0.8941
12487TIP3    H258877   3.973   1.303   3.129 -0.2155 -0.7996  2.5557
12488TIP3   OH258878   6.772   0.082  13.966 -0.3582  0.3532  0.2165
12488TIP3    H158879   6.821   0.144  14.020 -0.4425  0.3396  0.3088
12488TIP3    H258880   6.789   0.110  13.876  0.4643 -0.1349  0.2148
12489TIP3   OH258881   3.602   3.892  15.259 -0.5523 -0.1338  0.8684
12489TIP3    H158882   3.638   3.978  15.236 -1.7084  0.3474  0.8202
12489TIP3    H258883   3.632   3.833  15.189 -1.5274  0.6836 -0.2746
12490TIP3   OH258884   2.672   1.702   0.506  0.7608  0.1694 -0.2154
12490TIP3    H158885   2.597   1.743   0.550  0.4210  0.8193 -1.3465
12490TIP3    H258886   2.671   1.611   0.536 -0.1655  0.3020  0.1920
12491TIP3   OH258887   2.867   2.887  17.145 -0.1813  0.3573 -0.0585
12491TIP3    H158888   2.919   2.840  17.080 -0.7220  1.5651 -1.4373
12491TIP3    H258889   2.802   2.823  17.174  1.4715 -0.8956  1.0455
12492TIP3   OH258890   4.780   0.042   3.851 -0.3515  0.2506  0.2319
12492TIP3    H158891   4.720   0.116   3.852 -1.2750 -0.4410 -1.0268
12492TIP3    H258892   4.726  -0.032   3.825  1.0375 -0.3947 -0.9509
12493TIP3   OH258893   4.480   6.092   2.938 -0.0675 -0.2574  0.3792
12493TIP3    H158894   4.415   6.138   2.990  0.3963  0.0384  0.7103
12493TIP3    H258895   4.553   6.154   2.930  0.5584 -0.9146  0.8059
12494TIP3   OH258896   5.641   0.113   2.197  0.3513 -0.7238  0.5960
12494TIP3    H158897   5.723   0.161   2.185 -0.2223  0.2842  0.6313
12494TIP3    H258898   5.623   0.119   2.291  0.7016 -1.7524  0.7480
12495TIP3   OH258899   0.808   5.717  16.549 -0.2247 -0.5793  0.0642
12495TIP3    H158900   0.750   5.793  16.552  0.4760  0.0747 -1.6420
12495TIP3    H258901   0.870   5.737  16.479  1.0343 -1.9928  0.7164
12496TIP3   OH258902   4.563   3.507   1.285 -0.1610  0.4027 -0.0794
12496TIP3    H158903   4.489   3.568   1.284  0.0639  0.6675 -0.1906
12496TIP3    H258904   4.580   3.487   1.193 -0.6207 -0.2958 -0.0285
12497TIP3   OH258905   1.482   2.386  17.104 -0.6539 -0.1713 -0.4572
12497TIP3    H158906   1.400   2.433  17.091 -0.4272  0.8992  1.4594
12497TIP3    H258907   1.534   2.405  17.026 -1.9437 -0.3069 -1.3855
12498TIP3   OH258908   2.385   2.948  17.154 -0.2668 -0.3109 -0.3016
12498TIP3    H158909   2.471   2.953  17.113 -0.8439  0.4733 -1.4721
12498TIP3    H258910   2.393   2.877  17.218  1.0261 -0.7377 -0.8965
12499TIP3   OH258911   1.784   4.211   2.535  0.2779 -0.1747  0.0481
12499TIP3    H158912   1.748   4.284   2.484  0.9838 -0.3255 -0.6909
12499TIP3    H258913   1.872   4.197   2.498  0.0900 -1.5081  0.0524
12500TIP3   OH258914   3.337   5.379  11.755  0.3912 -0.3103  0.3557
12500TIP3    H158915   3.296   5.401  11.671 -0.0401  0.3520  0.7299
12500TIP3    H258916   3.424   5.418  11.749  0.2923 -0.0938  0.2802
12501TIP3   OH258917   5.746   3.051   5.951  0.1615 -0.2503 -0.2351
12501TIP3    H158918   5.737   3.119   5.885  0.2348 -0.2846 -0.2818
12501TIP3    H258919   5.776   3.097   6.030 -0.6998 -0.0936  0.0129
12502TIP3   OH258920   2.543   5.328   4.951  0.1353 -0.2121  0.2211
12502TIP3    H158921   2.569   5.291   5.036  1.4566 -1.9640 -0.8739
12502TIP3    H258922   2.448   5.317   4.949  0.0668 -0.0765  1.4818
12503TIP3   OH258923   4.051   6.758   3.141 -0.0435  0.1068  0.3463
12503TIP3    H158924   4.085   6.729   3.056 -0.9269 -0.0636  0.0446
12503TIP3    H258925   3.957   6.769   3.127 -0.2090  0.0272  1.3178
12504TIP3   OH258926   4.438   4.277   5.592  0.3327  0.2471 -0.3138
12504TIP3    H158927   4.422   4.338   5.665 -0.6797  0.0396 -0.3496
12504TIP3    H258928   4.364   4.292   5.532 -0.1230 -1.2535 -0.1575
12505TIP3   OH258929   1.360   4.273  14.131  0.6208  0.0385 -0.2616
12505TIP3    H158930   1.450   4.300  14.113  0.8784  0.0685  0.9663
12505TIP3    H258931   1.364   4.178  14.136  0.6489  0.0535  0.0538
12506TIP3   OH258932   1.644   3.906   1.659  0.0815  0.0914 -0.5463
12506TIP3    H158933   1.616   3.925   1.748  0.8181  1.1507 -0.5227
12506TIP3    H258934   1.600   3.972   1.606  3.2643  2.5966 -0.3812
12507TIP3   OH258935   4.111   0.839   1.618 -0.1265  0.2955 -0.9906
12507TIP3    H158936   4.102   0.886   1.700  0.0120 -0.8679 -0.2876
12507TIP3    H258937   4.048   0.882   1.559 -2.6545 -0.8779  0.6594
12508TIP3   OH258938   0.890   0.517  13.975 -0.1011 -0.1591 -0.3247
12508TIP3    H158939   0.811   0.543  14.021 -1.0430 -2.4250 -0.5369
12508TIP3    H258940   0.956   0.508  14.044  0.3248  2.7499 -0.2672
12509TIP3   OH258941   2.265   4.718   1.969 -0.1667 -0.1133 -0.0055
12509TIP3    H158942   2.259   4.641   2.026 -0.2691  0.1963  0.4005
12509TIP3    H258943   2.321   4.779   2.017 -0.6686  0.3499 -0.0037
12510TIP3   OH258944   0.389   6.328   1.559  0.2575 -0.3982 -0.0405
12510TIP3    H158945   0.343   6.329   1.643 -0.6942  0.7067 -0.5526
12510TIP3    H258946   0.472   6.373   1.577 -0.1050  0.1698  0.2136
12511TIP3   OH258947   6.411   4.685   0.503  0.4836 -0.4251 -0.6077
12511TIP3    H158948   6.464   4.763   0.520  1.2618 -0.7331 -1.5320
12511TIP3    H258949   6.321   4.714   0.517  0.8280  0.3331  0.1692
12512TIP3   OH258950   4.814   2.385  15.356 -0.7076 -0.3946 -0.1315
12512TIP3    H158951   4.844   2.472  15.383 -2.2379 -0.1994  1.0878
12512TIP3    H258952   4.859   2.369  15.273  0.1620  1.2441 -0.0259
12513TIP3   OH258953   2.405   0.011   2.048  0.2957  0.2280 -1.1447
12513TIP3    H158954   2.410   0.081   1.984  2.7053  1.5183  0.3100
12513TIP3    H258955   2.316   0.017   2.084  0.4550  2.6159 -1.0288
12514TIP3   OH258956   0.605   0.206  13.011  0.0841 -0.0486 -1.2047
12514TIP3    H158957   0.698   0.189  13.023 -0.1151 -1.0640 -1.0054
12514TIP3    H258958   0.564   0.171  13.090 -0.5156 -0.0504 -1.5092
12515TIP3   OH258959   1.403   5.896  16.732 -0.0926 -0.3977 -0.3225
12515TIP3    H158960   1.324   5.850  16.760  0.7058 -0.7451  1.4954
12515TIP3    H258961   1.467   5.827  16.717  0.3519 -0.0227 -0.1746
12516TIP3   OH258962   4.054   4.876   3.237 -0.0961  0.0759  0.7234
12516TIP3    H158963   4.064   4.949   3.297  0.1445  0.2871  0.4319
12516TIP3    H258964   3.961   4.875   3.215  0.0127  0.7106  0.2152
12517TIP3   OH258965   4.798   0.237  14.919  0.1400 -0.6007  0.5341
12517TIP3    H158966   4.719   0.286  14.941 -0.5216 -0.9417 -0.9276
12517TIP3    H258967   4.857   0.302  14.880 -0.7590 -0.8830 -1.4579
12518TIP3   OH258968   4.615   4.753  11.739 -0.5799 -0.0858 -0.0672
12518TIP3    H158969   4.587   4.747  11.830 -1.1252  4.2264  0.2688
12518TIP3    H258970   4.534   4.762  11.689 -0.3055  3.3696 -0.1396
12519TIP3   OH258971   3.232   0.826  13.998 -0.2646  0.7839 -0.0458
12519TIP3    H158972   3.293   0.804  14.069 -0.8669 -0.7567  0.0173
12519TIP3    H258973   3.258   0.915  13.973  2.2749  0.0780 -0.2767
12520TIP3   OH258974   4.776   5.420   5.673 -0.9137 -0.0506  0.0055
12520TIP3    H158975   4.821   5.349   5.718  2.3395 -0.5218 -3.5082
12520TIP3    H258976   4.814   5.500   5.710  1.4561 -0.4241 -1.3819
12521TIP3   OH258977   2.243   3.517   6.537 -0.1024 -0.2739  0.2491
12521TIP3    H158978   2.223   3.537   6.628 -0.8768 -0.2670  0.0824
12521TIP3    H258979   2.272   3.600   6.499 -1.5003  0.1479  0.0413
12522TIP3   OH258980   4.976   2.948  14.449  0.1683  0.1932 -0.1000
12522TIP3    H158981   5.040   2.967  14.518  0.1690  0.2810 -0.1245
12522TIP3    H258982   4.999   3.008  14.378  0.2655 -0.0066 -0.2373
12523TIP3   OH258983   2.234   1.700   5.781 -0.1585 -0.4335  0.4193
12523TIP3    H158984   2.289   1.660   5.849 -0.7199 -0.8522  0.6262
12523TIP3    H258985   2.155   1.646   5.779 -0.3989 -0.0623 -0.1511
12524TIP3   OH258986   2.295   2.675  15.308  1.0797  0.2440 -0.0378
12524TIP3    H158987   2.310   2.644  15.218  0.4493  2.8183 -1.1240
12524TIP3    H258988   2.364   2.740  15.323  0.4773  0.6933  0.8771
12525TIP3   OH258989   0.115   1.653   5.765  0.0399 -0.0318 -0.1697
12525TIP3    H158990   0.087   1.586   5.827 -2.1573  0.5506 -0.4239
12525TIP3    H258991   0.117   1.609   5.680 -0.4851 -0.0113 -0.1970
12526TIP3   OH258992   4.872   0.878   2.272 -0.7436 -0.4477 -0.1696
12526TIP3    H158993   4.799   0.889   2.333  0.3233  0.0268  1.0695
12526TIP3    H258994   4.877   0.961   2.224 -0.0264  0.1464  0.8972
12527TIP3   OH258995   3.423   5.228  16.329 -0.2105 -0.1327 -0.0189
12527TIP3    H158996   3.455   5.293  16.391 -2.3030  1.4372 -0.4805
12527TIP3    H258997   3.438   5.267  16.243  2.5850 -2.2482 -0.6492
12528TIP3   OH258998   1.141   6.624   0.459  0.0986  0.4575  0.3281
12528TIP3    H158999   1.138   6.712   0.497 -1.3532  1.3186 -1.5876
12528TIP3    H259000   1.053   6.611   0.423  0.9635 -0.8337 -1.4523
12529TIP3   OH259001   2.254   5.535  14.172  0.2122  0.0882 -0.3092
12529TIP3    H159002   2.273   5.625  14.146 -0.3333  0.6080  0.9972
12529TIP3    H259003   2.165   5.540  14.209  0.5446 -0.7871  0.6367
12530TIP3   OH259004   2.451   6.132   0.637 -0.1304 -0.4976  0.1035
12530TIP3    H159005   2.498   6.166   0.713  0.5979  0.7852 -0.8788
12530TIP3    H259006   2.503   6.160   0.562 -0.9182 -1.5822 -0.8940
12531TIP3   OH259007   5.172   5.492   2.086  0.2195 -0.5129 -0.2179
12531TIP3    H159008   5.099   5.461   2.139 -0.3920  1.1910 -0.0007
12531TIP3    H259009   5.133   5.513   2.001  0.4313  0.4375 -0.0902
12532TIP3   OH259010   4.940   2.406   2.522 -0.0899 -0.4043 -0.3173
12532TIP3    H159011   5.034   2.410   2.505  0.0691  1.8206  0.7140
12532TIP3    H259012   4.933   2.362   2.607  0.4473  2.8754  1.6073
12533TIP3   OH259013   4.603   0.564  13.629 -0.1809 -0.2733  0.5429
12533TIP3    H159014   4.656   0.528  13.558 -0.5493  0.9520 -0.3968
12533TIP3    H259015   4.572   0.487  13.677  0.6614 -1.0997 -0.1907
12534TIP3   OH259016   0.364   2.897  13.094  0.3612 -0.7510  0.6317
12534TIP3    H159017   0.448   2.898  13.142  0.3545 -1.5016  0.6639
12534TIP3    H259018   0.389   2.888  13.002  0.3138 -0.9702  0.6412
12535TIP3   OH259019   3.583   4.783  15.128 -0.1093  0.4097 -0.5443
12535TIP3    H159020   3.566   4.866  15.172 -0.4169  0.3392 -0.5302
12535TIP3    H259021   3.592   4.806  15.036  3.8138  1.0781 -0.1890
12536TIP3   OH259022   0.925   3.961  11.960  0.2136 -0.1443  0.1136
12536TIP3    H159023   1.005   4.010  11.946 -1.1586  2.2247  0.0776
12536TIP3    H259024   0.878   3.966  11.877 -1.1210  0.8279  0.8727
12537TIP3   OH259025   0.348   2.491   5.050  0.2320  0.4178  0.0724
12537TIP3    H159026   0.377   2.402   5.072  1.4740  0.4173 -1.4076
12537TIP3    H259027   0.426   2.545   5.058  0.0688  0.9232 -1.3799
12538TIP3   OH259028   5.120   1.356  14.873 -0.5227 -0.4950 -0.1977
12538TIP3    H159029   5.063   1.280  14.867 -1.3754  0.0921  0.1130
12538TIP3    H259030   5.142   1.378  14.782  1.4836 -2.3407 -0.2373
12539TIP3   OH259031   2.661   5.461  13.638 -0.8690  0.4010  0.7249
12539TIP3    H159032   2.691   5.421  13.556 -3.5463 -0.1063 -0.1055
12539TIP3    H259033   2.622   5.544  13.611 -1.8604  0.1862  1.4670
12540TIP3   OH259034   6.745   0.308  16.434  0.3602  0.0452  0.2185
12540TIP3    H159035   6.743   0.379  16.499  0.8735  1.2751 -1.0474
12540TIP3    H259036   6.834   0.312  16.398 -0.4760  0.7131 -1.9132
12541TIP3   OH259037   4.009   2.454  11.126  0.3477  0.0044  0.2190
12541TIP3    H159038   3.953   2.531  11.114 -1.5179 -1.6514 -3.1397
12541TIP3    H259039   4.022   2.419  11.038  0.6379 -3.8332  1.5805
12542TIP3   OH259040   5.057   6.001   4.956  0.0447  0.1822  0.0466
12542TIP3    H159041   4.998   6.059   5.005  1.2510 -1.0611  3.2539
12542TIP3    H259042   5.004   5.923   4.937  0.1294 -0.2261  1.3961
12543TIP3   OH259043   4.059   3.969  15.171  0.3153 -0.2937  0.0985
12543TIP3    H159044   4.127   3.934  15.113  1.2577  1.6094 -0.0145
12543TIP3    H259045   3.995   4.008  15.111  0.8155  0.8421  0.2848
12544TIP3   OH259046   3.515   4.328  14.212  0.5883 -0.0889  0.1679
12544TIP3    H159047   3.518   4.312  14.117 -0.0084 -0.6367  0.2299
12544TIP3    H259048   3.508   4.241  14.251  0.4824  0.1507  0.6989
12545TIP3   OH259049   1.936   4.769   2.736 -0.0808  0.7217  0.7433
12545TIP3    H159050   2.011   4.714   2.760  0.3002  0.7604 -0.2873
12545TIP3    H259051   1.860   4.723   2.771  0.2709 -0.2317  0.3034
12546TIP3   OH259052   3.976   3.553  15.371 -0.3129  0.2911 -0.1743
12546TIP3    H159053   3.950   3.574  15.282 -1.6579 -0.4629  0.0272
12546TIP3    H259054   3.909   3.593  15.426 -0.9618 -1.4593  0.3687
12547TIP3   OH259055   5.075   0.881   3.280  0.0130  0.5048 -0.4316
12547TIP3    H159056   5.102   0.796   3.246  0.6573  0.7745 -0.6088
12547TIP3    H259057   5.061   0.866   3.374  0.9318  0.3866 -0.3032
12548TIP3   OH259058   2.978   2.905  15.033 -0.6797  0.3746  0.1206
12548TIP3    H159059   2.954   2.857  14.954 -0.4013  1.2426 -0.5148
12548TIP3    H259060   2.974   2.840  15.103 -2.1839 -0.1338 -0.3882
12549TIP3   OH259061   0.339   1.597   4.538 -0.3672  0.6207  0.0834
12549TIP3    H159062   0.325   1.606   4.444 -1.3445  1.1514  0.2616
12549TIP3    H259063   0.418   1.544   4.546 -0.5451  0.1587 -1.0363
12550TIP3   OH259064   0.242   2.712  16.359  0.2171 -0.6864 -0.2053
12550TIP3    H159065   0.330   2.682  16.381  0.1943 -0.4554  0.2224
12550TIP3    H259066   0.210   2.754  16.439 -0.0484 -0.2214 -0.5468
12551TIP3   OH259067   1.401   2.029  16.284  0.4401  0.0995  0.1741
12551TIP3    H159068   1.480   1.995  16.326 -1.2475 -2.2103  1.6177
12551TIP3    H259069   1.409   2.002  16.192  0.4591 -1.8368  0.7177
12552TIP3   OH259070   1.699   4.984   5.246 -0.5028 -0.3955 -0.2131
12552TIP3    H159071   1.623   5.041   5.262  1.1356  2.2186 -0.9988
12552TIP3    H259072   1.724   4.953   5.333 -1.0848  0.6250  0.3427
12553TIP3   OH259073   0.478   4.554   0.876  0.0350  0.3120  0.3729
12553TIP3    H159074   0.483   4.608   0.955 -0.8274 -2.6397  2.6325
12553TIP3    H259075   0.566   4.516   0.867 -0.2914 -0.5847  0.8879
12554TIP3   OH259076   3.180   4.729   6.416 -0.1581 -0.4611  0.4258
12554TIP3    H159077   3.229   4.762   6.491  0.0325  1.6480 -0.5700
12554TIP3    H259078   3.094   4.707   6.450 -0.4388  1.5232  1.0904
12555TIP3   OH259079   0.575   5.172  11.815 -0.4145 -0.1792 -0.2102
12555TIP3    H159080   0.545   5.131  11.896  0.4555 -2.1873 -0.8162
12555TIP3    H259081   0.495   5.199  11.770 -0.8684  2.5953  2.0022
12556TIP3   OH259082   3.503   4.717   6.328  0.9936  1.0163  0.1592
12556TIP3    H159083   3.540   4.732   6.415 -0.8675  0.4088  1.0861
12556TIP3    H259084   3.484   4.805   6.295 -0.5000  1.1811  1.3780
12557TIP3   OH259085   3.043   4.095   5.054 -0.3881  0.2483 -0.1947
12557TIP3    H159086   3.130   4.071   5.022 -0.2725  0.5384 -0.1030
12557TIP3    H259087   3.026   4.036   5.127 -1.0767 -1.1235 -1.3946
12558TIP3   OH259088   0.991   0.944  15.402 -0.3631  0.7749 -0.2430
12558TIP3    H159089   0.927   1.015  15.410  0.3087  1.2651  1.1636
12558TIP3    H259090   0.979   0.893  15.482  1.0545  0.9316  0.0917
12559TIP3   OH259091   0.689   5.811  10.927  0.1704 -0.0706  0.1838
12559TIP3    H159092   0.594   5.803  10.915  0.2238 -0.2756 -0.1156
12559TIP3    H259093   0.724   5.810  10.838  0.5456 -1.1536  0.3258
12560TIP3   OH259094   4.843   1.937  17.049 -0.4022  0.0664 -0.8179
12560TIP3    H159095   4.928   1.900  17.073 -0.6263  0.5797  0.9195
12560TIP3    H259096   4.845   1.941  16.953  0.7122 -1.8047 -0.9298
12561TIP3   OH259097   2.950   1.251   4.841  0.6405  0.0658 -0.3067
12561TIP3    H159098   2.930   1.188   4.911 -1.8767  0.3138 -0.7055
12561TIP3    H259099   2.921   1.335   4.875 -1.8081  0.0202 -1.9692
12562TIP3   OH259100   1.854   3.102  11.582 -0.4575  0.0765  0.7639
12562TIP3    H159101   1.878   3.011  11.562  0.5316  0.6782 -0.9128
12562TIP3    H259102   1.769   3.114  11.541  1.0226  0.9379 -2.3289
12563TIP3   OH259103   0.437   4.710  13.522  0.1720  0.4572 -0.2552
12563TIP3    H159104   0.453   4.617  13.538  0.2128  0.0120 -2.5599
12563TIP3    H259105   0.497   4.733  13.452  0.3993  2.3443  0.4990
12564TIP3   OH259106   3.446   2.287   6.111 -0.2214 -0.1926 -0.6623
12564TIP3    H159107   3.458   2.250   6.199  2.4212  0.0548 -0.8364
12564TIP3    H259108   3.376   2.352   6.122 -2.5080 -2.6675  0.3856
12565TIP3   OH259109   4.798   0.890  15.140 -0.3785  0.8234  0.2221
12565TIP3    H159110   4.783   0.796  15.125 -0.4331  1.2451 -3.3166
12565TIP3    H259111   4.726   0.917  15.196  0.7244 -1.5320  3.0359
12566TIP3   OH259112   0.816   2.975  15.986 -0.1343  0.1080 -0.1230
12566TIP3    H159113   0.726   2.989  15.957 -0.5294 -0.8365  0.5948
12566TIP3    H259114   0.816   2.885  16.019  0.5794  0.7678  1.7459
12567TIP3   OH259115   4.744   6.235  12.765  0.2699 -0.2924  0.7241
12567TIP3    H159116   4.676   6.174  12.739  0.2026 -0.7450  1.8995
12567TIP3    H259117   4.797   6.187  12.829  1.2524  0.2978  0.3915
12568TIP3   OH259118   0.923   0.562  12.685 -0.0295  0.2795  0.0445
12568TIP3    H159119   0.974   0.603  12.615  0.9980  1.6529  1.5365
12568TIP3    H259120   0.889   0.635  12.736 -1.9699 -0.6652  0.1808
12569TIP3   OH259121   3.562   1.051  13.180  0.1958 -0.4576 -0.2262
12569TIP3    H159122   3.583   1.028  13.090 -1.8470  0.8229 -1.1014
12569TIP3    H259123   3.579   1.145  13.186 -2.5896  0.1434 -0.2883
12570TIP3   OH259124   2.747   6.604  13.555  0.2535  0.2388  0.0595
12570TIP3    H159125   2.811   6.608  13.626 -0.7657 -0.2443  1.0246
12570TIP3    H259126   2.685   6.675  13.575 -0.7293 -0.6838  0.3512
12571TIP3   OH259127   1.500   3.607   4.046 -0.0887  0.3152 -0.5424
12571TIP3    H159128   1.579   3.585   3.996  1.5492  1.5682  1.3270
12571TIP3    H259129   1.507   3.553   4.126 -2.0394 -0.7991 -1.0484
12572TIP3   OH259130   5.758   3.671   2.647  0.6647 -0.1574  0.2587
12572TIP3    H159131   5.804   3.711   2.574 -0.3254 -0.5374 -0.5885
12572TIP3    H259132   5.739   3.582   2.618 -1.3682  0.2478  0.2289
12573TIP3   OH259133   0.814   2.749  16.127 -0.1946  0.5880  0.1893
12573TIP3    H159134   0.901   2.711  16.139 -0.3259  0.3890  0.5161
12573TIP3    H259135   0.772   2.742  16.213 -0.7740  0.0762 -0.1245
12574TIP3   OH259136   6.630   3.395   4.539  0.0982 -0.0890 -0.2733
12574TIP3    H159137   6.724   3.409   4.531 -0.1424  1.9702 -0.0630
12574TIP3    H259138   6.593   3.434   4.459 -0.5798 -0.8331 -0.3354
12575TIP3   OH259139   6.757   0.439   0.964 -0.4517 -0.1722  0.4734
12575TIP3    H159140   6.737   0.447   1.057 -1.1467 -0.7895  0.3830
12575TIP3    H259141   6.828   0.374   0.961 -0.5970 -0.3364  0.5549
12576TIP3   OH259142   5.463   2.290   1.691  0.5048 -0.3511 -0.2441
12576TIP3    H159143   5.462   2.229   1.617 -0.3477  0.5663 -1.0020
12576TIP3    H259144   5.556   2.304   1.709  0.7120 -1.0712 -0.7183
12577TIP3   OH259145   6.280   5.462  13.123  0.1467  0.1665  0.8000
12577TIP3    H159146   6.189   5.437  13.140  0.8829 -2.6490  1.0969
12577TIP3    H259147   6.303   5.414  13.044  1.8957 -0.6556  1.7632
12578TIP3   OH259148   4.165   1.871  12.191 -0.3094  0.1587 -0.0309
12578TIP3    H159149   4.156   1.891  12.284  0.7695 -1.4561  0.4614
12578TIP3    H259150   4.135   1.950  12.146 -0.0358  1.2787  1.6867
12579TIP3   OH259151   6.254   0.608   4.176 -0.6321 -0.0870  0.0576
12579TIP3    H159152   6.230   0.630   4.266 -0.1458 -0.0489  0.1847
12579TIP3    H259153   6.218   0.679   4.123 -0.3367  0.2491  0.3011
12580TIP3   OH259154   5.286   0.876   1.409  0.5209  0.2834  0.3622
12580TIP3    H159155   5.369   0.924   1.414  0.8183 -0.3281  1.4941
12580TIP3    H259156   5.223   0.941   1.377  1.3292  0.8861 -0.0354
12581TIP3   OH259157   6.072   5.739   0.887 -0.0594 -0.3550 -0.7458
12581TIP3    H159158   6.087   5.740   0.793  0.4128  1.0891 -0.6683
12581TIP3    H259159   6.136   5.801   0.923  2.5557 -3.6561  0.9720
12582TIP3   OH259160   0.301   2.314  14.216 -0.0420  0.4935  0.4130
12582TIP3    H159161   0.318   2.344  14.305  1.5217 -0.3237  0.4217
12582TIP3    H259162   0.335   2.384  14.160 -0.3315  0.6672  0.4546
12583TIP3   OH259163   3.464   4.206   0.690 -0.3240 -0.0882 -0.7038
12583TIP3    H159164   3.426   4.138   0.635  1.3929  0.6927 -3.0217
12583TIP3    H259165   3.534   4.163   0.738 -0.2238 -0.2683 -1.0099
12584TIP3   OH259166   0.666   0.230  13.428  0.6453 -0.2904 -0.0124
12584TIP3    H159167   0.642   0.161  13.366  1.7723  0.7967 -1.7312
12584TIP3    H259168   0.726   0.187  13.489 -0.8047 -1.4832  0.6419
12585TIP3   OH259169   0.972   2.075   6.118  0.3685 -0.1444  0.2651
12585TIP3    H159170   0.945   1.986   6.096 -1.1759  0.3016  0.2711
12585TIP3    H259171   0.927   2.131   6.055  0.7030  0.7033  0.7556
12586TIP3   OH259172   0.616   3.764  16.349  0.2362 -0.0635  0.2178
12586TIP3    H159173   0.539   3.745  16.296 -0.6664  0.6788  1.2390
12586TIP3    H259174   0.628   3.858  16.342  0.6157 -0.0772  0.6404
12587TIP3   OH259175   5.663   5.681  11.256 -0.0330 -0.7084 -0.6627
12587TIP3    H159176   5.610   5.750  11.217  0.0412  0.3232  0.9861
12587TIP3    H259177   5.750   5.720  11.265  0.7027 -1.9217 -2.0912
12588TIP3   OH259178   3.012   2.576  14.625  0.3260 -0.4552  0.6342
12588TIP3    H159179   2.978   2.646  14.569  0.2380 -0.1491  1.0685
12588TIP3    H259180   2.953   2.575  14.701  1.1539 -0.0673  1.2962
12589TIP3   OH259181   5.184   3.218   0.416  0.0942 -0.3042  0.5257
12589TIP3    H159182   5.112   3.212   0.479 -2.2067 -1.4664 -2.0471
12589TIP3    H259183   5.160   3.291   0.359  2.5228  1.2261  1.2961
12590TIP3   OH259184   5.973   5.690  12.505  0.1564 -0.2302 -0.7566
12590TIP3    H159185   6.021   5.632  12.446  1.4652  0.6669 -0.6041
12590TIP3    H259186   5.886   5.698  12.465  0.9622  0.2286 -2.5065
12591TIP3   OH259187   1.394   5.670   1.519  0.1733 -0.0894  0.1728
12591TIP3    H159188   1.428   5.582   1.535  0.0672  0.0366  1.1279
12591TIP3    H259189   1.299   5.661   1.528  0.0601 -0.0994 -0.8607
12592TIP3   OH259190   5.553   6.034   5.865 -0.4914 -0.3781 -0.1949
12592TIP3    H159191   5.579   5.979   5.939  0.1138  0.6571  0.3884
12592TIP3    H259192   5.615   6.010   5.795  0.3949  0.2457  0.3682
12593TIP3   OH259193   2.544   1.889   3.805 -0.0988 -0.2177 -0.4482
12593TIP3    H159194   2.464   1.838   3.794  0.2817 -0.9662  0.1136
12593TIP3    H259195   2.558   1.931   3.720 -1.1251 -0.0066 -0.5178
12594TIP3   OH259196   6.725   2.194   1.565  0.4783  0.1470  0.2356
12594TIP3    H159197   6.816   2.222   1.576  0.8571 -1.1403  0.4903
12594TIP3    H259198   6.675   2.276   1.566  1.6777  0.9193 -0.4668
12595TIP3   OH259199   5.928   2.427   3.606  0.1737  0.2913  0.3740
12595TIP3    H159200   5.956   2.347   3.563 -1.1458  1.0840 -2.1483
12595TIP3    H259201   5.859   2.398   3.667 -0.5747 -0.4836 -0.7976
12596TIP3   OH259202   5.016   4.620  13.106 -0.0648 -0.0580 -0.2742
12596TIP3    H159203   5.020   4.595  13.013  0.3947  0.2324 -0.3379
12596TIP3    H259204   5.041   4.712  13.107 -1.1515  0.2490  0.0251
12597TIP3   OH259205   3.222   0.916   5.600 -0.1966 -0.9358  0.3486
12597TIP3    H159206   3.237   0.902   5.693  0.5975 -0.6079  0.2727
12597TIP3    H259207   3.129   0.941   5.595 -0.1430 -0.5453  1.0948
12598TIP3   OH259208   6.037   4.971  16.011 -0.3892  0.4353  0.3316
12598TIP3    H159209   6.040   5.036  16.081  1.2505  0.0686  0.6419
12598TIP3    H259210   6.017   5.022  15.932 -2.2182  0.8530  1.0272
12599TIP3   OH259211   3.163   5.619  14.696 -0.5446  0.7888  0.2929
12599TIP3    H159212   3.204   5.629  14.782  0.5698 -0.7672 -0.0133
12599TIP3    H259213   3.093   5.555  14.710  2.3521 -2.9165 -0.6492
12600TIP3   OH259214   0.127   0.597   6.263 -0.3839 -0.1546 -0.2293
12600TIP3    H159215   0.034   0.617   6.276  0.2085  1.7682  1.4491
12600TIP3    H259216   0.151   0.546   6.340 -0.2369 -1.5382 -1.1561
12601TIP3   OH259217   4.798   2.843   6.029  0.4122 -0.2866  0.1908
12601TIP3    H159218   4.715   2.827   5.985 -0.4508  2.8511  0.4795
12601TIP3    H259219   4.791   2.796   6.112 -2.2037  1.9187  1.3413
12602TIP3   OH259220   5.727   4.711  12.766  0.2359  0.7505  0.3861
12602TIP3    H159221   5.761   4.783  12.712  0.3799  1.7285  1.7208
12602TIP3    H259222   5.796   4.696  12.832  0.1279 -0.5077  0.2337
12603TIP3   OH259223   5.861   3.555   6.666  0.3105 -0.4676 -0.4156
12603TIP3    H159224   5.881   3.648   6.656  0.2997 -0.5349 -1.1473
12603TIP3    H259225   5.947   3.511   6.662  0.5135 -0.3833  1.6849
12604TIP3   OH259226   1.771   3.305   3.301 -0.3159 -0.3757 -0.1137
12604TIP3    H159227   1.809   3.244   3.365 -0.0659 -2.4122 -2.0781
12604TIP3    H259228   1.843   3.364   3.279 -0.6634  1.0099  2.0885
12605TIP3   OH259229   5.160   0.144  12.015  0.1865  0.0192  0.2577
12605TIP3    H159230   5.120   0.081  11.955  1.2165 -0.2188 -0.2013
12605TIP3    H259231   5.155   0.102  12.101  0.8345 -0.6857 -0.0402
12606TIP3   OH259232   6.452   6.568  14.936 -0.0580  0.5879  0.1743
12606TIP3    H159233   6.522   6.635  14.937  0.8609 -0.3412  1.0758
12606TIP3    H259234   6.388   6.600  14.999  0.1392  0.8771  0.2317
12607TIP3   OH259235   0.118   3.626   0.619  0.0570 -0.0527 -0.3335
12607TIP3    H159236   0.143   3.715   0.643 -0.4629 -0.6967  3.1563
12607TIP3    H259237   0.180   3.570   0.666  0.1296 -1.5826 -2.1280
12608TIP3   OH259238   4.408   0.392  15.325  0.0254 -0.0866  0.6055
12608TIP3    H159239   4.474   0.458  15.303 -0.0299  0.2553  1.4151
12608TIP3    H259240   4.394   0.403  15.419 -1.8566  0.4625  0.3084
12609TIP3   OH259241   2.911   5.094   5.682 -0.0135  0.6179 -0.2873
12609TIP3    H159242   3.000   5.090   5.648  0.4518 -0.5445  0.9527
12609TIP3    H259243   2.919   5.060   5.772 -1.1198  3.5690  1.0574
12610TIP3   OH259244   0.939   2.064   2.176 -0.5233  0.2053  0.6632
12610TIP3    H159245   0.875   2.121   2.219 -1.4243  1.1858 -1.7754
12610TIP3    H259246   1.002   2.124   2.136 -1.4443 -0.4036 -1.8924
12611TIP3   OH259247   3.348   5.019   3.494 -0.7186 -0.1533 -0.4849
12611TIP3    H159248   3.427   5.012   3.547 -0.6106  0.7054 -0.5286
12611TIP3    H259249   3.281   4.972   3.544 -0.4637  0.1068  0.1093
12612TIP3   OH259250   2.537   0.228  13.355 -0.8710  0.5984  0.4677
12612TIP3    H159251   2.530   0.298  13.291  0.4387 -0.0770 -0.4539
12612TIP3    H259252   2.602   0.168  13.318  1.2858  1.0646  3.2473
12613TIP3   OH259253   4.910   2.605  15.476 -0.1752 -0.5542 -0.3104
12613TIP3    H159254   4.854   2.641  15.545 -0.6751 -1.3197 -0.3090
12613TIP3    H259255   4.983   2.666  15.470 -0.0227 -0.5773  1.0511
12614TIP3   OH259256   3.555   4.310   1.798  0.2697 -0.9472  0.1548
12614TIP3    H159257   3.622   4.377   1.810  1.0161 -1.7854  0.7599
12614TIP3    H259258   3.557   4.290   1.704 -0.3715  0.2797 -0.1348
12615TIP3   OH259259   6.634   0.685   0.955  0.0072 -0.7103 -0.4795
12615TIP3    H159260   6.664   0.603   0.995 -0.4331 -0.9968 -0.7362
12615TIP3    H259261   6.578   0.725   1.022  0.5519 -0.4199 -0.1960
12616TIP3   OH259262   0.975   0.229  16.710  0.1141  0.0667 -0.8475
12616TIP3    H159263   0.961   0.186  16.625 -2.0118 -0.6741 -0.2041
12616TIP3    H259264   0.889   0.226  16.752  0.0946  3.9161 -0.2274
12617TIP3   OH259265   4.145   4.174   4.257  0.2321 -0.2014 -0.0531
12617TIP3    H159266   4.115   4.203   4.170  0.3111 -0.6648 -0.2391
12617TIP3    H259267   4.192   4.249   4.293 -3.4689  1.6766  1.4330
12618TIP3   OH259268   1.739   6.186   5.481 -0.0712 -0.4194 -0.3749
12618TIP3    H159269   1.833   6.199   5.487 -0.1375 -0.4110  0.9578
12618TIP3    H259270   1.723   6.101   5.522 -0.8069  0.3703  1.0847
12619TIP3   OH259271   0.372   0.197   5.860 -0.6048  0.4819  0.2327
12619TIP3    H159272   0.353   0.137   5.788  0.5607 -0.1487  0.4266
12619TIP3    H259273   0.331   0.157   5.937 -0.9009  0.5854  0.1293
12620TIP3   OH259274   0.333   5.486   0.910  0.1339  0.5458 -0.0785
12620TIP3    H159275   0.384   5.407   0.894 -1.8909 -0.6216 -1.1948
12620TIP3    H259276   0.396   5.558   0.902  1.7527 -0.8530 -0.3926
12621TIP3   OH259277   0.915   1.746   1.466 -0.7603  0.3912  0.1818
12621TIP3    H159278   0.877   1.743   1.554 -2.1561 -0.3148 -0.4229
12621TIP3    H259279   0.840   1.759   1.408  0.2793  2.4502 -0.8288
12622TIP3   OH259280   2.217   3.608  16.744  0.6335  0.8227 -0.1188
12622TIP3    H159281   2.219   3.702  16.763 -0.8932  0.8390  0.1144
12622TIP3    H259282   2.252   3.567  16.823  1.1614  1.1833 -0.1602
12623TIP3   OH259283   5.655   5.260   0.449 -0.4778  0.5194 -0.0121
12623TIP3    H159284   5.655   5.173   0.409  1.7287  0.5971 -0.3120
12623TIP3    H259285   5.694   5.317   0.383 -1.4206  1.6493  0.3808
12624TIP3   OH259286   1.885   1.647  15.643  0.0440 -0.1414 -0.0433
12624TIP3    H159287   1.939   1.571  15.622  0.8703  0.0295  1.3093
12624TIP3    H259288   1.911   1.713  15.579  0.5498 -0.4625 -0.1742
12625TIP3   OH259289   5.948   3.954   4.724 -0.3554 -0.2840  0.8228
12625TIP3    H159290   5.858   3.937   4.752  0.3615 -2.2099  2.1450
12625TIP3    H259291   5.985   4.007   4.794 -0.4855  0.5939  0.2292
12626TIP3   OH259292   4.063   3.998  16.533 -0.5469 -0.6523  0.1168
12626TIP3    H159293   4.061   4.051  16.612  1.1247  0.1955 -0.3542
12626TIP3    H259294   4.125   4.043  16.476 -1.6267 -1.2832 -1.6537
12627TIP3   OH259295   2.044   3.709  17.011 -0.3763 -0.3800  0.0083
12627TIP3    H159296   2.131   3.737  17.039 -0.6952  1.5326 -0.7197
12627TIP3    H259297   2.057   3.620  16.978  2.1609  1.0519 -3.5570
12628TIP3   OH259298   4.088   4.351  12.811  0.0197 -0.0063 -0.4144
12628TIP3    H159299   4.106   4.415  12.743 -2.0331 -1.9829 -3.0442
12628TIP3    H259300   4.053   4.403  12.884  0.5246  2.0189 -1.5330
12629TIP3   OH259301   1.517   5.822  12.334 -0.4744  0.4003  0.3187
12629TIP3    H159302   1.604   5.863  12.339  0.2867 -1.2205  1.1724
12629TIP3    H259303   1.494   5.826  12.241  0.6892  0.5046  0.0213
12630TIP3   OH259304   1.727   4.518  11.322  0.2200  0.3255  0.1908
12630TIP3    H159305   1.720   4.594  11.265 -0.2705  0.5170  0.4954
12630TIP3    H259306   1.756   4.447  11.264  1.5536  0.9338  0.0795
12631TIP3   OH259307   0.284   3.209  16.220 -0.5673  0.3652  0.3250
12631TIP3    H159308   0.379   3.202  16.226 -0.3960  0.8260 -1.3202
12631TIP3    H259309   0.265   3.301  16.235 -0.6177  0.5079 -0.5470
12632TIP3   OH259310   2.960   3.343  17.148 -0.6044 -0.2813  0.1946
12632TIP3    H159311   3.018   3.278  17.108  1.1904  2.6989 -2.5587
12632TIP3    H259312   3.008   3.377  17.223 -2.6301 -3.6340  3.3161
12633TIP3   OH259313   2.205   2.605  10.970 -0.5663  0.3658  0.1683
12633TIP3    H159314   2.239   2.688  11.003 -3.0934  1.1329  1.0722
12633TIP3    H259315   2.212   2.612  10.875  1.9572  0.3075  0.2775
12634TIP3   OH259316   3.798   6.736   4.163  0.1838  0.2185 -0.0648
12634TIP3    H159317   3.824   6.667   4.101 -0.6565 -0.5245  0.3799
12634TIP3    H259318   3.757   6.803   4.109 -3.4533 -1.8144 -0.1206
12635TIP3   OH259319   3.092   1.115   3.622  0.4039 -0.1105 -0.2419
12635TIP3    H159320   3.051   1.126   3.708  0.6133  0.3244 -0.1964
12635TIP3    H259321   3.020   1.087   3.565  0.4708 -1.4137  0.2945
12636TIP3   OH259322   2.058   0.950  11.563  0.2188  0.1310  0.1441
12636TIP3    H159323   2.120   0.883  11.534 -1.5865 -2.7654  2.4321
12636TIP3    H259324   1.984   0.942  11.502 -0.0108  0.0310  0.4357
12637TIP3   OH259325   0.236   6.343  14.901 -0.3959  0.1537  0.3781
12637TIP3    H159326   0.321   6.356  14.860 -0.4693 -0.4109  0.0292
12637TIP3    H259327   0.195   6.273  14.849 -1.3429  0.8694  0.1220
12638TIP3   OH259328   4.437   5.213  14.937 -0.0990  0.4693 -0.3209
12638TIP3    H159329   4.348   5.225  14.970  0.3543  1.6748  0.5436
12638TIP3    H259330   4.466   5.302  14.915  1.6319  0.3886  1.4243
12639TIP3   OH259331   0.748   3.651   2.742  0.5534 -0.9901  0.1037
12639TIP3    H159332   0.749   3.619   2.833  0.6178 -1.0554  0.0803
12639TIP3    H259333   0.655   3.654   2.719  0.5468 -1.1990  0.0938
12640TIP3   OH259334   4.288   3.920  16.716  0.2830 -0.1838 -0.1615
12640TIP3    H159335   4.202   3.923  16.757  0.5437  0.4269  0.3447
12640TIP3    H259336   4.348   3.898  16.787  0.9109  2.1426  0.0958
12641TIP3   OH259337   6.358   5.370  16.714  0.6908 -0.0582 -0.2552
12641TIP3    H159338   6.343   5.322  16.633  1.4155 -1.9520  0.6801
12641TIP3    H259339   6.376   5.460  16.686 -1.5640 -0.0766 -2.0182
12642TIP3   OH259340   4.186   3.541  15.918  0.3644  0.1943 -0.0753
12642TIP3    H159341   4.128   3.617  15.926  0.3618  0.1351  0.4794
12642TIP3    H259342   4.236   3.540  16.000 -1.1556 -1.6438  0.9060
12643TIP3   OH259343   6.437   3.081   2.385 -0.0202  0.1210 -0.0077
12643TIP3    H159344   6.401   2.999   2.351  0.2292 -0.0320  0.0966
12643TIP3    H259345   6.414   3.146   2.319 -1.2763  0.2033  0.4714
12644TIP3   OH259346   0.851   4.521   3.012 -0.0239 -1.1309 -0.3733
12644TIP3    H159347   0.901   4.506   2.932 -2.7166 -2.1635 -1.9858
12644TIP3    H259348   0.913   4.564   3.071  1.5354  1.6945 -3.7036
12645TIP3   OH259349   2.307   0.679   0.187 -0.5019 -0.1998  0.2786
12645TIP3    H159350   2.284   0.648   0.274 -1.1917  1.6639  0.8057
12645TIP3    H259351   2.225   0.674   0.137 -0.9309  1.7837  0.7152
12646TIP3   OH259352   1.308   5.689  12.132  0.2506 -0.4664 -0.1501
12646TIP3    H159353   1.226   5.708  12.178  0.0862 -1.2340 -0.1186
12646TIP3    H259354   1.342   5.775  12.107 -0.5234 -0.1405 -0.0962
12647TIP3   OH259355   2.118   0.823   1.891 -0.0017 -0.4857  0.6624
12647TIP3    H159356   2.034   0.863   1.870  0.7331  1.1989  0.7929
12647TIP3    H259357   2.183   0.889   1.866  1.2411 -1.3467  1.4987
12648TIP3   OH259358   2.259   4.297  12.609 -0.3707 -0.7385  0.0027
12648TIP3    H159359   2.239   4.329  12.697 -0.8418 -2.0832  0.4163
12648TIP3    H259360   2.205   4.350  12.551 -0.0386  0.1855  0.5092
12649TIP3   OH259361   5.225   4.389  12.009 -0.1161 -0.0525 -0.0740
12649TIP3    H159362   5.219   4.349  11.922 -0.0634 -2.8910  1.1089
12649TIP3    H259363   5.275   4.470  11.995  0.7986 -0.9314 -2.5173
12650TIP3   OH259364   1.035   2.225   4.720 -0.5070 -0.0110 -0.4919
12650TIP3    H159365   0.940   2.239   4.721 -0.4551  0.3428 -0.5054
12650TIP3    H259366   1.060   2.227   4.812 -0.6094 -0.7906 -0.4385
12651TIP3   OH259367   6.016   2.354   2.969 -0.0535  0.1661 -0.2082
12651TIP3    H159368   5.972   2.417   2.912  1.3173 -0.0466 -1.5655
12651TIP3    H259369   6.084   2.314   2.914  1.2809 -0.1358  1.5489
12652TIP3   OH259370   6.265   5.128   5.123  0.3729 -0.2815  0.3099
12652TIP3    H159371   6.235   5.038   5.131  0.6629 -0.3129  1.0984
12652TIP3    H259372   6.269   5.143   5.029  0.5521 -1.1686  0.1656
12653TIP3   OH259373   5.077   5.692   1.358  0.1695 -0.0866 -0.1351
12653TIP3    H159374   4.986   5.664   1.359  0.3709 -0.7832 -0.4729
12653TIP3    H259375   5.080   5.765   1.296 -0.3920  0.8213  0.8711
12654TIP3   OH259376   6.278   5.471   2.408 -0.0601  0.7626  0.2153
12654TIP3    H159377   6.354   5.463   2.350  0.7712 -0.1235  1.3924
12654TIP3    H259378   6.239   5.384   2.409 -1.1544  1.2115 -0.4006
12655TIP3   OH259379   6.354   0.028   0.300 -0.2542 -0.1727  0.3527
12655TIP3    H159380   6.277   0.041   0.245 -0.7107  1.5368  1.2971
12655TIP3    H259381   6.423   0.003   0.240 -1.3548 -1.0142 -0.6164
12656TIP3   OH259382   5.683   0.924  11.486 -0.1657  0.1132  0.2468
12656TIP3    H159383   5.599   0.969  11.497  0.4071  0.8105  2.3920
12656TIP3    H259384   5.700   0.926  11.392 -1.9034  1.1630 -0.0836
12657TIP3   OH259385   1.966   1.477  11.321 -0.1270 -0.7853  0.1657
12657TIP3    H159386   2.020   1.424  11.262  0.9173  0.0264  0.3578
12657TIP3    H259387   1.930   1.414  11.384 -3.3934 -2.1134 -2.7492
12658TIP3   OH259388   1.834   3.961  10.904 -0.1383 -0.8133 -0.5419
12658TIP3    H159389   1.765   4.028  10.904  1.2785  0.7491  1.5892
12658TIP3    H259390   1.880   3.974  10.821 -0.1566  0.6148 -0.3492
12659TIP3   OH259391   5.400   5.492   5.271 -0.1347 -0.2952  0.2533
12659TIP3    H159392   5.427   5.546   5.197 -2.2886 -0.5972 -0.8442
12659TIP3    H259393   5.407   5.402   5.239  0.0024 -0.4874  0.8187
12660TIP3   OH259394   4.182   2.142   0.621  0.4390 -0.3917  0.2985
12660TIP3    H159395   4.086   2.140   0.616  0.4163 -0.4869  0.7690
12660TIP3    H259396   4.202   2.116   0.710  0.9308 -0.8697  0.0512
12661TIP3   OH259397   3.608   6.201   3.730  0.3474  0.1781 -0.1805
12661TIP3    H159398   3.616   6.106   3.734  0.5594  0.0813 -2.0493
12661TIP3    H259399   3.582   6.219   3.640 -0.6381  1.8432  0.3783
12662TIP3   OH259400   6.773   5.745   4.755  0.0250  0.1054  0.0129
12662TIP3    H159401   6.742   5.654   4.758  0.2048  0.0550  0.2687
12662TIP3    H259402   6.698   5.797   4.784  0.2994 -0.0449  0.9960
12663TIP3   OH259403   2.331   0.748  16.337 -0.1995 -0.1262 -0.4831
12663TIP3    H159404   2.424   0.731  16.325 -0.4886 -2.0284 -0.3980
12663TIP3    H259405   2.318   0.743  16.432 -0.4581 -0.3783 -0.5300
12664TIP3   OH259406   0.209   2.425  14.964 -0.5145  0.0438  0.6561
12664TIP3    H159407   0.215   2.502  14.908 -3.7012 -0.4827 -0.6308
12664TIP3    H259408   0.284   2.371  14.938  0.6414  1.7811  0.1772
12665TIP3   OH259409   3.923   6.378   1.176  0.2683  0.8338 -0.1613
12665TIP3    H159410   3.882   6.446   1.122 -1.2247 -0.0937 -0.2265
12665TIP3    H259411   3.850   6.326   1.210  1.3849 -0.9268 -0.3349
12666TIP3   OH259412   1.249   2.335  13.583  0.0796 -0.3565  0.1446
12666TIP3    H159413   1.243   2.329  13.487  0.9564  3.1909 -0.3096
12666TIP3    H259414   1.159   2.351  13.611 -0.0315 -0.2671 -0.2462
12667TIP3   OH259415   6.477   0.434  12.958 -0.7506 -0.3257 -0.2112
12667TIP3    H159416   6.565   0.471  12.956 -0.9115  0.0352 -0.7934
12667TIP3    H259417   6.420   0.506  12.932 -1.3948 -0.1021  1.6659
12668TIP3   OH259418   2.723   1.567  13.334 -0.3547  0.0700  0.4423
12668TIP3    H159419   2.740   1.501  13.401  3.2170  1.9026  1.6176
12668TIP3    H259420   2.764   1.533  13.255  0.8434  0.5060  0.8573
12669TIP3   OH259421   3.121   2.440   3.816  0.7059 -0.2907  0.3087
12669TIP3    H159422   3.104   2.468   3.726  1.5025  0.0564  0.2597
12669TIP3    H259423   3.060   2.367   3.830 -0.1549  0.3188 -0.1484
12670TIP3   OH259424   6.654   1.897   1.970 -0.2928 -0.0122 -0.2825
12670TIP3    H159425   6.634   1.817   1.922 -2.6251 -0.3345  1.0700
12670TIP3    H259426   6.647   1.967   1.905  1.8580 -0.8368 -1.4986
12671TIP3   OH259427   2.768   6.595   4.227  0.3979 -0.1650  0.1513
12671TIP3    H159428   2.673   6.593   4.211  0.5563  0.5715 -1.0323
12671TIP3    H259429   2.801   6.519   4.180  0.2511 -1.3746  1.9054
12672TIP3   OH259430   3.149   0.906  14.955  0.3953  0.2262 -0.7021
12672TIP3    H159431   3.158   0.996  14.924  0.8473 -0.3951 -2.4737
12672TIP3    H259432   3.233   0.865  14.937 -0.1906 -0.8780 -1.0593
12673TIP3   OH259433   3.259   4.516   4.439  0.9560 -0.3138  0.2734
12673TIP3    H159434   3.225   4.580   4.376 -0.3703 -0.3533  0.9255
12673TIP3    H259435   3.271   4.566   4.520  0.2124 -0.8050  0.7006
12674TIP3   OH259436   5.432   5.644   3.358  0.1423 -0.3010 -0.4472
12674TIP3    H159437   5.491   5.578   3.322 -1.3468 -2.0959  0.2296
12674TIP3    H259438   5.354   5.595   3.384 -0.2279  1.3988  2.0180
12675TIP3   OH259439   2.376   5.885  11.220 -0.1713  0.3388  0.2439
12675TIP3    H159440   2.323   5.824  11.271  0.5217  1.0884  1.9330
12675TIP3    H259441   2.319   5.914  11.149 -0.5252 -2.2199 -0.6102
12676TIP3   OH259442   6.221   5.919   1.043 -0.4570  0.1713 -0.1062
12676TIP3    H159443   6.294   5.940   1.102  1.4997 -0.8498 -1.9888
12676TIP3    H259444   6.147   5.969   1.076  1.2740  1.7889  1.5372
12677TIP3   OH259445   1.839   1.231  11.357 -0.3878  0.1323 -0.4782
12677TIP3    H159446   1.876   1.251  11.271  0.3729  0.1820 -0.1465
12677TIP3    H259447   1.779   1.159  11.341  0.7273 -0.7323 -0.8484
12678TIP3   OH259448   3.017   1.838  12.696  0.5240  0.1261 -0.1817
12678TIP3    H159449   2.957   1.903  12.734  0.7960  0.6862 -0.6860
12678TIP3    H259450   2.983   1.754  12.725 -1.2667  0.3507 -1.4568
12679TIP3   OH259451   2.951   0.370  11.764 -0.1734  0.0777 -0.1460
12679TIP3    H159452   2.922   0.352  11.674  0.0749  1.9487 -0.6435
12679TIP3    H259453   3.034   0.323  11.772  0.0503  0.2781 -1.0925
12680TIP3   OH259454   1.143   3.827   5.736  0.4630  0.3082  0.9191
12680TIP3    H159455   1.115   3.899   5.792  1.1686 -0.3144  2.1314
12680TIP3    H259456   1.219   3.790   5.781  0.5211 -0.7645 -0.0094
12681TIP3   OH259457   4.716   3.583   0.875 -0.5367 -0.1360 -0.2886
12681TIP3    H159458   4.725   3.662   0.928 -1.3229 -1.6919  2.3276
12681TIP3    H259459   4.806   3.560   0.851  0.5109 -1.7508  4.2426
12682TIP3   OH259460   0.898   4.872  10.566 -0.9996  0.0627  0.2368
12682TIP3    H159461   0.910   4.946  10.507 -0.2082  2.0876  2.7625
12682TIP3    H259462   0.982   4.825  10.564 -0.0308  1.6196  1.5704
12683TIP3   OH259463   1.248   3.162  10.319 -0.5548  0.0764 -0.2152
12683TIP3    H159464   1.318   3.198  10.265  0.4258 -1.0095  0.3146
12683TIP3    H259465   1.282   3.080  10.353 -1.4793  0.2805  1.3325
12684TIP3   OH259466   1.512   1.584   2.602 -0.3841  0.8064 -0.4267
12684TIP3    H159467   1.549   1.638   2.672 -0.4621  1.7999 -1.1378
12684TIP3    H259468   1.555   1.500   2.612  0.4300  1.2771  0.1287
12685TIP3   OH259469   3.734   2.029   1.187  0.0076  0.2652 -0.2438
12685TIP3    H159470   3.671   2.084   1.235 -0.6858 -0.3582 -0.4235
12685TIP3    H259471   3.686   1.999   1.110  0.4178 -0.4861 -0.2186
12686TIP3   OH259472   2.187   4.532  13.482 -0.0336  0.2234  0.2917
12686TIP3    H159473   2.189   4.500  13.392 -0.3240 -0.0974  0.3994
12686TIP3    H259474   2.262   4.592  13.488  0.2756 -0.1309 -0.0205
12687TIP3   OH259475   2.905   5.507  12.214 -0.7438 -0.9803  0.5756
12687TIP3    H159476   2.950   5.505  12.299 -0.1101  2.8110  0.4997
12687TIP3    H259477   2.964   5.462  12.154  1.9414  1.6232  1.0171
12688TIP3   OH259478   1.501   2.806  10.844  0.5651  0.0816 -0.3919
12688TIP3    H159479   1.570   2.739  10.843  3.5216  2.7999  1.7752
12688TIP3    H259480   1.506   2.847  10.758  2.5248  0.9424  0.0801
12689TIP3   OH259481   5.715   0.935  13.231 -0.2499 -0.0910 -0.1061
12689TIP3    H159482   5.663   1.001  13.186  0.1849  0.5251  0.2839
12689TIP3    H259483   5.798   0.934  13.184  0.4767  1.0736  1.0972
12690TIP3   OH259484   3.838   6.392   0.818 -0.3603 -0.2851 -0.0384
12690TIP3    H159485   3.909   6.352   0.768  0.1540 -1.5277  1.6131
12690TIP3    H259486   3.789   6.441   0.753  2.0971  0.7902 -1.2240
12691TIP3   OH259487   1.831   0.522  14.957  0.1697  0.1985 -0.5810
12691TIP3    H159488   1.849   0.615  14.944 -1.2829  0.4775 -0.8254
12691TIP3    H259489   1.736   0.515  14.948  0.1679 -1.1868  0.2348
12692TIP3   OH259490   4.297   5.142   1.891 -0.0291 -0.1063 -0.2515
12692TIP3    H159491   4.379   5.178   1.857 -0.6588  0.2682 -1.3889
12692TIP3    H259492   4.245   5.122   1.814 -0.7498 -1.0071  0.4402
12693TIP3   OH259493   4.618   5.739   4.778 -0.3529  0.2231  0.3857
12693TIP3    H159494   4.689   5.697   4.827  1.9551  2.3020 -0.9435
12693TIP3    H259495   4.627   5.706   4.689 -1.0717  0.5272  0.1901
12694TIP3   OH259496   5.208   5.938  14.950 -0.0057  0.2793  0.3628
12694TIP3    H159497   5.116   5.937  14.976 -0.8198 -1.2004 -2.1774
12694TIP3    H259498   5.213   6.008  14.886 -0.0459 -1.2293 -1.3828
12695TIP3   OH259499   3.401   3.540  17.230 -0.1107 -0.1591  0.1956
12695TIP3    H159500   3.384   3.618  17.282  0.5944  0.0954  0.0623
12695TIP3    H259501   3.494   3.522  17.244 -0.6093 -2.0102  1.6308
12696TIP3   OH259502   4.491   1.280  15.357  0.3186 -0.4897 -0.4210
12696TIP3    H159503   4.396   1.290  15.360  0.3419  0.6887 -2.1644
12696TIP3    H259504   4.523   1.338  15.427 -0.2337 -1.2579  0.4910
12697TIP3   OH259505   3.428   3.928  12.839  0.1373 -0.0919  0.2365
12697TIP3    H159506   3.518   3.901  12.822  0.4897  0.2355  1.4730
12697TIP3    H259507   3.417   4.008  12.788  0.0807 -0.8491 -0.9954
12698TIP3   OH259508   5.842   2.446   2.081  0.2756  0.3138 -0.4821
12698TIP3    H159509   5.900   2.376   2.052  1.2601  0.2343  1.5459
12698TIP3    H259510   5.766   2.401   2.116  0.9045  0.2175  0.8133
12699TIP3   OH259511   6.568   1.270  17.216 -0.0752  0.5443  0.4023
12699TIP3    H159512   6.653   1.232  17.240 -0.3100 -0.1427  0.1670
12699TIP3    H259513   6.504   1.218  17.265 -0.5227 -0.4478 -1.1597
12700TIP3   OH259514   0.685   6.023   0.627 -0.3343 -0.1955 -0.0103
12700TIP3    H159515   0.683   6.106   0.580 -0.6711 -0.3224 -0.2240
12700TIP3    H259516   0.760   5.976   0.591 -0.8035 -0.4413 -0.6895
12701TIP3   OH259517   6.318   2.567  17.017  0.3079 -0.6632 -0.0243
12701TIP3    H159518   6.348   2.515  16.941 -0.0271  0.6504 -1.0975
12701TIP3    H259519   6.223   2.555  17.017  0.3151 -0.7113  0.2348
12702TIP3   OH259520   3.427   0.451  15.535 -0.0648 -0.8238 -0.1527
12702TIP3    H159521   3.457   0.542  15.542  0.5881 -1.0918  0.6589
12702TIP3    H259522   3.479   0.414  15.463 -0.8464 -0.3671 -0.9711
12703TIP3   OH259523   5.078   6.328   2.982  0.2901 -0.6306  0.1489
12703TIP3    H159524   4.995   6.291   3.011 -0.0351 -0.2479 -0.2639
12703TIP3    H259525   5.141   6.305   3.050 -0.2724 -0.4665  0.7311
12704TIP3   OH259526   0.228   3.363  13.459 -0.1064 -0.3885 -0.3058
12704TIP3    H159527   0.273   3.376  13.375  1.0289 -1.8608  0.0247
12704TIP3    H259528   0.295   3.324  13.515 -1.0893 -0.1718  1.0406
12705TIP3   OH259529   1.184   2.399   0.113 -0.6335 -0.9566  0.1880
12705TIP3    H159530   1.250   2.408   0.044 -1.5627  1.7855 -0.4763
12705TIP3    H259531   1.131   2.478   0.105 -0.7860 -0.4975  4.0942
12706TIP3   OH259532   3.695   4.746   1.507 -0.2805 -0.1749 -0.0180
12706TIP3    H159533   3.697   4.702   1.592  2.6800 -0.1345  0.0405
12706TIP3    H259534   3.736   4.831   1.524 -0.7071  0.2929 -1.2693
12707TIP3   OH259535   1.211   1.019   4.519  0.5501 -0.2382  0.2198
12707TIP3    H159536   1.217   0.961   4.442 -1.9890 -1.5235  0.8746
12707TIP3    H259537   1.125   1.061   4.510  1.5355  2.0207  0.7915
12708TIP3   OH259538   5.982   6.694  15.858 -0.0611  0.2815 -0.3104
12708TIP3    H159539   6.054   6.738  15.903 -0.9449  1.6951 -0.2242
12708TIP3    H259540   5.960   6.753  15.785  0.2412 -1.1468 -1.6235
12709TIP3   OH259541   0.804   4.742  12.643 -0.4724 -0.1625  0.0161
12709TIP3    H159542   0.761   4.686  12.578 -0.7647  0.7647 -0.5994
12709TIP3    H259543   0.732   4.792  12.682 -0.5715 -1.8926  2.3147
12710TIP3   OH259544   5.070   1.515  16.123  0.0148  0.4674 -0.0365
12710TIP3    H159545   5.019   1.449  16.077 -1.6309  2.0871 -0.6406
12710TIP3    H259546   5.017   1.538  16.200  1.5086 -0.3183  1.2940
12711TIP3   OH259547   2.494   1.371  16.575 -0.2027 -0.3931 -0.6931
12711TIP3    H159548   2.434   1.436  16.612  0.6301 -0.3140  0.5913
12711TIP3    H259549   2.572   1.422  16.552  0.3546 -0.8735  0.0840
12712TIP3   OH259550   6.645   5.677   5.678 -0.1076  0.1828  0.0785
12712TIP3    H159551   6.589   5.734   5.732  0.6570  1.4995 -0.4804
12712TIP3    H259552   6.726   5.670   5.728 -0.3994 -0.9260  0.4204
12713TIP3   OH259553   3.833   2.318  14.205  0.1681  0.3630  0.3065
12713TIP3    H159554   3.875   2.367  14.134 -1.8135  0.1885 -1.0745
12713TIP3    H259555   3.739   2.329  14.189 -0.3307 -1.7417  1.4532
12714TIP3   OH259556   0.090   5.520   0.842  0.0132 -0.2866 -0.2781
12714TIP3    H159557   0.112   5.570   0.763  0.5189 -2.5280 -1.6430
12714TIP3    H259558   0.173   5.508   0.887  0.1738 -1.2433 -0.8086
12715TIP3   OH259559   2.633   4.111  17.060  0.1472  0.0056  0.0626
12715TIP3    H159560   2.716   4.121  17.106  1.2590  0.1875 -1.8676
12715TIP3    H259561   2.658   4.085  16.971 -1.7594  1.8565 -1.1133
12716TIP3   OH259562   3.095   3.069   0.096  0.0971  0.0555  0.3901
12716TIP3    H159563   3.098   3.106   0.007  0.3553  0.3212  0.5105
12716TIP3    H259564   3.097   2.974   0.082 -0.1560  0.0896  0.0977
12717TIP3   OH259565   2.642   5.595   0.671 -0.1786 -0.1765  0.1884
12717TIP3    H159566   2.702   5.532   0.710  1.1814  1.6582  1.2384
12717TIP3    H259567   2.556   5.573   0.707  0.7960  0.5663  3.2232
12718TIP3   OH259568   5.535   5.054   1.149  0.1761 -0.0111  0.0159
12718TIP3    H159569   5.535   4.962   1.173  1.0473 -0.0702 -0.1742
12718TIP3    H259570   5.538   5.101   1.233  0.8052 -0.1787  0.0927
12719TIP3   OH259571   1.211   0.210  11.233 -0.1313 -0.4659  0.4560
12719TIP3    H159572   1.155   0.286  11.221 -2.8656 -2.5129 -0.8810
12719TIP3    H259573   1.206   0.191  11.327 -1.6292 -0.5162  0.3904
12720TIP3   OH259574   0.795   4.806   1.508 -0.2433  0.4435  0.0075
12720TIP3    H159575   0.829   4.895   1.522  0.6214 -0.0067  0.8410
12720TIP3    H259576   0.775   4.773   1.595 -1.4382  0.1341 -0.3634
12721TIP3   OH259577   2.648   6.259  12.767  0.1878  0.2551 -0.4124
12721TIP3    H159578   2.589   6.317  12.718 -0.0013 -0.1378 -0.6571
12721TIP3    H259579   2.735   6.294  12.750 -0.0652  1.8773  1.3356
12722TIP3   OH259580   4.021   3.287  12.204 -0.0449 -0.8868  0.2277
12722TIP3    H159581   4.092   3.341  12.171 -0.0216 -1.1250 -0.1142
12722TIP3    H259582   3.941   3.333  12.177 -0.0317 -1.3998 -0.7033
12723TIP3   OH259583   0.360   1.285  11.220 -0.0350  0.5452 -0.1422
12723TIP3    H159584   0.322   1.373  11.224  0.7163  0.9246 -1.0531
12723TIP3    H259585   0.318   1.244  11.144  0.4923  0.5501 -0.4418
12724TIP3   OH259586   0.870   1.826  11.898 -0.2702 -0.7941  0.3366
12724TIP3    H159587   0.956   1.866  11.910  0.4909 -1.7276 -1.5978
12724TIP3    H259588   0.858   1.771  11.975  1.7891 -2.2066 -0.2776
12725TIP3   OH259589   3.074   1.481   3.765 -0.2931  0.0548 -0.4392
12725TIP3    H159590   3.116   1.435   3.692  1.3033  0.6689  0.0415
12725TIP3    H259591   3.132   1.464   3.840 -1.5244  0.0155  0.5417
12726TIP3   OH259592   0.485   6.326  15.910  0.0138  0.0728 -0.2316
12726TIP3    H159593   0.521   6.389  15.974 -1.3627  0.3781  0.2658
12726TIP3    H259594   0.500   6.368  15.825  1.2820 -0.0472 -0.0937
12727TIP3   OH259595   5.581   6.040  15.352 -0.1194 -0.4423  0.6557
12727TIP3    H159596   5.589   6.126  15.313 -0.9640 -0.9012 -0.5930
12727TIP3    H259597   5.527   5.990  15.290 -1.0868 -1.3562  2.1630
12728TIP3   OH259598   5.726   1.174   2.906  0.4770 -0.2841 -0.2884
12728TIP3    H159599   5.767   1.209   2.827  0.5678 -2.0336 -1.0742
12728TIP3    H259600   5.763   1.086   2.915 -1.0386 -0.8721  0.5595
12729TIP3   OH259601   4.108   1.418  12.589 -0.0168 -0.3572  0.4954
12729TIP3    H159602   4.075   1.333  12.621 -1.1683 -0.4028 -0.7500
12729TIP3    H259603   4.181   1.395  12.531 -0.7247 -0.5455 -0.3307
12730TIP3   OH259604   6.187   1.939   2.138 -0.4224  0.7529 -0.1981
12730TIP3    H159605   6.268   1.970   2.098 -0.8113  1.9228 -0.0928
12730TIP3    H259606   6.171   1.999   2.211 -1.0986  0.1919  0.1342
12731TIP3   OH259607   4.413   2.940   3.191 -0.1930  0.2088  0.5739
12731TIP3    H159608   4.484   2.970   3.248 -1.3400  2.4148  0.9541
12731TIP3    H259609   4.439   2.969   3.103  0.2601 -0.6968  0.4026
12732TIP3   OH259610   4.841   4.889   0.766 -0.0064 -0.5010 -0.1633
12732TIP3    H159611   4.778   4.882   0.838  0.8749 -0.8367  0.5813
12732TIP3    H259612   4.916   4.837   0.794  1.0525  0.7539 -0.5610
12733TIP3   OH259613   5.212   3.923  16.820 -0.1218  0.2521  0.7152
12733TIP3    H159614   5.277   3.913  16.889  0.8591  1.8719  0.0818
12733TIP3    H259615   5.144   3.978  16.858 -0.3441 -0.1268  0.8699
12734TIP3   OH259616   3.362   4.965  16.121 -0.0846  0.0647 -0.0783
12734TIP3    H159617   3.299   4.962  16.194  0.2116  1.2090  0.2328
12734TIP3    H259618   3.312   4.933  16.046 -0.5689 -0.5640  0.4982
12735TIP3   OH259619   1.717   4.585  15.357 -0.7078  0.0697  0.7181
12735TIP3    H159620   1.724   4.526  15.432 -3.5736 -0.8494  0.3714
12735TIP3    H259621   1.682   4.530  15.287 -0.6526  1.5284 -0.5051
12736TIP3   OH259622   3.565   5.740  16.827 -0.0036 -0.2815 -0.4686
12736TIP3    H159623   3.644   5.721  16.777 -0.4448 -0.3074 -1.1648
12736TIP3    H259624   3.593   5.805  16.892  0.9509 -1.4634  0.3415
12737TIP3   OH259625   4.809   6.258  11.520 -0.0352  0.2605  0.2710
12737TIP3    H159626   4.725   6.277  11.478  0.3773  2.4574  0.3478
12737TIP3    H259627   4.785   6.221  11.605 -0.8693 -1.5678 -0.6903
12738TIP3   OH259628   2.149   4.848  14.886 -0.1242 -0.1143 -0.0177
12738TIP3    H159629   2.112   4.769  14.925 -1.5950  0.7361  0.3964
12738TIP3    H259630   2.219   4.873  14.946  0.6460 -1.3105 -0.3771
12739TIP3   OH259631   4.744   0.122   4.212  0.5605  0.4820 -0.1221
12739TIP3    H159632   4.679   0.073   4.161 -0.1098  0.6237  0.5771
12739TIP3    H259633   4.786   0.055   4.267 -1.5729  0.8308  2.1459
12740TIP3   OH259634   6.031   3.143   0.701 -0.0625 -0.3633 -0.3272
12740TIP3    H159635   6.063   3.230   0.722  1.7972 -1.0221 -0.3107
12740TIP3    H259636   6.090   3.083   0.745 -0.8948 -1.6621 -0.8941
12741TIP3   OH259637   2.059   0.922  14.379  0.1612 -0.4757 -0.2014
12741TIP3    H159638   2.029   0.858  14.445 -0.7244 -0.7341 -0.8307
12741TIP3    H259639   2.095   0.994  14.431  1.3830 -1.5647  0.5271
12742TIP3   OH259640   4.412   3.711  15.751 -0.0229  0.2027  0.0737
12742TIP3    H159641   4.344   3.656  15.711 -0.0459  1.2883 -1.4713
12742TIP3    H259642   4.446   3.658  15.823 -1.3093 -1.0686 -0.2012
12743TIP3   OH259643   0.453   4.738   2.581  0.3106  0.3303  0.0978
12743TIP3    H159644   0.497   4.769   2.660 -0.5495 -0.0776  0.7542
12743TIP3    H259645   0.363   4.770   2.590 -0.3436 -1.4752  0.3221
12744TIP3   OH259646   5.137   6.045   5.898  0.0480  0.0372 -0.2542
12744TIP3    H159647   5.120   5.956   5.929  2.9268 -0.4559  0.2161
12744TIP3    H259648   5.072   6.099   5.943 -0.8793 -1.6450  0.5267
12745TIP3   OH259649   4.492   5.990  11.781 -0.7665  0.2501  0.6539
12745TIP3    H159650   4.466   6.069  11.829 -2.0868  0.1907  0.0919
12745TIP3    H259651   4.426   5.982  11.712  0.4792 -0.2554 -0.5244
12746TIP3   OH259652   0.062   4.202  12.369  0.1965  0.0293 -0.1556
12746TIP3    H159653   0.104   4.287  12.380  0.0564  0.2344 -1.0777
12746TIP3    H259654   0.094   4.171  12.284 -0.6105 -0.3353 -0.3356
12747TIP3   OH259655   3.406   5.893   4.387  0.4626 -0.1360 -0.3518
12747TIP3    H159656   3.357   5.967   4.352 -0.3843 -0.7808 -0.5565
12747TIP3    H259657   3.364   5.816   4.349  1.1306 -0.7393  0.1028
12748TIP3   OH259658   5.755   2.670  14.276  0.7332 -0.5761 -0.0391
12748TIP3    H159659   5.832   2.707  14.233  0.7333  1.3390  1.4416
12748TIP3    H259660   5.789   2.599  14.330  1.3183 -0.4349 -0.2162
12749TIP3   OH259661   4.680   5.040   4.754 -0.4234 -0.4230 -0.5103
12749TIP3    H159662   4.667   4.984   4.678 -1.5638  0.8053 -1.2643
12749TIP3    H259663   4.750   5.100   4.728 -0.4163 -0.3707 -0.3721
12750TIP3   OH259664   5.221   4.326  12.289 -0.2967  0.0886 -0.2881
12750TIP3    H159665   5.187   4.393  12.348  0.5243 -0.4277  0.8094
12750TIP3    H259666   5.216   4.366  12.202  0.0311  1.5132  0.3221
12751TIP3   OH259667   3.368   0.209   4.107 -0.6516  0.9775  0.1188
12751TIP3    H159668   3.461   0.212   4.130 -1.0951  2.0166  1.9552
12751TIP3    H259669   3.336   0.298   4.121 -1.3387  1.4748 -3.4627
12752TIP3   OH259670   0.066   6.670   5.020 -0.6005  0.1127 -0.2205
12752TIP3    H159671   0.079   6.717   4.937 -0.2941  1.6511  0.6470
12752TIP3    H259672  -0.024   6.691   5.044 -0.4736  0.2326  0.1533
12753TIP3   OH259673   4.102   4.333  11.194  0.6419 -0.4216  0.1064
12753TIP3    H159674   4.061   4.272  11.256 -2.3612 -0.2183 -1.4871
12753TIP3    H259675   4.144   4.276  11.130  0.8267 -0.7250  0.4888
12754TIP3   OH259676   1.029   5.087   2.992  0.3317 -0.6035  0.3012
12754TIP3    H159677   1.117   5.051   2.983 -0.0853 -1.6740  0.3912
12754TIP3    H259678   0.974   5.012   3.014 -0.6359  0.0249  0.1012
12755TIP3   OH259679   2.289   2.755   4.743 -0.1114 -0.1343 -0.0437
12755TIP3    H159680   2.261   2.792   4.827  0.9059 -1.6391  0.9869
12755TIP3    H259681   2.219   2.781   4.682 -0.6370  1.3885  1.1283
12756TIP3   OH259682   1.244   3.153  16.412  0.0265 -0.2295 -0.0500
12756TIP3    H159683   1.217   3.136  16.321  0.4414 -2.6618  0.1969
12756TIP3    H259684   1.167   3.193  16.453 -1.0258 -1.2630 -0.9256
12757TIP3   OH259685   2.484   4.009  14.072  0.0933  0.0897  0.8929
12757TIP3    H159686   2.404   4.004  14.020 -0.0877 -0.4257  1.2117
12757TIP3    H259687   2.542   3.945  14.032  0.0207 -0.1764  1.2092
12758TIP3   OH259688   4.823   0.929   1.538  0.6466 -0.3504  0.2824
12758TIP3    H159689   4.794   0.848   1.579 -0.5219 -0.4164 -0.6345
12758TIP3    H259690   4.779   0.998   1.589 -0.1069 -0.3974 -0.2868
12759TIP3   OH259691   0.453   6.744   2.874  0.1540 -0.2365  0.4206
12759TIP3    H159692   0.474   6.715   2.785  0.3039 -1.5537  0.8525
12759TIP3    H259693   0.530   6.721   2.925 -0.1302  0.0458  0.9851
12760TIP3   OH259694   0.753   1.275  12.978 -0.8345  0.1934 -0.0740
12760TIP3    H159695   0.721   1.189  13.007 -1.6593  0.3421 -0.4858
12760TIP3    H259696   0.836   1.287  13.023  0.3766 -1.7523 -1.5957
12761TIP3   OH259697   0.118   2.950   1.018 -0.0579 -0.4223 -0.3093
12761TIP3    H159698   0.131   2.913   0.930 -0.8882 -1.5687  0.0234
12761TIP3    H259699   0.116   3.045   1.003  0.8860 -0.5432 -1.3686
12762TIP3   OH259700   0.868   3.063  13.294  0.0933 -0.0849  0.4361
12762TIP3    H159701   0.844   3.121  13.367  1.1668 -0.4172  1.0730
12762TIP3    H259702   0.917   2.992  13.335 -1.5717 -1.7015 -0.2766
12763TIP3   OH259703   2.705   0.554   3.896 -0.3688  0.0286  0.7014
12763TIP3    H159704   2.725   0.560   3.989 -1.4148 -1.0476  1.0341
12763TIP3    H259705   2.766   0.489   3.862  0.6660  1.1242  0.4034
12764TIP3   OH259706   4.283   2.992  14.632 -0.2543 -0.4619  0.9484
12764TIP3    H159707   4.358   3.052  14.629 -1.5159  1.1494 -1.2068
12764TIP3    H259708   4.304   2.932  14.703  2.4315  0.7627  1.3318
12765TIP3   OH259709   4.491   1.027   3.811  0.4118 -0.0764  0.5970
12765TIP3    H159710   4.402   1.011   3.845  0.5540  1.8141  1.9732
12765TIP3    H259711   4.549   0.988   3.876  0.7476  4.8271  3.7383
12766TIP3   OH259712   5.785   1.545  15.454  0.1247 -0.3676 -0.2030
12766TIP3    H159713   5.712   1.573  15.398 -0.2041 -0.8624 -0.0357
12766TIP3    H259714   5.827   1.474  15.404  0.1655 -0.4379 -0.0681
12767TIP3   OH259715   5.281   0.303   1.184  0.2269  0.3907  0.1413
12767TIP3    H159716   5.292   0.336   1.274  0.4346 -0.8002  0.5703
12767TIP3    H259717   5.199   0.342   1.154 -0.5310 -0.2426  1.3358
12768TIP3   OH259718   1.597   6.255   2.866 -0.1856 -0.0213 -0.3100
12768TIP3    H159719   1.583   6.285   2.776 -2.2751  0.1550  0.0239
12768TIP3    H259720   1.509   6.237   2.899  0.7123 -2.8723  0.7865
12769TIP3   OH259721   4.678   5.384  13.380  0.1883 -0.0616  0.2785
12769TIP3    H159722   4.646   5.298  13.409  0.2134 -0.3132 -0.4201
12769TIP3    H259723   4.773   5.372  13.373  0.1932  0.0288  0.2010
12770TIP3   OH259724   0.551   2.944  15.270 -0.0389 -0.1602  1.0869
12770TIP3    H159725   0.460   2.972  15.258  0.5059  1.6601  0.7786
12770TIP3    H259726   0.586   3.005  15.334  1.7230  1.1050 -0.9297
12771TIP3   OH259727   2.204   5.692  11.349  0.5545  0.1408 -0.5597
12771TIP3    H159728   2.169   5.629  11.412  1.9598  0.9913  1.1509
12771TIP3    H259729   2.130   5.751  11.331  0.5799  0.9409  1.7138
12772TIP3   OH259730   4.657   0.208  14.205  0.4004 -0.2173 -0.6125
12772TIP3    H159731   4.729   0.162  14.248  0.0023  0.1894  0.5354
12772TIP3    H259732   4.696   0.247  14.127  0.9142 -1.8397 -1.2197
12773TIP3   OH259733   2.479   0.088  16.018 -0.3749 -0.1244 -0.2498
12773TIP3    H159734   2.395   0.080  16.063  0.0774  0.9827  0.8512
12773TIP3    H259735   2.465   0.157  15.954 -0.4724 -0.3504 -0.4710
12774TIP3   OH259736   6.227   4.496  13.017  0.3468  0.6514  0.8286
12774TIP3    H159737   6.240   4.414  12.970 -0.8249  0.4587  0.8069
12774TIP3    H259738   6.311   4.542  13.009  0.6680 -0.0617 -0.0997
12775TIP3   OH259739   0.654   4.984  11.394 -0.1512 -0.3723 -0.7796
12775TIP3    H159740   0.588   5.049  11.369  0.1179  0.7888  1.3621
12775TIP3    H259741   0.716   4.985  11.322 -1.7572 -0.5457 -2.2434
12776TIP3   OH259742   5.903   0.601  17.045 -0.0236 -0.0322 -0.5740
12776TIP3    H159743   5.812   0.594  17.075  0.1814 -0.5532 -0.0432
12776TIP3    H259744   5.940   0.670  17.099  0.6607 -1.7407  1.2642
12777TIP3   OH259745   6.448   5.177   5.854 -0.2471  0.1619  0.9018
12777TIP3    H159746   6.443   5.248   5.790 -0.2272 -2.0742 -1.7469
12777TIP3    H259747   6.357   5.160   5.878 -0.3562  0.2656  0.5660
12778TIP3   OH259748   3.564   6.121  11.885  0.4579  0.0273 -0.4521
12778TIP3    H159749   3.562   6.027  11.868  1.0987  0.0685 -0.7712
12778TIP3    H259750   3.549   6.161  11.799  0.9598  0.2183 -0.4531
12779TIP3   OH259751   0.677   6.110  14.135  0.1760  0.3071  0.1336
12779TIP3    H159752   0.746   6.105  14.069 -0.0393  0.9482 -0.1457
12779TIP3    H259753   0.643   6.199  14.127 -1.1997 -0.2365 -0.2543
12780TIP3   OH259754   6.605   1.640   0.815 -0.0487  0.1572  0.5219
12780TIP3    H159755   6.590   1.600   0.901 -0.0677  0.7733  0.8130
12780TIP3    H259756   6.663   1.579   0.770 -0.9950 -0.7777  0.5114
12781TIP3   OH259757   0.357   4.050  15.349  0.6308  0.5749  0.0368
12781TIP3    H159758   0.351   3.976  15.409 -0.3038  0.2560 -0.4459
12781TIP3    H259759   0.394   4.121  15.403 -1.6226  0.7622  1.4525
12782TIP3   OH259760   5.956   3.307   1.196  0.5840 -0.2515  0.6283
12782TIP3    H159761   6.039   3.278   1.158  0.2609  0.6267 -0.7966
12782TIP3    H259762   5.891   3.295   1.127 -0.3822 -0.3456  1.5182
12783TIP3   OH259763   2.859   2.518  14.022  0.2356 -0.2481  1.0753
12783TIP3    H159764   2.800   2.443  14.035  0.8655 -0.8387  0.5966
12783TIP3    H259765   2.871   2.555  14.110 -1.0527  0.0489  1.1434
12784TIP3   OH259766   3.350   3.276  16.436 -0.2800  0.3578  0.4981
12784TIP3    H159767   3.295   3.236  16.504 -0.2133  0.8968  0.8814
12784TIP3    H259768   3.311   3.362  16.422 -1.4983 -0.4653 -1.5992
12785TIP3   OH259769   5.123   3.214  15.089  0.5609  0.6652  0.5510
12785TIP3    H159770   5.043   3.243  15.045 -0.4548 -0.0086  1.8614
12785TIP3    H259771   5.142   3.128  15.052  1.0392  1.0785 -0.1857
12786TIP3   OH259772   4.218   3.158   1.929 -0.2423 -0.3504 -0.1459
12786TIP3    H159773   4.148   3.179   1.991 -0.2064 -0.4476 -0.0712
12786TIP3    H259774   4.172   3.125   1.852 -0.2315 -3.5249  1.0495
12787TIP3   OH259775   2.628   2.843   5.759 -0.1424  0.0321  0.0840
12787TIP3    H159776   2.679   2.835   5.678 -0.1910  1.1871 -0.0766
12787TIP3    H259777   2.539   2.820   5.732  0.6071 -5.6625  1.0736
12788TIP3   OH259778   6.411   1.375  13.784  0.8343 -0.5696 -0.3213
12788TIP3    H159779   6.319   1.358  13.805  0.8022 -0.5996 -0.4862
12788TIP3    H259780   6.444   1.291  13.751  1.0246 -0.6639  0.1034
12789TIP3   OH259781   6.475   0.469  15.047 -0.2205 -0.5062  0.2496
12789TIP3    H159782   6.442   0.525  15.117  1.9152  1.6656 -0.3452
12789TIP3    H259783   6.555   0.430  15.084 -0.1174 -0.8666 -0.3437
12790TIP3   OH259784   6.603   3.235  14.138 -0.0589  0.5011 -0.4541
12790TIP3    H159785   6.583   3.329  14.137  1.8253  0.9597 -0.2814
12790TIP3    H259786   6.673   3.226  14.073 -1.4867 -1.1506 -1.8674
12791TIP3   OH259787   3.812   2.470  13.381  0.0296  0.3416  0.7834
12791TIP3    H159788   3.718   2.479  13.394  0.0862 -1.0382  2.6670
12791TIP3    H259789   3.823   2.382  13.346  0.5647  1.0029 -0.8142
12792TIP3   OH259790   5.289   4.815  13.221  0.0006  0.7647  0.2805
12792TIP3    H159791   5.295   4.724  13.192  0.7110 -0.0203  2.6248
12792TIP3    H259792   5.367   4.829  13.274 -0.5434  2.4455  0.7061
12793TIP3   OH259793   2.122   3.147   3.194 -0.1531  0.7647  0.0860
12793TIP3    H159794   2.060   3.092   3.146  0.9698  0.1884 -0.7349
12793TIP3    H259795   2.123   3.109   3.282 -1.6511  1.3704  0.4074
12794TIP3   OH259796   0.638   6.378   2.306 -0.3125  0.0749 -0.0471
12794TIP3    H159797   0.588   6.459   2.308  0.6958  0.7160  1.8809
12794TIP3    H259798   0.698   6.389   2.233 -0.0081  1.2119  0.3538
12795TIP3   OH259799   4.102   0.060  11.601  0.2925  0.4749  0.4617
12795TIP3    H159800   4.112   0.134  11.661 -2.0318  1.2933 -0.0589
12795TIP3    H259801   4.081  -0.014  11.658 -0.5233  0.9309  0.7634
12796TIP3   OH259802   6.077   4.564  13.299  0.0642 -0.0466 -0.0835
12796TIP3    H159803   6.105   4.538  13.211 -0.7424 -1.4911  0.0574
12796TIP3    H259804   6.030   4.646  13.286 -0.0444 -0.2395 -0.9989
12797TIP3   OH259805   4.116   2.598  15.739  0.4102  0.0932 -0.1011
12797TIP3    H159806   4.113   2.573  15.647  2.7958 -0.8142  0.0028
12797TIP3    H259807   4.150   2.688  15.739  0.2059  0.1730 -0.0899
12798TIP3   OH259808   5.191   5.436  16.712 -0.1661  0.7650 -0.5628
12798TIP3    H159809   5.231   5.441  16.626  3.2239 -0.7200  0.7537
12798TIP3    H259810   5.191   5.525  16.745 -1.5419  1.3562 -2.0139
12799TIP3   OH259811   5.119   5.511   4.631  0.3116  0.4113 -0.4893
12799TIP3    H159812   5.125   5.463   4.713 -2.8431  1.0858  0.2803
12799TIP3    H259813   5.162   5.455   4.566 -0.9166 -2.2124  0.8504
12800TIP3   OH259814   4.238   5.370   0.219  0.4695  0.0039  0.0811
12800TIP3    H159815   4.174   5.337   0.282  0.6621  1.9955  1.4398
12800TIP3    H259816   4.309   5.306   0.220 -0.2856 -0.8410  0.6187
12801TIP3   OH259817   3.532   5.772  13.947 -0.0342  0.2417  0.2220
12801TIP3    H159818   3.523   5.814  14.033  0.1862  1.1807 -0.1960
12801TIP3    H259819   3.608   5.815  13.908 -0.5647  0.3510 -0.7297
12802TIP3   OH259820   2.438   6.352   1.327 -0.2715  0.3180  0.5599
12802TIP3    H159821   2.526   6.387   1.311  0.8311 -3.4564 -4.4120
12802TIP3    H259822   2.448   6.294   1.403  1.4517  0.3422  0.3866
12803TIP3   OH259823   4.442   5.037  17.135 -0.3328 -0.3339  0.1750
12803TIP3    H159824   4.435   5.098  17.062  1.0563  0.9211  1.0337
12803TIP3    H259825   4.532   5.006  17.132  0.2265  0.9168  2.2068
12804TIP3   OH259826   6.441   3.272   6.142 -0.0427 -0.1850 -0.5374
12804TIP3    H159827   6.526   3.268   6.185  0.2461  1.2489 -0.9139
12804TIP3    H259828   6.448   3.213   6.068  0.0439 -1.3382  0.3620
12805TIP3   OH259829   6.357   1.838  11.228 -0.2734  0.4923  0.6291
12805TIP3    H159830   6.289   1.838  11.161  2.0335 -1.5989 -1.9532
12805TIP3    H259831   6.323   1.783  11.298  0.1900 -4.4307 -2.5439
12806TIP3   OH259832   0.353   1.561  16.511 -0.2754  0.4074 -0.7007
12806TIP3    H159833   0.319   1.645  16.479 -1.7161 -0.8218 -2.5893
12806TIP3    H259834   0.276   1.506  16.523  0.4864 -0.1670  2.2596
12807TIP3   OH259835   6.739   6.489   0.829 -0.2278  0.2853 -0.0118
12807TIP3    H159836   6.803   6.523   0.766 -1.2518 -0.3717 -1.4714
12807TIP3    H259837   6.742   6.395   0.816 -0.9823  0.2029  0.4111
12808TIP3   OH259838   3.011   4.810  14.467  0.4281  0.1579 -0.4073
12808TIP3    H159839   3.020   4.759  14.547 -1.6923  1.0197  0.4555
12808TIP3    H259840   2.949   4.760  14.413 -0.9026  1.2471  0.0348
12809TIP3   OH259841   5.991   4.008   2.032 -0.0313  0.1334  0.6012
12809TIP3    H159842   5.915   3.955   2.057 -0.0364  0.4236  1.2275
12809TIP3    H259843   6.023   3.967   1.952 -0.3301 -0.5211  0.8037
12810TIP3   OH259844   0.844   2.938   1.941 -0.5512 -0.1962  0.9052
12810TIP3    H159845   0.930   2.948   1.900 -0.5664  0.1898  0.9603
12810TIP3    H259846   0.849   2.991   2.021 -0.7219 -0.4612  1.0939
12811TIP3   OH259847   0.627   5.049   2.036 -0.0219 -0.3378 -0.0005
12811TIP3    H159848   0.660   5.116   1.976 -0.9651  0.7351  0.6543
12811TIP3    H259849   0.625   4.969   1.983 -1.0009  0.6094 -1.4677
12812TIP3   OH259850   6.533   6.306   1.085  0.2476 -0.5350  0.5854
12812TIP3    H159851   6.497   6.384   1.126  1.2309  0.6038 -0.6581
12812TIP3    H259852   6.627   6.312   1.099  0.5597 -0.3754 -1.3519
12813TIP3   OH259853   2.958   3.846   4.988 -0.0465 -0.4749 -0.2008
12813TIP3    H159854   2.962   3.791   4.910  0.6050 -0.5270 -0.1355
12813TIP3    H259855   2.993   3.931   4.959 -0.6399 -0.2231 -0.1911
12814TIP3   OH259856   5.553   4.178   4.736 -0.0291  0.1874 -0.1292
12814TIP3    H159857   5.617   4.150   4.671 -0.1622  0.5543 -0.4205
12814TIP3    H259858   5.552   4.107   4.800  1.6623  0.7954  0.6141
12815TIP3   OH259859   4.663   3.682  11.335 -0.0578 -0.1533 -0.0725
12815TIP3    H159860   4.694   3.770  11.358 -2.9636  0.5020  1.9198
12815TIP3    H259861   4.699   3.625  11.403  0.8596 -0.3288 -0.6892
12816TIP3   OH259862   0.019   3.949  17.148 -0.0011 -0.1734  0.0405
12816TIP3    H159863   0.081   4.007  17.193  1.6318 -0.8184 -1.2866
12816TIP3    H259864  -0.017   3.894  17.218 -0.2890  1.2384  1.0667
12817TIP3   OH259865   5.826   3.868   3.355 -0.2471  0.1947  0.1533
12817TIP3    H159866   5.778   3.943   3.391 -0.5998 -0.5532  1.3242
12817TIP3    H259867   5.918   3.893   3.362 -0.3103  0.1730  1.4578
12818TIP3   OH259868   3.376   5.552  16.943 -0.2130  0.6976 -0.4255
12818TIP3    H159869   3.384   5.483  16.877  0.7199  0.5805 -0.2109
12818TIP3    H259870   3.413   5.629  16.900 -0.4221  0.8435 -0.3439
12819TIP3   OH259871   3.146   5.362  12.068 -0.8276 -0.0729  0.0179
12819TIP3    H159872   3.131   5.309  11.990 -0.6415 -1.5186  0.9412
12819TIP3    H259873   3.221   5.417  12.045 -1.9795  0.9362 -1.4939
12820TIP3   OH259874   4.102   2.842   2.474 -0.5506 -0.0244  0.1871
12820TIP3    H159875   4.007   2.829   2.483 -0.6774  0.9227  0.3924
12820TIP3    H259876   4.141   2.770   2.523 -1.0931 -2.3573 -2.5486
12821TIP3   OH259877   5.577   4.267  13.788 -0.0005 -0.2803 -0.2978
12821TIP3    H159878   5.567   4.188  13.734 -1.5529  0.6905 -1.5250
12821TIP3    H259879   5.548   4.338  13.731  0.9118  1.1232  0.9531
12822TIP3   OH259880   4.937   1.708   1.703  0.1624  0.2248 -0.3485
12822TIP3    H159881   4.972   1.796   1.714  2.3421 -0.5361 -0.7107
12822TIP3    H259882   4.860   1.720   1.647 -1.0858  2.1285  1.5938
12823TIP3   OH259883   2.613   2.245   4.592 -0.0013  0.0533  0.0721
12823TIP3    H159884   2.698   2.255   4.549 -0.1865 -0.6921 -0.4851
12823TIP3    H259885   2.613   2.155   4.624 -0.5993  0.0376  0.0328
12824TIP3   OH259886   3.023   6.763  16.259 -0.2102  0.0225 -0.8007
12824TIP3    H159887   3.044   6.682  16.307  0.7047  1.0671  0.6282
12824TIP3    H259888   3.096   6.774  16.198  0.5790  0.6570  0.2227
12825TIP3   OH259889   2.253   2.075  15.554 -0.5716  0.6697 -0.5935
12825TIP3    H159890   2.267   2.036  15.468  1.2721 -2.6430  1.0157
12825TIP3    H259891   2.339   2.072  15.596 -1.2911  2.7461  1.2156
12826TIP3   OH259892   4.069   1.150  12.680 -0.2963 -0.2885 -0.5332
12826TIP3    H159893   4.099   1.168  12.769  0.8046 -0.9110 -0.7612
12826TIP3    H259894   4.149   1.130  12.631 -0.6418  1.8841 -2.1496
12827TIP3   OH259895   3.877   2.691   6.869  0.1423  0.0097 -0.3809
12827TIP3    H159896   3.817   2.617   6.870 -0.1161  0.2180  0.3436
12827TIP3    H259897   3.834   2.757   6.814  1.3766 -1.1534 -2.9129
12828TIP3   OH259898   4.878   4.632   5.164 -0.1764  0.8166 -0.0533
12828TIP3    H159899   4.855   4.559   5.105 -1.5683  1.2622 -0.0987
12828TIP3    H259900   4.820   4.621   5.239  0.6362  1.0526  0.6216
12829TIP3   OH259901   4.217   5.026  14.116  1.0956  0.7762  0.2656
12829TIP3    H159902   4.225   5.025  14.211 -0.2415 -2.4009  0.4662
12829TIP3    H259903   4.123   5.038  14.100  1.0873 -0.2074 -0.5460
12830TIP3   OH259904   6.146   0.361   1.900 -0.4631 -0.2147 -0.0098
12830TIP3    H159905   6.154   0.277   1.944  0.3969 -0.9278 -1.4416
12830TIP3    H259906   6.085   0.411   1.953 -0.3504 -1.4413  1.3223
12831TIP3   OH259907   2.723   1.389   3.311 -0.0434  0.7973 -0.2199
12831TIP3    H159908   2.692   1.388   3.401  0.1513  2.2758 -0.1223
12831TIP3    H259909   2.790   1.457   3.308  0.4057  0.3405 -1.3382
12832TIP3   OH259910   3.810   1.151   2.208 -0.0374  0.5161  0.5469
12832TIP3    H159911   3.882   1.190   2.258  0.7337 -0.5297  0.3010
12832TIP3    H259912   3.812   1.196   2.124  1.7357 -0.9220 -0.2424
12833TIP3   OH259913   2.512   0.967  14.383  0.3462  0.6839 -0.0057
12833TIP3    H159914   2.598   0.952  14.343 -0.1015  0.5418 -0.9413
12833TIP3    H259915   2.476   0.879  14.396  0.3959  0.7379  0.5163
12834TIP3   OH259916   1.189   1.324  11.562 -0.5277 -0.2267 -0.2510
12834TIP3    H159917   1.129   1.257  11.531 -1.2735  0.9762 -1.5243
12834TIP3    H259918   1.133   1.398  11.585  0.3693  0.4704 -0.2461
12835TIP3   OH259919   0.587   0.665  16.228 -0.1331  1.3324 -0.8432
12835TIP3    H159920   0.616   0.661  16.137  0.9333 -0.5597 -0.4704
12835TIP3    H259921   0.665   0.693  16.277  0.0920 -0.2580 -0.2355
12836TIP3   OH259922   5.083   0.019   0.128  0.1034 -0.0803  0.2584
12836TIP3    H159923   5.005   0.074   0.116  0.4864  0.5497  0.5797
12836TIP3    H259924   5.084   0.001   0.222 -0.7693 -1.7896 -0.0198
12837TIP3   OH259925   5.390   1.695  14.007  0.0768 -0.3744 -0.0499
12837TIP3    H159926   5.418   1.779  14.043  0.5855 -0.7215  0.3670
12837TIP3    H259927   5.470   1.653  13.977 -0.0598 -1.0934  0.5596
12838TIP3   OH259928   5.610   0.514   4.212 -0.3832 -0.9753 -0.0697
12838TIP3    H159929   5.685   0.466   4.247  1.0192  0.4198 -1.0384
12838TIP3    H259930   5.570   0.555   4.288  0.5625 -0.7779  0.3323
12839TIP3   OH259931   6.357   1.399  15.141  0.3657  0.0715 -0.4312
12839TIP3    H159932   6.311   1.453  15.077 -1.1512  0.0456  0.5947
12839TIP3    H259933   6.389   1.461  15.207 -3.3993 -0.2895  2.0188
12840TIP3   OH259934   0.637   2.378  15.076  0.1305 -0.1338 -0.3228
12840TIP3    H159935   0.675   2.466  15.065 -0.1304 -0.2010 -2.0242
12840TIP3    H259936   0.698   2.334  15.135  1.1013  0.7082 -0.6498
12841TIP3   OH259937   3.673   5.962   3.200 -0.8317 -0.4792  0.2220
12841TIP3    H159938   3.663   5.867   3.203 -1.9649 -0.3674  1.5477
12841TIP3    H259939   3.592   5.993   3.159 -0.8606 -0.0470  0.5968
12842TIP3   OH259940   4.851   5.294  15.473 -0.0158 -0.8987  0.3941
12842TIP3    H159941   4.776   5.261  15.423 -0.0623 -2.1135  1.2139
12842TIP3    H259942   4.814   5.360  15.531 -0.0056  0.3368 -0.9507
12843TIP3   OH259943   3.230   3.402   4.927  0.1144  0.1953 -0.2889
12843TIP3    H159944   3.170   3.335   4.895  1.1805  0.1608 -2.3543
12843TIP3    H259945   3.281   3.358   4.995 -1.5204 -0.0305  0.8445
12844TIP3   OH259946   5.365   2.242  14.402 -0.1086 -0.5222 -0.2329
12844TIP3    H159947   5.455   2.273  14.410 -0.5103  1.1429 -1.6768
12844TIP3    H259948   5.374   2.146  14.397  1.6463 -0.3721 -0.8865
12845TIP3   OH259949   5.666   1.891  14.799 -0.0107  0.4390 -0.1275
12845TIP3    H159950   5.647   1.907  14.707 -0.2806 -4.1168 -1.0708
12845TIP3    H259951   5.749   1.843  14.799 -0.7723 -1.0224  1.7855
12846TIP3   OH259952   3.783   5.438  12.902 -0.0268  0.6923  0.3144
12846TIP3    H159953   3.861   5.427  12.848 -0.5097 -1.8336  0.0402
12846TIP3    H259954   3.710   5.437  12.840 -0.4028  1.3598  0.7256
12847TIP3   OH259955   0.514   5.787   0.569 -0.7247  0.2943  0.2042
12847TIP3    H159956   0.567   5.864   0.591  0.4999 -0.6935  0.8784
12847TIP3    H259957   0.496   5.797   0.475 -0.4433  1.3025  0.2369
12848TIP3   OH259958   2.501   3.983   4.614  0.5177 -0.6890  0.7103
12848TIP3    H159959   2.488   4.029   4.697  0.3650  0.2552  0.1844
12848TIP3    H259960   2.512   4.053   4.549  0.1880 -1.3986 -0.1378
12849TIP3   OH259961   0.903   6.168   2.119 -0.7235 -0.4757  0.5706
12849TIP3    H159962   0.913   6.181   2.214  1.5259  0.6464  0.2478
12849TIP3    H259963   0.984   6.125   2.092 -1.2571 -0.6058 -0.8847
12850TIP3   OH259964   2.253   2.474   6.004  0.0850  0.4043  0.0737
12850TIP3    H159965   2.273   2.544   6.065 -0.0250 -0.0429  0.6317
12850TIP3    H259966   2.159   2.461   6.011  0.1328  0.0618  0.1323
12851TIP3   OH259967   4.757   4.129  14.090 -0.7527 -0.1792 -0.0145
12851TIP3    H159968   4.739   4.178  14.171 -1.2026 -1.7234  0.8708
12851TIP3    H259969   4.801   4.192  14.033 -2.5694  1.6744  0.5068
12852TIP3   OH259970   4.055   3.961   0.770 -0.4125  0.0631  0.7075
12852TIP3    H159971   4.090   4.048   0.751  0.2832 -0.4377 -0.4334
12852TIP3    H259972   4.055   3.956   0.865  0.4513  0.9592  0.7780
12853TIP3   OH259973   2.926   0.423  11.212  0.0391  0.2156 -0.0136
12853TIP3    H159974   2.871   0.472  11.150 -0.1600  1.4297  1.0829
12853TIP3    H259975   2.905   0.331  11.194 -0.4535  0.5582 -1.3333
12854TIP3   OH259976   3.544   4.243   2.852  0.0907 -0.2228  0.6905
12854TIP3    H159977   3.514   4.190   2.925 -1.1206  0.7401  0.9283
12854TIP3    H259978   3.487   4.218   2.779  0.0588  0.1506  0.5856
12855TIP3   OH259979   1.060   1.731   2.918 -0.3940 -0.0779  0.1654
12855TIP3    H159980   1.065   1.689   3.003 -0.5999 -2.4545 -0.9247
12855TIP3    H259981   1.023   1.664   2.860 -1.3160  1.8268 -1.5707
12856TIP3   OH259982   0.901   5.870  16.989  0.8193 -0.8752 -0.3919
12856TIP3    H159983   0.857   5.926  17.053  3.3118 -1.0639  1.6199
12856TIP3    H259984   0.832   5.846  16.926 -0.7854  2.7609 -0.2303
12857TIP3   OH259985   2.441   1.908  14.354  0.0610  0.2832 -0.0237
12857TIP3    H159986   2.485   1.990  14.378  0.5542  0.0949 -0.2968
12857TIP3    H259987   2.510   1.843  14.351 -0.4887 -0.4121  1.3575
12858TIP3   OH259988   5.019   4.032  15.959  0.0314  0.1126  0.0710
12858TIP3    H159989   5.092   4.093  15.975 -2.7091  3.3675  1.2654
12858TIP3    H259990   5.018   4.021  15.864  1.6181  0.5760 -0.0320
12859TIP3   OH259991   0.302   4.947  14.077 -0.0399 -0.2737 -0.0792
12859TIP3    H159992   0.362   4.872  14.071 -1.4801 -1.5470  0.7272
12859TIP3    H259993   0.241   4.934  14.005  0.4920  0.9021 -0.7676
12860TIP3   OH259994   4.363   5.761  10.887 -0.2139 -0.5456  0.4598
12860TIP3    H159995   4.363   5.800  10.800 -3.8590  0.2777  0.6599
12860TIP3    H259996   4.379   5.836  10.946  1.1394 -0.9149  0.6055
12861TIP3   OH259997   3.069   6.005   3.435  0.1878 -0.2502  0.0816
12861TIP3    H159998   2.986   5.956   3.435  0.5259 -0.8489  1.2264
12861TIP3    H259999   3.117   5.971   3.510  1.2092  0.5604 -0.1853
12862TIP3   OH260000   2.724   0.460  12.435 -0.3724 -0.3648  0.4381
12862TIP3    H160001   2.812   0.469  12.400  0.1121 -0.0758  1.6654
12862TIP3    H260002   2.667   0.461  12.359  0.3895  3.0351 -0.2317
12863TIP3   OH260003   1.967   2.386   5.282  0.2410  0.3277  0.3201
12863TIP3    H160004   1.930   2.306   5.320  2.4864 -1.9891 -1.9435
12863TIP3    H260005   2.061   2.374   5.290  0.6436  2.3753 -0.8747
12864TIP3   OH260006   6.471   5.321   4.380 -0.2902 -0.3461 -0.2238
12864TIP3    H160007   6.523   5.242   4.398 -1.2860 -1.1159 -0.5983
12864TIP3    H260008   6.414   5.296   4.307 -0.0213  1.0123 -0.9181
12865TIP3   OH260009   5.613   1.596  16.365  0.4295  0.5678 -0.7680
12865TIP3    H160010   5.690   1.547  16.338 -0.1415  0.0851 -1.5844
12865TIP3    H260011   5.549   1.528  16.388  0.6775  0.9524  1.2716
12866TIP3   OH260012   6.083   6.604   3.404 -0.4875 -0.3348  0.7818
12866TIP3    H160013   6.117   6.617   3.492 -0.0600 -0.7655  0.6908
12866TIP3    H260014   6.077   6.692   3.366 -0.7849 -0.1407  1.2758
12867TIP3   OH260015   4.712   4.108   0.802  0.3228 -0.0523  0.1464
12867TIP3    H160016   4.633   4.058   0.823  1.1412 -2.2317 -1.5500
12867TIP3    H260017   4.778   4.041   0.784  1.8459  1.6925 -1.0812
12868TIP3   OH260018   6.717   3.454   2.877 -0.1846  0.2552 -0.0800
12868TIP3    H160019   6.680   3.411   2.800 -0.5075  1.5962 -0.7069
12868TIP3    H260020   6.811   3.457   2.860 -0.1237 -0.4103  0.0956
12869TIP3   OH260021   5.832   4.816   6.217  0.7865 -0.3093  0.3737
12869TIP3    H160022   5.907   4.858   6.258 -0.4124  1.9507  0.4165
12869TIP3    H260023   5.854   4.813   6.124  0.7471  0.8015  0.3207
12870TIP3   OH260024   1.139   1.347  15.745  0.2207 -0.2194 -0.1184
12870TIP3    H160025   1.120   1.350  15.839 -0.6429  1.4352 -0.3197
12870TIP3    H260026   1.072   1.403  15.705  0.0377 -1.5857 -1.8267
12871TIP3   OH260027   0.723   5.721   1.549  0.1648 -0.2030  0.1983
12871TIP3    H160028   0.635   5.700   1.518 -0.8477  2.5553  0.9361
12871TIP3    H260029   0.780   5.701   1.475 -0.9843 -2.3930 -0.1732
12872TIP3   OH260030   2.744   0.842   0.573  0.5165  0.2254 -0.1144
12872TIP3    H160031   2.682   0.769   0.567 -0.1094  0.6606  0.8186
12872TIP3    H260032   2.691   0.916   0.604  1.1386  1.0829 -1.0322
12873TIP3   OH260033   1.161   1.971  14.492  0.1835  0.0441 -0.6598
12873TIP3    H160034   1.083   1.927  14.459  0.5723 -0.0390 -1.5037
12873TIP3    H260035   1.221   1.900  14.516  1.0874  0.0666 -2.6867
12874TIP3   OH260036   4.364   1.581   0.628  0.2892 -0.4843 -0.4548
12874TIP3    H160037   4.366   1.487   0.646  2.7671 -0.6719 -1.2893
12874TIP3    H260038   4.318   1.589   0.545  0.5205 -1.0342 -0.6399
12875TIP3   OH260039   2.097   3.359  17.178  0.0113 -0.3276  0.1825
12875TIP3    H160040   2.030   3.296  17.150  1.1101 -0.8970 -1.2728
12875TIP3    H260041   2.172   3.306  17.201 -0.0201  0.3060  1.8721
12876TIP3   OH260042   6.122   2.357  16.214 -0.4188 -0.9870  0.0152
12876TIP3    H160043   6.117   2.318  16.127  3.0761  0.8090 -1.1833
12876TIP3    H260044   6.100   2.449  16.200  2.4238 -0.1307  0.4046
12877TIP3   OH260045   5.873   1.332   0.707  0.2385  0.0368 -0.0866
12877TIP3    H160046   5.877   1.426   0.721  1.6392  0.1985 -1.2522
12877TIP3    H260047   5.959   1.300   0.736  0.0989 -0.7506 -0.5024
12878TIP3   OH260048   0.122   4.574  16.269 -0.3033 -0.1110  0.6864
12878TIP3    H160049   0.043   4.537  16.230  0.7426 -1.7508  0.0177
12878TIP3    H260050   0.128   4.662  16.232 -0.4643 -0.8841 -1.2941
12879TIP3   OH260051   5.975   4.245  15.605  0.1327  0.4552  0.0262
12879TIP3    H160052   5.880   4.245  15.597  0.1748  1.7874 -0.6871
12879TIP3    H260053   5.994   4.313  15.669  0.6697  1.3780 -1.0760
12880TIP3   OH260054   2.026   3.706  13.761 -0.5821  0.6045  0.1972
12880TIP3    H160055   1.953   3.762  13.735 -0.8491  1.2342  2.1285
12880TIP3    H260056   2.100   3.738  13.710 -1.1902  1.3831 -0.2186
12881TIP3   OH260057   6.714   1.152  14.211  0.1824 -0.1047  0.4944
12881TIP3    H160058   6.747   1.124  14.296  0.0536 -2.1518 -0.0740
12881TIP3    H260059   6.665   1.232  14.229  1.3038  0.2607  2.1071
12882TIP3   OH260060   0.108   0.815  16.061 -0.1087  0.3712 -0.5859
12882TIP3    H160061   0.027   0.808  16.111  0.7480 -0.7332  0.6934
12882TIP3    H260062   0.086   0.780  15.975 -1.0058  0.1535 -0.2814
12883TIP3   OH260063   4.365   5.508  16.544 -0.2640 -0.2557 -0.1506
12883TIP3    H160064   4.410   5.436  16.500  2.2985  2.0450 -1.6382
12883TIP3    H260065   4.417   5.524  16.623  0.4061  1.1200 -0.8282
12884TIP3   OH260066   2.352   6.272   3.065 -0.1422 -0.4952 -0.2736
12884TIP3    H160067   2.346   6.177   3.058 -1.0554 -0.3343 -2.3409
12884TIP3    H260068   2.283   6.295   3.128 -0.8429 -1.1230 -0.7855
12885TIP3   OH260069   6.420   4.122  17.020  0.0901 -0.3699  0.1371
12885TIP3    H160070   6.417   4.178  16.942 -1.2609  0.0613  0.4627
12885TIP3    H260071   6.498   4.151  17.067  0.0796  0.4264 -0.3118
12886TIP3   OH260072   5.925   1.382  14.033  0.5054  0.6388 -0.9463
12886TIP3    H160073   5.858   1.443  14.063 -0.3047 -1.1157  1.0605
12886TIP3    H260074   5.892   1.349  13.949 -1.0559 -0.0069 -0.1113
12887TIP3   OH260075   1.974   3.875   4.882  1.0956 -0.0891  0.4338
12887TIP3    H160076   1.933   3.961   4.897  1.1521  0.1796 -0.8551
12887TIP3    H260077   1.917   3.814   4.928  1.3481  0.6839  1.8240
12888TIP3   OH260078   6.344   1.282  12.011 -0.1469  0.1227  0.1138
12888TIP3    H160079   6.384   1.262  12.095 -0.3764  0.1586  0.2319
12888TIP3    H260080   6.412   1.330  11.963 -0.5038  1.3909  0.8286
12889TIP3   OH260081   4.083   0.306   3.948  0.2679  0.2960  0.0104
12889TIP3    H160082   4.093   0.372   3.879 -1.3223  0.1435 -0.3910
12889TIP3    H260083   4.154   0.244   3.932  0.9202  1.1477 -0.4801
12890TIP3   OH260084   4.583   4.473   0.903 -0.5814 -0.0841 -0.1420
12890TIP3    H160085   4.643   4.414   0.856 -0.5861  0.3815 -0.7501
12890TIP3    H260086   4.627   4.491   0.986 -0.2668 -0.4101 -0.2360
12891TIP3   OH260087   1.335   3.649  14.018  0.4527 -0.5391 -0.1499
12891TIP3    H160088   1.345   3.607  13.932  0.5538  0.4378 -0.6274
12891TIP3    H260089   1.300   3.579  14.074 -0.6696 -0.9115 -1.2567
12892TIP3   OH260090   1.858   0.954   2.004 -0.6821 -0.2699 -0.1515
12892TIP3    H160091   1.909   1.033   2.020  1.7594 -1.6631 -0.5214
12892TIP3    H260092   1.868   0.902   2.084  0.0299 -1.3280 -0.8988
12893TIP3   OH260093   5.892   6.428   1.146 -0.8502 -0.0096  0.3896
12893TIP3    H160094   5.970   6.373   1.154 -1.5083 -0.8467  1.2077
12893TIP3    H260095   5.906   6.498   1.210 -1.1279 -0.6144  1.1248
12894TIP3   OH260096   5.435   5.882   0.306  0.0273  0.3943 -0.1185
12894TIP3    H160097   5.506   5.919   0.359 -1.5491 -0.3344  2.7311
12894TIP3    H260098   5.376   5.955   0.289  0.5360  0.6290 -0.9416
12895TIP3   OH260099   6.010   2.857  13.037  0.0000 -0.2921 -0.0431
12895TIP3    H160100   5.983   2.799  12.966  1.0990 -1.5178  0.5056
12895TIP3    H260101   6.066   2.922  12.996  0.9105 -1.1984 -0.2603
12896TIP3   OH260102   5.565   4.146   2.350 -0.9075  0.3559  0.6213
12896TIP3    H160103   5.577   4.201   2.273  1.1665  0.2731  0.8484
12896TIP3    H260104   5.520   4.202   2.413 -0.4104  1.2131  0.2234
12897TIP3   OH260105   5.680   5.038   0.284  0.5425 -0.4265 -0.2431
12897TIP3    H160106   5.683   4.943   0.292  0.0122 -0.8435 -3.3678
12897TIP3    H260107   5.715   5.056   0.197  1.0421  2.3069  0.4192
12898TIP3   OH260108   1.166   0.167   0.426  0.0396  0.0743 -0.0373
12898TIP3    H160109   1.085   0.115   0.426  0.0467  0.0629  0.3067
12898TIP3    H260110   1.161   0.219   0.345 -0.6918  0.6628  0.3699
12899TIP3   OH260111   4.579   1.409  11.777 -1.0656 -0.3895  0.8311
12899TIP3    H160112   4.595   1.498  11.746 -0.8665 -0.4431  0.7788
12899TIP3    H260113   4.501   1.381  11.730 -0.6847 -0.5238  0.2686
12900TIP3   OH260114   5.308   6.495   5.714  0.0511 -0.1666 -0.1818
12900TIP3    H160115   5.217   6.523   5.722  0.2336 -0.0317  2.4807
12900TIP3    H260116   5.357   6.577   5.703 -0.0845 -0.2032 -1.1411
12901TIP3   OH260117   5.160   6.299  15.429 -0.1688  0.0038  0.3611
12901TIP3    H160118   5.136   6.337  15.513 -1.3632 -0.6455  0.3370
12901TIP3    H260119   5.172   6.374  15.371  0.5019  0.4511  1.0586
12902TIP3   OH260120   3.850   4.551  15.293  0.2346 -0.3144  0.3245
12902TIP3    H160121   3.834   4.558  15.387  0.4993 -1.3664  0.4665
12902TIP3    H260122   3.907   4.475  15.284  1.7128  0.8544 -0.5400
12903TIP3   OH260123   4.896   4.316  13.946 -0.6192 -0.5870  0.5005
12903TIP3    H160124   4.877   4.361  13.863  0.0418 -0.5997  0.3373
12903TIP3    H260125   4.965   4.370  13.987  1.9737 -2.6780 -0.8084
12904TIP3   OH260126   0.700   2.181   0.670  0.4234  0.0469 -0.3140
12904TIP3    H160127   0.701   2.250   0.604  0.0385  0.3034 -0.0578
12904TIP3    H260128   0.651   2.110   0.629  1.1697 -0.2300 -0.7300
12905TIP3   OH260129   0.301   0.231  12.163  0.0532  0.3087  0.3458
12905TIP3    H160130   0.349   0.237  12.080 -0.3183 -0.2762  0.0822
12905TIP3    H260131   0.354   0.171  12.217 -1.4870 -2.1729 -0.7569
12906TIP3   OH260132   3.852   0.237  14.311  0.5621 -0.1401  0.1708
12906TIP3    H160133   3.762   0.240  14.278  0.9195  1.4892 -0.7475
12906TIP3    H260134   3.907   0.240  14.233  1.4165  2.4996  0.7903
12907TIP3   OH260135   5.791   3.232   1.892  0.1458 -0.3935 -0.0333
12907TIP3    H160136   5.831   3.304   1.843 -0.5278 -0.9364 -1.4502
12907TIP3    H260137   5.840   3.155   1.865  0.3557 -0.5812  0.8725
12908TIP3   OH260138   6.395   3.668  11.501  0.4389  0.4209  0.1386
12908TIP3    H160139   6.483   3.700  11.519  0.9205 -0.3399 -0.7242
12908TIP3    H260140   6.348   3.676  11.584  1.7922 -0.6416  1.0397
12909TIP3   OH260141   6.725   0.043   3.044  0.2038 -0.3858  0.0617
12909TIP3    H160142   6.799   0.070   3.099  0.7371 -0.1948 -0.7340
12909TIP3    H260143   6.648   0.068   3.094  0.6753 -0.5030  0.8658
12910TIP3   OH260144   3.551   0.404  17.121 -0.2240  0.1182 -0.4197
12910TIP3    H160145   3.545   0.498  17.101 -0.1129  0.1226 -0.4374
12910TIP3    H260146   3.473   0.385  17.172 -1.9205 -0.4554 -3.0109
12911TIP3   OH260147   2.811   5.004  16.331  0.0629  0.2689  0.4247
12911TIP3    H160148   2.755   5.058  16.277  1.8772  0.7808 -1.0517
12911TIP3    H260149   2.764   4.921  16.340 -1.1143  0.8330 -0.3253
12912TIP3   OH260150   6.389   2.578  11.755 -0.2017 -0.0344  0.3869
12912TIP3    H160151   6.471   2.626  11.744  0.8755 -2.1350 -1.6382
12912TIP3    H260152   6.416   2.493  11.791 -1.0977 -1.5995 -2.3545
12913TIP3   OH260153   1.685   5.509  13.773 -0.1234 -0.4752  0.2169
12913TIP3    H160154   1.779   5.510  13.790  0.8467  1.5537 -4.0145
12913TIP3    H260155   1.648   5.557  13.847  2.2372 -0.4662  1.5170
12914TIP3   OH260156   4.048   3.085  11.623 -0.1101 -0.0326  0.0040
12914TIP3    H160157   4.121   3.100  11.682 -1.2111  0.1878  1.3719
12914TIP3    H260158   4.058   3.151  11.555  1.6254 -0.7929 -0.5389
12915TIP3   OH260159   1.879   4.008  14.045  0.3993  0.4644 -0.8202
12915TIP3    H160160   1.889   4.040  13.955 -1.9699  0.7178 -1.0650
12915TIP3    H260161   1.878   3.912  14.037  0.7475  0.4770 -0.9957
12916TIP3   OH260162   5.901   3.729   4.487 -0.6354  0.1217 -0.2532
12916TIP3    H160163   5.976   3.780   4.455 -0.0123 -1.2765 -1.0791
12916TIP3    H260164   5.882   3.768   4.572  0.5174  1.0232 -0.3680
12917TIP3   OH260165   4.232   4.191  15.285 -0.1753 -0.2486 -0.3769
12917TIP3    H160166   4.222   4.179  15.379 -1.4639  0.4493 -0.4097
12917TIP3    H260167   4.245   4.103  15.250  2.9096 -0.3435  0.6932
12918TIP3   OH260168   4.422   4.257  16.550 -0.0198 -0.2907  0.5578
12918TIP3    H160169   4.453   4.170  16.526 -0.6996 -0.5916  0.7625
12918TIP3    H260170   4.438   4.311  16.472 -1.4226 -1.0558 -0.2996
12919TIP3   OH260171   2.456   3.752  12.800  0.1112  0.4672 -0.3544
12919TIP3    H160172   2.414   3.686  12.745 -0.3466 -0.9769  1.6091
12919TIP3    H260173   2.385   3.812  12.824 -0.0383  0.1905 -0.0904
12920TIP3   OH260174   3.577   5.472  12.712 -0.3334  0.5265 -0.2464
12920TIP3    H160175   3.488   5.498  12.736 -0.3421 -0.4232  0.8447
12920TIP3    H260176   3.600   5.529  12.638 -2.4779 -0.3478 -1.6821
12921TIP3   OH260177   3.277   0.542   1.146  0.2741  0.0733  0.4716
12921TIP3    H160178   3.269   0.496   1.062 -1.8594 -1.9013  1.6413
12921TIP3    H260179   3.257   0.633   1.126 -2.7188 -0.7746 -0.8253
12922TIP3   OH260180   5.733   4.064  11.481 -0.0788 -0.4475 -0.0498
12922TIP3    H160181   5.712   4.017  11.561 -0.2055  0.9363  0.7679
12922TIP3    H260182   5.670   4.032  11.416  0.3301 -1.9201  0.2521
12923TIP3   OH260183   2.685   3.283  13.276  0.2210  0.0224 -0.4037
12923TIP3    H160184   2.591   3.287  13.292  0.5460  0.4491  1.6985
12923TIP3    H260185   2.711   3.196  13.307  0.6697  0.2685 -0.0911
12924TIP3   OH260186   3.786   1.264   1.964 -0.4963 -0.2866 -0.1211
12924TIP3    H160187   3.835   1.310   1.896  0.1695  0.1781  0.6555
12924TIP3    H260188   3.713   1.223   1.917  0.5114 -0.8204 -1.2572
12925TIP3   OH260189   3.611   3.497   1.434 -0.3184  0.4410  0.1046
12925TIP3    H160190   3.615   3.496   1.530 -0.5036  1.5184  0.1350
12925TIP3    H260191   3.518   3.483   1.414 -0.0848 -1.2128  0.0232
12926TIP3   OH260192   3.569   0.109   1.051 -0.0832  0.1804  0.0121
12926TIP3    H160193   3.512   0.036   1.075 -0.8133  1.2088  1.5888
12926TIP3    H260194   3.522   0.155   0.981 -0.0101 -0.3854 -0.4097
12927TIP3   OH260195   0.735   1.050   2.429  0.2767 -0.1911 -0.5564
12927TIP3    H160196   0.681   0.987   2.479  0.7353 -0.7239 -0.7243
12927TIP3    H260197   0.783   1.098   2.496  0.6668 -0.7012 -0.4603
12928TIP3   OH260198   4.617   4.611   3.671  0.3015  0.2001 -0.3562
12928TIP3    H160199   4.581   4.596   3.583  1.2022  1.1660 -0.9177
12928TIP3    H260200   4.700   4.657   3.655  1.0418 -0.6315  0.9631
12929TIP3   OH260201   6.099   0.552   5.892  0.0511 -0.2461  0.1094
12929TIP3    H160202   6.171   0.494   5.917  1.7087  1.0571 -1.3898
12929TIP3    H260203   6.111   0.630   5.946 -0.0394  0.1200 -0.3961
12930TIP3   OH260204   0.048   4.400   5.329 -0.3955 -0.4524  0.2123
12930TIP3    H160205  -0.007   4.335   5.285 -1.3066  0.6814 -0.4193
12930TIP3    H260206  -0.004   4.426   5.405 -0.3314 -0.0266  0.1125
12931TIP3   OH260207   3.608   0.605   3.300  0.0897  0.3901 -0.0286
12931TIP3    H160208   3.519   0.605   3.265 -0.0514  0.6585  0.3196
12931TIP3    H260209   3.637   0.696   3.292  0.8378  0.0592 -1.3822
12932TIP3   OH260210   0.460   1.394   1.716 -0.2423  0.2559  0.2452
12932TIP3    H160211   0.418   1.474   1.685  0.4023 -0.2776 -2.2374
12932TIP3    H260212   0.415   1.324   1.669  0.7326 -0.6404  0.6220
12933TIP3   OH260213   1.966   0.307  13.258  0.1374  0.0632 -0.3718
12933TIP3    H160214   1.935   0.217  13.268 -2.5631  1.0339  1.1409
12933TIP3    H260215   2.038   0.314  13.321 -0.6223 -0.6615  0.6184
12934TIP3   OH260216   5.057   1.323   5.078 -0.3309 -0.0161  0.6976
12934TIP3    H160217   5.002   1.362   5.146 -0.7065  2.6593 -0.9942
12934TIP3    H260218   4.996   1.278   5.020 -0.4331  0.6342  0.2931
12935TIP3   OH260219   2.885   0.146  14.390 -0.6433 -0.2223  0.3116
12935TIP3    H160220   2.969   0.171  14.354 -0.8144 -0.1785 -0.0624
12935TIP3    H260221   2.821   0.192  14.336 -0.9571 -1.3018 -0.2646
12936TIP3   OH260222   1.020   5.339  16.325 -0.4869 -0.1132 -0.0668
12936TIP3    H160223   0.972   5.268  16.369 -0.0605  0.0918  0.7298
12936TIP3    H260224   1.017   5.412  16.386 -1.6698  0.8663 -1.2381
12937TIP3   OH260225   3.216   0.723   5.279 -0.7451  0.5663  0.3744
12937TIP3    H160226   3.225   0.785   5.207  0.8438 -0.3193 -0.2251
12937TIP3    H260227   3.286   0.659   5.266 -1.2642 -0.3956  1.9396
12938TIP3   OH260228   3.257   4.996  17.070  0.2572  0.1382  0.4748
12938TIP3    H160229   3.168   4.982  17.103 -0.8393  1.2321 -1.8381
12938TIP3    H260230   3.313   4.983  17.147 -2.0307  1.4493  2.4972
12939TIP3   OH260231   0.424   1.050  15.021  0.3034 -0.5323  0.1121
12939TIP3    H160232   0.399   1.111  14.952  1.5626  1.7642  1.5546
12939TIP3    H260233   0.349   1.049  15.081 -0.1212 -1.2279 -0.4181
12940TIP3   OH260234   4.516   2.129  12.199 -0.1506 -0.3629  0.9058
12940TIP3    H160235   4.438   2.184  12.207 -0.7386 -1.3722  2.6654
12940TIP3    H260236   4.482   2.039  12.198  0.9160 -0.7831  0.2294
12941TIP3   OH260237   5.078   4.783   2.734 -0.0559 -0.0358 -0.3265
12941TIP3    H160238   5.036   4.851   2.788  0.3535  1.0567 -1.3309
12941TIP3    H260239   5.017   4.770   2.661  0.4242  0.1544 -0.7734
12942TIP3   OH260240   0.038   3.425  12.367 -0.1687  0.0524  0.3231
12942TIP3    H160241   0.021   3.518  12.379  0.4316  0.2282 -0.1387
12942TIP3    H260242  -0.035   3.393  12.314 -2.2246 -0.4862  3.1983
12943TIP3   OH260243   0.893   0.304  12.945 -0.3592  0.7448  0.4775
12943TIP3    H160244   0.966   0.275  12.889 -0.7370  1.5228 -0.4482
12943TIP3    H260245   0.849   0.372  12.894 -1.1068  1.0333  1.4694
12944TIP3   OH260246   3.983   4.138   5.221 -0.6958 -0.3941 -0.7281
12944TIP3    H160247   3.893   4.169   5.220 -0.3065  0.8097 -1.3759
12944TIP3    H260248   4.004   4.123   5.129  0.0569  0.2851 -0.6827
12945TIP3   OH260249   3.010   4.007   3.085  0.9328  0.7949 -0.1585
12945TIP3    H160250   3.088   3.953   3.099  0.2228  0.1513  1.4608
12945TIP3    H260251   3.009   4.068   3.158 -1.0297 -0.3814  0.8741
12946TIP3   OH260252   3.016   1.913  15.191  0.0022 -0.2407  0.2315
12946TIP3    H160253   3.006   1.850  15.262 -1.9854 -0.1369  0.0955
12946TIP3    H260254   2.953   1.982  15.211  0.5066  0.5569 -0.8433
12947TIP3   OH260255   5.575   3.865   0.242  0.3750  0.3299 -0.3465
12947TIP3    H160256   5.500   3.816   0.276 -0.6609  1.7960 -0.4591
12947TIP3    H260257   5.621   3.802   0.187  0.6511 -1.3387  1.6559
12948TIP3   OH260258   4.307   3.775  14.288 -0.3546 -0.2091  0.4704
12948TIP3    H160259   4.316   3.859  14.242 -2.9696 -0.0128  0.1593
12948TIP3    H260260   4.304   3.710  14.218 -0.4880 -0.3081  0.5671
12949TIP3   OH260261   6.106   6.610   0.362 -0.3300  0.2891  0.0178
12949TIP3    H160262   6.015   6.581   0.370  0.3478 -2.2085 -0.3752
12949TIP3    H260263   6.103   6.680   0.297 -2.0704  0.9172  0.7154
12950TIP3   OH260264   0.946   2.472   0.736  0.0515 -0.5518  0.2944
12950TIP3    H160265   1.014   2.519   0.688 -0.4329 -1.9830 -1.8925
12950TIP3    H260266   0.994   2.405   0.785  0.4967  0.6008  1.4998
12951TIP3   OH260267   2.223   3.916  13.618 -0.3176 -0.5612 -0.0114
12951TIP3    H160268   2.245   3.963  13.538  2.4324 -1.8743 -0.1411
12951TIP3    H260269   2.248   3.975  13.689  0.0440 -0.5448 -0.1498
12952TIP3   OH260270   4.071   2.723  14.512  0.2942 -0.1568  0.2404
12952TIP3    H160271   4.108   2.743  14.426  0.3873 -0.2457  0.2593
12952TIP3    H260272   4.050   2.808  14.549 -0.3223 -0.1446 -0.1213
12953TIP3   OH260273   5.735   3.011   6.527  0.0597  0.1828 -0.1176
12953TIP3    H160274   5.745   3.103   6.549 -1.5186  0.2422  0.4873
12953TIP3    H260275   5.643   2.992   6.545  0.5483 -1.7313  0.6009
12954TIP3   OH260276   6.245   5.674   1.504  0.1603  0.1593  0.7650
12954TIP3    H160277   6.240   5.655   1.410  2.0776 -0.0205  0.6615
12954TIP3    H260278   6.165   5.721   1.523 -0.3176  0.1095 -0.9455
12955TIP3   OH260279   4.902   3.951  16.936  0.3537  0.0120 -0.0970
12955TIP3    H160280   4.921   3.873  16.988  0.1893  0.0259 -0.0138
12955TIP3    H260281   4.836   3.999  16.987  0.0928 -0.0392 -0.3800
12956TIP3   OH260282   0.781   6.659  15.447  0.3296 -0.9243  0.1817
12956TIP3    H160283   0.725   6.735  15.430  0.4900 -0.6604  0.7956
12956TIP3    H260284   0.823   6.641  15.363  1.5321  0.6974  0.3658
12957TIP3   OH260285   6.328   4.921  11.864  0.8122  0.2424  0.2719
12957TIP3    H160286   6.391   4.857  11.897  1.1702  0.1159 -0.6156
12957TIP3    H260287   6.352   4.932  11.772 -1.7512 -1.3663 -0.6923
12958TIP3   OH260288   6.153   1.718  15.482 -0.5002 -0.5416 -0.3950
12958TIP3    H160289   6.156   1.632  15.439  0.0674 -0.9855  0.4802
12958TIP3    H260290   6.220   1.712  15.551 -1.3300  0.1617  0.4940
12959TIP3   OH260291   1.748   6.736  12.320  0.0592 -0.1552 -0.1670
12959TIP3    H160292   1.731   6.766  12.409  0.8300 -1.1143  0.3292
12959TIP3    H260293   1.843   6.727  12.314  0.1850  1.5579 -1.6763
12960TIP3   OH260294   5.195   2.892  13.378  0.1601  0.2992  0.0548
12960TIP3    H160295   5.184   2.798  13.360 -0.2676 -0.0398  1.8826
12960TIP3    H260296   5.265   2.919  13.319  0.1317 -1.1029 -0.6909
12961TIP3   OH260297   3.977   3.926  15.419  0.1351 -0.6150 -0.2316
12961TIP3    H160298   3.972   4.014  15.456  0.6351 -0.5277 -0.3612
12961TIP3    H260299   3.995   3.940  15.326 -1.0332 -0.8334 -0.4950
12962TIP3   OH260300   2.495   4.774  12.054 -0.3276 -0.1075  0.3227
12962TIP3    H160301   2.430   4.748  11.988  0.4720 -0.5665 -0.2913
12962TIP3    H260302   2.567   4.713  12.043  0.8122  1.2328  0.0778
12963TIP3   OH260303   0.320   5.324  10.974 -0.1102 -0.0622  0.1711
12963TIP3    H160304   0.388   5.347  11.038  0.0796  0.2742 -0.1468
12963TIP3    H260305   0.317   5.399  10.915  0.7055 -0.9594 -1.0514
12964TIP3   OH260306   5.661   1.849  15.434  0.1403  0.4482 -0.0230
12964TIP3    H160307   5.755   1.852  15.421  0.0445  2.2381 -0.5961
12964TIP3    H260308   5.635   1.762  15.405  1.7899 -0.6755  1.6751
12965TIP3   OH260309   4.909   3.266  11.213  0.2299  0.2682  0.2218
12965TIP3    H160310   4.894   3.333  11.147 -0.0804  0.5459  0.5719
12965TIP3    H260311   5.000   3.238  11.198  1.0215  2.1093  1.2843
12966TIP3   OH260312   0.275   3.232  15.605 -0.4332  0.3891  0.0742
12966TIP3    H160313   0.354   3.283  15.589 -0.6792  1.3530  1.7219
12966TIP3    H260314   0.302   3.141  15.594  0.4633  0.7694 -1.0837
12967TIP3   OH260315   6.078   0.853  11.249 -0.2887  0.7242 -0.0849
12967TIP3    H160316   6.081   0.907  11.170  1.6080 -1.9443 -2.0363
12967TIP3    H260317   6.051   0.767  11.218  0.6099 -0.4443  2.1734
12968TIP3   OH260318   5.017   5.085  15.600 -0.0158  0.4404  0.3151
12968TIP3    H160319   4.956   5.056  15.532 -1.2042 -0.8492  1.8331
12968TIP3    H260320   4.968   5.151  15.650  0.4624  0.6514  0.5133
12969TIP3   OH260321   5.785   0.819   5.567  0.0457  0.5230  0.2664
12969TIP3    H160322   5.719   0.881   5.597 -1.5671 -1.9754  2.1754
12969TIP3    H260323   5.805   0.765   5.643  3.6909  0.5339 -0.4702
12970TIP3   OH260324   4.824   2.593   0.001 -0.3742  0.7580  0.1197
12970TIP3    H160325   4.765   2.662   0.032 -1.1653  0.1898 -0.0879
12970TIP3    H260326   4.908   2.638  -0.012 -0.4587  1.3478  1.4511
12971TIP3   OH260327   4.498   3.509   5.110  0.0457 -0.5439 -0.6020
12971TIP3    H160328   4.482   3.555   5.193 -1.5140 -1.0074 -0.6046
12971TIP3    H260329   4.489   3.577   5.043  2.1147  0.0007 -0.3807
12972TIP3   OH260330   1.953   3.351   1.832 -0.3532 -0.2398  0.4655
12972TIP3    H160331   1.910   3.316   1.910 -0.8248  1.4487  0.9964
12972TIP3    H260332   1.891   3.415   1.797  0.9414  0.8760  0.1613
12973TIP3   OH260333   4.857   1.879   0.206 -0.1054 -0.5313 -0.1612
12973TIP3    H160334   4.793   1.903   0.139  0.4869 -2.4137 -1.4741
12973TIP3    H260335   4.815   1.903   0.289 -0.9275  1.7273 -1.1457
12974TIP3   OH260336   1.556   2.494  13.321  0.2176  0.0056  0.6958
12974TIP3    H160337   1.482   2.552  13.339 -1.0064 -1.1951 -0.3267
12974TIP3    H260338   1.529   2.442  13.247  1.8675 -0.9113  0.6811
12975TIP3   OH260339   0.208   2.777   1.665 -0.1392 -0.6993 -1.1448
12975TIP3    H160340   0.298   2.775   1.633  0.0504 -0.7197 -0.6109
12975TIP3    H260341   0.178   2.686   1.656  0.5679 -1.1324  0.5706
12976TIP3   OH260342   1.956   1.477  14.733 -0.7014  0.5515  0.0718
12976TIP3    H160343   2.049   1.479  14.711 -0.9304  0.9293 -0.9320
12976TIP3    H260344   1.941   1.389  14.767  0.0483  0.5310  0.3509
12977TIP3   OH260345   2.442   0.458   5.517 -0.0169 -0.2843 -0.1085
12977TIP3    H160346   2.477   0.371   5.498  1.3069  0.3049 -0.4363
12977TIP3    H260347   2.470   0.477   5.606  2.9385  1.2861 -1.2568
12978TIP3   OH260348   3.505   5.447   5.170  0.6783  0.6123  0.1282
12978TIP3    H160349   3.503   5.451   5.266  1.8361  0.2173  0.1866
12978TIP3    H260350   3.446   5.374   5.149 -0.0297  1.0706  0.5026
12979TIP3   OH260351   6.086   6.736   4.136 -0.3055  0.2828  0.2944
12979TIP3    H160352   6.178   6.761   4.129 -0.5403  1.3811  0.8466
12979TIP3    H260353   6.054   6.783   4.214 -1.1596 -0.6280  0.5154
12980TIP3   OH260354   4.420   4.125  13.627 -0.3064  0.9459 -0.7631
12980TIP3    H160355   4.489   4.175  13.670 -0.4074 -0.9312  1.8359
12980TIP3    H260356   4.465   4.047  13.594 -0.8230  0.7666 -1.0483
12981TIP3   OH260357   0.892   0.675   0.520  0.7873 -0.3078 -0.0256
12981TIP3    H160358   0.898   0.608   0.588 -0.3135 -1.7796 -1.3178
12981TIP3    H260359   0.952   0.645   0.452 -0.2271 -0.3881 -0.9144
12982TIP3   OH260360   5.153   2.917   4.329  0.2924  0.6319 -0.2008
12982TIP3    H160361   5.146   2.911   4.424  1.0493 -2.6690 -0.2636
12982TIP3    H260362   5.063   2.907   4.298  0.3903 -1.8246  0.1351
12983TIP3   OH260363   0.156   5.990   4.769  0.2850  0.9594 -0.2527
12983TIP3    H160364   0.082   6.043   4.800 -0.4205  1.2251 -2.2628
12983TIP3    H260365   0.133   5.900   4.793  0.8194  1.3452  1.9047
12984TIP3   OH260366   3.478   6.632   5.133 -0.6764 -0.1501 -0.2110
12984TIP3    H160367   3.403   6.577   5.159 -1.7518  1.2315 -0.2824
12984TIP3    H260368   3.461   6.654   5.042  0.4201 -0.7359 -0.5733
12985TIP3   OH260369   3.711   0.244   2.747  0.1705  0.2195  0.2135
12985TIP3    H160370   3.714   0.148   2.748 -1.6117  0.1313  0.5363
12985TIP3    H260371   3.639   0.265   2.687 -0.3416  1.3067  1.1708
12986TIP3   OH260372   6.110   0.813   6.018  0.0623  0.2292 -0.6399
12986TIP3    H160373   6.018   0.838   6.010  0.1613  0.1475 -2.3746
12986TIP3    H260374   6.155   0.894   6.041 -0.4673  0.1792  0.7007
12987TIP3   OH260375   2.821   1.418  13.747 -0.3351 -0.5203  0.1835
12987TIP3    H160376   2.902   1.458  13.778 -2.2795  1.3238  3.3593
12987TIP3    H260377   2.791   1.365  13.821 -1.7118 -1.7246 -1.1739
12988TIP3   OH260378   4.579   0.906  12.169 -0.4545  0.3853 -0.8854
12988TIP3    H160379   4.668   0.886  12.140 -0.9604 -1.2298 -1.4263
12988TIP3    H260380   4.589   0.936  12.259  0.6994  1.0211 -1.1988
12989TIP3   OH260381   3.479   5.442   3.212  0.1102 -0.2821  0.4015
12989TIP3    H160382   3.431   5.369   3.250  1.7643 -2.2466 -1.0682
12989TIP3    H260383   3.455   5.442   3.119 -0.6477  1.7609  0.5359
12990TIP3   OH260384   0.998   0.331   4.806 -0.1171 -0.6704 -0.0100
12990TIP3    H160385   0.953   0.413   4.788  0.6168 -0.2323  0.1013
12990TIP3    H260386   1.060   0.322   4.734  0.1997 -0.8327  0.2812
12991TIP3   OH260387   4.139   2.446  17.117  0.3780 -0.6161 -0.2516
12991TIP3    H160388   4.191   2.395  17.180 -0.2665  0.3780  1.1408
12991TIP3    H260389   4.190   2.527  17.105  0.5417 -0.8379 -1.0967
12992TIP3   OH260390   1.804   3.384   0.341  0.4017  0.0690  0.0753
12992TIP3    H160391   1.820   3.309   0.398 -0.3309 -1.9963 -2.2376
12992TIP3    H260392   1.710   3.384   0.326  0.2248  2.1963  0.8867
12993TIP3   OH260393   2.288   2.335   6.420  0.3763 -0.3852 -0.0986
12993TIP3    H160394   2.383   2.335   6.413  0.5066 -1.8305  1.3323
12993TIP3    H260395   2.263   2.425   6.397  2.0390 -0.0501 -0.7391
12994TIP3   OH260396   2.183   1.370  17.148  0.1256  0.0718  0.1957
12994TIP3    H160397   2.241   1.331  17.083 -0.8109  1.2919 -1.4405
12994TIP3    H260398   2.190   1.312  17.224  2.1341 -0.7602 -0.5585
12995TIP3   OH260399   3.388   4.454  12.901 -0.1243  0.2390 -0.2770
12995TIP3    H160400   3.436   4.372  12.897 -0.2779  0.1817 -1.1438
12995TIP3    H260401   3.309   4.439  12.850 -0.0011  1.0138 -0.7225
12996TIP3   OH260402   3.610   6.699   1.457 -0.2098  0.1211 -0.0053
12996TIP3    H160403   3.561   6.620   1.435  0.8478 -0.8031  0.8425
12996TIP3    H260404   3.699   6.679   1.428 -0.0973  1.3350 -0.5281
12997TIP3   OH260405   4.386   2.346  13.248  0.2259  0.0339 -0.1514
12997TIP3    H160406   4.428   2.330  13.333  0.8991 -0.5145 -0.5735
12997TIP3    H260407   4.327   2.272  13.236 -0.2418  0.3662  0.0528
12998TIP3   OH260408   4.377   5.825   4.542 -0.0632  0.2534  0.3134
12998TIP3    H160409   4.412   5.880   4.471 -0.8336  1.5654  0.9083
12998TIP3    H260410   4.352   5.744   4.498  3.0074 -0.5293 -0.2696
12999TIP3   OH260411   1.967   6.491  12.557  0.4332  0.1492  0.4281
12999TIP3    H160412   1.898   6.548  12.592 -1.1631 -1.3902 -0.0517
12999TIP3    H260413   1.988   6.432  12.629  0.0971 -0.3951  0.0867
13000TIP3   OH260414   1.601   5.488   3.812  0.1282  0.4270  0.3860
13000TIP3    H160415   1.686   5.497   3.855 -0.4680 -1.5490  2.1642
13000TIP3    H260416   1.621   5.457   3.724  1.2788 -1.9994  1.3994
13001TIP3   OH260417   2.470   6.657  11.390 -0.3047  0.6879 -0.2379
13001TIP3    H160418   2.524   6.654  11.311  0.7973  1.7237  0.4259
13001TIP3    H260419   2.515   6.599  11.452 -0.5594  0.7113 -0.0277
13002TIP3   OH260420   3.457   0.802  14.239 -0.3458  0.6541  0.1725
13002TIP3    H160421   3.525   0.848  14.190  0.2675  1.1482  1.4593
13002TIP3    H260422   3.494   0.715  14.255 -1.0481  0.0484 -1.2666
13003TIP3   OH260423   4.308   4.682   0.847  0.0600 -0.4226 -0.7049
13003TIP3    H160424   4.317   4.695   0.752 -0.2843  1.4209 -0.5111
13003TIP3    H260425   4.397   4.683   0.880  0.2254 -1.6507 -1.0467
13004TIP3   OH260426   6.230   0.930   2.496  0.1099 -0.1440  0.1209
13004TIP3    H160427   6.307   0.921   2.440  0.2531 -0.4035  0.3535
13004TIP3    H260428   6.265   0.928   2.585 -0.2354 -1.1237  0.2536
13005TIP3   OH260429   4.910   5.184  13.371  0.0296  0.2985 -0.2524
13005TIP3    H160430   4.984   5.140  13.328  0.5815 -0.2440  1.1907
13005TIP3    H260431   4.891   5.129  13.447 -0.8735  1.2577  0.2339
13006TIP3   OH260432   5.404   4.463  16.032  0.0160 -0.1905 -0.5184
13006TIP3    H160433   5.452   4.509  16.102 -0.2278 -1.2115  0.3521
13006TIP3    H260434   5.336   4.414  16.079 -0.1028 -0.9591 -1.4813
13007TIP3   OH260435   4.101   5.026   1.213  0.2518  0.0308  0.3399
13007TIP3    H160436   4.045   4.949   1.212 -0.2806  0.4236 -0.2701
13007TIP3    H260437   4.157   5.016   1.136  1.6285 -0.7749  1.3726
13008TIP3   OH260438   0.414   6.613   0.830 -0.7468 -0.1911 -0.3668
13008TIP3    H160439   0.375   6.658   0.755 -1.1405 -0.3852 -0.2807
13008TIP3    H260440   0.373   6.654   0.906 -0.3133  0.0379 -0.2513
13009TIP3   OH260441   6.335   6.569   6.259  0.3384  0.2765  1.0705
13009TIP3    H160442   6.313   6.476   6.266  0.1069  0.2889  0.5502
13009TIP3    H260443   6.371   6.592   6.345  3.5940 -1.1256  0.2420
13010TIP3   OH260444   3.338   1.772   0.209 -0.2382  0.1176  0.1793
13010TIP3    H160445   3.288   1.716   0.150 -0.9036 -0.0228  0.8527
13010TIP3    H260446   3.317   1.739   0.297  3.6931 -2.2233  0.4918
13011TIP3   OH260447   1.620   5.658   5.345 -0.5988 -0.4716 -0.1947
13011TIP3    H160448   1.682   5.599   5.303  0.0632  1.1391 -1.6092
13011TIP3    H260449   1.640   5.744   5.308 -2.7529  0.3388  0.3658
13012TIP3   OH260450   0.299   5.652  14.165  0.3575  0.3253 -0.4760
13012TIP3    H160451   0.236   5.681  14.099  1.6761  1.3041 -1.3477
13012TIP3    H260452   0.327   5.566  14.134  0.7168  0.6333 -1.0289
13013TIP3   OH260453   6.464   5.808   6.288  0.2957 -0.4083 -0.1240
13013TIP3    H160454   6.432   5.718   6.281 -3.8416  0.8268  0.4013
13013TIP3    H260455   6.553   5.799   6.323  0.2294 -4.2437 -0.5057
13014TIP3   OH260456   4.404   4.251   0.126 -0.3534 -0.0038  0.2580
13014TIP3    H160457   4.328   4.196   0.103 -0.5610 -0.2157  1.3864
13014TIP3    H260458   4.472   4.223   0.065 -1.0068 -0.2120 -0.4043
13015TIP3   OH260459   5.696   4.685   3.020  0.1007  0.6415  0.4329
13015TIP3    H160460   5.672   4.745   2.950 -0.5581  0.4539  0.4937
13015TIP3    H260461   5.614   4.642   3.044  0.7380 -1.1411 -0.4136
13016TIP3   OH260462   5.853   3.373  13.925 -0.6732 -0.0091  0.4320
13016TIP3    H160463   5.863   3.468  13.922 -1.4246  0.0771  0.6526
13016TIP3    H260464   5.810   3.351  13.843  0.3591 -0.2773 -0.0604
13017TIP3   OH260465   0.052   4.494   1.505 -0.0154 -0.5434 -0.0336
13017TIP3    H160466   0.008   4.428   1.559  0.1845  0.8882  2.0235
13017TIP3    H260467   0.119   4.531   1.563 -0.4870  1.8520 -0.9018
13018TIP3   OH260468   4.790   5.527  15.664 -0.5852  0.8787 -0.6673
13018TIP3    H160469   4.778   5.600  15.724  0.3881  0.8839 -0.4602
13018TIP3    H260470   4.884   5.511  15.665 -0.8801 -1.0999  0.1584
13019TIP3   OH260471   1.842   3.715  15.786 -0.4160  0.7437 -0.2537
13019TIP3    H160472   1.813   3.793  15.740 -0.5859  0.3154 -0.8763
13019TIP3    H260473   1.890   3.749  15.862  0.4935  1.4515 -1.1251
13020TIP3   OH260474   0.654   2.081  15.557 -0.3240 -0.3762  0.3536
13020TIP3    H160475   0.668   1.987  15.568 -1.2382 -0.5830 -0.1900
13020TIP3    H260476   0.650   2.094  15.463  4.0604  0.8918  0.1237
13021TIP3   OH260477   3.556   3.256  15.590  0.0036  0.3117  0.6458
13021TIP3    H160478   3.465   3.228  15.601  0.3203 -1.4732 -0.7132
13021TIP3    H260479   3.551   3.327  15.525 -0.3433 -0.4048 -0.1181
13022TIP3   OH260480   1.168   2.948   4.425  0.1881 -0.2154  0.4316
13022TIP3    H160481   1.264   2.951   4.426  0.2745 -1.8030 -0.5228
13022TIP3    H260482   1.145   2.881   4.489 -0.3288  0.4969  1.0133
13023TIP3   OH260483   6.755   3.355  13.369 -0.1506  0.1604  0.9068
13023TIP3    H160484   6.850   3.354  13.383 -0.2714  0.9524  1.9390
13023TIP3    H260485   6.734   3.447  13.354 -0.5684 -0.1895 -0.9131
13024TIP3   OH260486   6.617   5.104  16.467  0.1266 -0.3387 -0.1824
13024TIP3    H160487   6.660   5.028  16.508  0.2703 -0.2535 -0.1725
13024TIP3    H260488   6.674   5.178  16.490 -0.6596 -0.0354  0.8462
13025TIP3   OH260489   5.514   0.014   3.365  0.5581 -0.3856 -0.2149
13025TIP3    H160490   5.467   0.016   3.449 -1.2375 -1.6993 -1.1324
13025TIP3    H260491   5.471  -0.055   3.315  2.0193 -0.0718 -1.9945
13026TIP3   OH260492   1.283   0.107   2.389  0.2235  0.0205  0.5831
13026TIP3    H160493   1.268   0.039   2.454 -1.9721 -0.7056 -0.5718
13026TIP3    H260494   1.215   0.173   2.406  0.9551  0.8692  0.3270
13027TIP3   OH260495   2.908   0.205   1.929  0.6799 -0.3758  0.7652
13027TIP3    H160496   2.961   0.285   1.935 -0.8817  0.8698 -0.9423
13027TIP3    H260497   2.851   0.208   2.006  0.6552  0.1326  0.7304
13028TIP3   OH260498   3.423   1.564  15.670  0.4074  0.7025  0.0577
13028TIP3    H160499   3.499   1.600  15.626 -0.5866 -0.4141 -2.7769
13028TIP3    H260500   3.454   1.544  15.758  3.4181  0.1619 -1.0167
13029TIP3   OH260501   5.399   6.030  13.267  0.5402 -0.4875 -0.3130
13029TIP3    H160502   5.412   6.008  13.359  0.8000  0.5468 -0.0868
13029TIP3    H260503   5.442   6.115  13.256 -0.2661 -0.1697 -1.1732
13030TIP3   OH260504   0.300   2.438  12.706  0.6314 -0.1965 -0.2260
13030TIP3    H160505   0.384   2.472  12.674  0.5328  0.0709 -0.2099
13030TIP3    H260506   0.235   2.476  12.646  0.5243 -0.4180 -0.2503
13031TIP3   OH260507   3.902   4.425   1.034 -0.8748  0.3497  0.0696
13031TIP3    H160508   3.988   4.384   1.037 -0.0117  2.1224  0.4612
13031TIP3    H260509   3.848   4.372   1.093  0.1886 -0.2189  0.5598
13032TIP3   OH260510   3.360   2.644   1.639  0.0046  0.0548 -0.1701
13032TIP3    H160511   3.351   2.573   1.703 -1.8928  1.0450  0.7388
13032TIP3    H260512   3.453   2.645   1.618  0.4701 -1.1563  1.5809
13033TIP3   OH260513   4.690   2.249   3.228 -0.6190 -0.1192  0.2934
13033TIP3    H160514   4.629   2.309   3.270 -0.9004 -1.4503  1.8611
13033TIP3    H260515   4.770   2.254   3.281 -1.0596 -1.9903  1.2002
13034TIP3   OH260516   4.808   4.803   5.601  0.5610 -0.2839  0.1061
13034TIP3    H160517   4.770   4.724   5.563  0.1253  0.3539 -0.8385
13034TIP3    H260518   4.747   4.828   5.670 -0.7915  0.7106 -1.3701
13035TIP3   OH260519   6.689   5.209   2.553  0.0869 -0.6901 -0.1960
13035TIP3    H160520   6.702   5.288   2.605  1.1385 -0.2716 -1.0543
13035TIP3    H260521   6.594   5.197   2.550 -0.0992  0.6635 -0.2367
13036TIP3   OH260522   0.246   1.780   6.156 -0.0067 -0.0856  0.4061
13036TIP3    H160523   0.225   1.694   6.193 -0.3326  0.1037  0.6606
13036TIP3    H260524   0.225   1.842   6.226 -0.4604  0.2617 -0.0321
13037TIP3   OH260525   2.434   0.514   4.662 -0.2513 -0.2951 -0.2924
13037TIP3    H160526   2.450   0.420   4.672 -2.2802 -0.5583  1.0452
13037TIP3    H260527   2.400   0.542   4.747  1.3699  1.9327 -0.2644
13038TIP3   OH260528   3.765   4.378   3.696 -0.1973 -0.6669 -0.3826
13038TIP3    H160529   3.749   4.330   3.614  0.5459  0.1873 -1.0443
13038TIP3    H260530   3.856   4.358   3.718  0.1840  0.5545 -0.7670
13039TIP3   OH260531   4.802   4.495  13.557 -0.0355 -0.0085 -0.4126
13039TIP3    H160532   4.739   4.424  13.573 -1.2743  1.2306  0.3959
13039TIP3    H260533   4.774   4.534  13.475  0.3220 -0.1146 -0.5869
13040TIP3   OH260534   4.064   1.321   4.797  0.4048 -0.3899 -0.5286
13040TIP3    H160535   4.148   1.316   4.842 -0.4555 -1.0819  1.0551
13040TIP3    H260536   4.077   1.269   4.717 -0.0569 -5.5904  2.3492
13041TIP3   OH260537   3.981   4.039  12.336 -0.4023 -0.2804  0.2993
13041TIP3    H160538   4.037   3.985  12.280 -0.7923 -1.9624  1.4420
13041TIP3    H260539   3.992   4.001  12.424 -3.1209 -0.5455  0.6216
13042TIP3   OH260540   2.390   2.889  13.305  0.2816  0.1286  0.2808
13042TIP3    H160541   2.481   2.879  13.333 -0.4892 -1.1546  2.6585
13042TIP3    H260542   2.361   2.800  13.285 -0.8692  0.2645  1.1599
13043TIP3   OH260543   1.580   3.185  10.671  0.1099  0.8623 -0.1956
13043TIP3    H160544   1.568   3.098  10.632  0.5526  1.4330 -1.6578
13043TIP3    H260545   1.674   3.190  10.689 -0.0221  0.7808  0.5606
13044TIP3   OH260546   2.270   3.264   2.955  0.6414 -0.6032 -0.3705
13044TIP3    H160547   2.212   3.339   2.948  2.7844  1.0838 -1.3172
13044TIP3    H260548   2.252   3.227   3.042 -0.3380  1.1125  0.1940
13045TIP3   OH260549   3.132   2.441   4.093 -0.1576  0.1137 -0.1025
13045TIP3    H160550   3.172   2.360   4.061 -1.9139 -1.9690  2.5230
13045TIP3    H260551   3.088   2.477   4.016 -1.0771 -2.6127 -0.9888
13046TIP3   OH260552   5.324   3.787  13.065  0.3785  0.3888  0.2512
13046TIP3    H160553   5.312   3.881  13.077  0.4547  0.4586 -0.1987
13046TIP3    H260554   5.418   3.776  13.049  0.0871  0.5181 -1.9816
13047TIP3   OH260555   3.848   3.068  10.516  0.0385  0.4113 -0.2025
13047TIP3    H160556   3.801   3.008  10.574  1.1376 -0.1300  0.1588
13047TIP3    H260557   3.805   3.152  10.527 -1.6114 -0.3128 -0.7896
13048TIP3   OH260558   4.406   4.329   6.006 -0.1554 -0.3217 -0.2518
13048TIP3    H160559   4.462   4.395   5.965 -1.0659 -0.0077 -1.0279
13048TIP3    H260560   4.430   4.332   6.099 -0.8827  1.8395 -0.0836
13049TIP3   OH260561   0.081   6.545   3.409  0.1161 -0.1851  0.7071
13049TIP3    H160562   0.161   6.578   3.367 -0.5973  1.9501  0.9242
13049TIP3    H260563   0.090   6.571   3.500 -0.3740 -0.8382  0.9420
13050TIP3   OH260564   6.223   3.335  13.029 -0.1300  0.0627 -0.9789
13050TIP3    H160565   6.317   3.350  13.026 -0.1419  0.9263  1.0418
13050TIP3    H260566   6.188   3.414  13.071 -1.7719 -0.2085 -1.7593
13051TIP3   OH260567   4.053   6.729  16.996 -0.2941 -0.0147 -0.2599
13051TIP3    H160568   3.980   6.667  17.002 -0.1369 -0.1051  0.8808
13051TIP3    H260569   4.039   6.773  16.912 -0.2139 -1.8093 -1.2646
13052TIP3   OH260570   0.808   3.338   4.114  0.5970  0.3963 -0.0381
13052TIP3    H160571   0.820   3.255   4.067 -2.0253 -0.6385  0.9783
13052TIP3    H260572   0.808   3.314   4.207 -2.9964  0.9610  0.2587
13053TIP3   OH260573   3.563   5.011  11.449  0.0801  0.3349  0.6778
13053TIP3    H160574   3.606   5.078  11.395 -1.2285  0.0822 -0.7605
13053TIP3    H260575   3.580   4.929  11.403  1.8074 -0.4103  2.5121
13054TIP3   OH260576   3.852   5.342  10.725  0.2198 -0.1617 -0.2703
13054TIP3    H160577   3.857   5.332  10.630  0.7227  1.5507 -0.4572
13054TIP3    H260578   3.892   5.262  10.759  0.1105 -0.7669 -1.5014
13055TIP3   OH260579   6.024   3.998  16.556  0.8397 -0.5144 -0.6609
13055TIP3    H160580   5.961   3.937  16.593  2.9746 -1.8561  0.9718
13055TIP3    H260581   6.076   4.028  16.630  1.7271  1.0466 -1.8401
13056TIP3   OH260582   4.410   0.033   2.573  0.4223  0.7106 -0.3186
13056TIP3    H160583   4.367  -0.040   2.619  2.2740  0.0356  0.4504
13056TIP3    H260584   4.430  -0.002   2.486  1.4514  0.1832  0.1001
13057TIP3   OH260585   1.573   3.790  13.039 -1.1464  0.1949 -0.1990
13057TIP3    H160586   1.629   3.847  12.985 -1.4495  0.3484 -0.3525
13057TIP3    H260587   1.562   3.838  13.121 -1.4919  0.4151 -0.3682
13058TIP3   OH260588   5.911   4.202   6.442 -0.6156 -0.5821  0.1237
13058TIP3    H160589   5.985   4.211   6.503 -0.4134  0.9866 -0.2970
13058TIP3    H260590   5.838   4.242   6.489 -1.0269 -1.4472  0.2343
13059TIP3   OH260591   5.876   4.319   3.255  0.3849  0.5728 -0.3148
13059TIP3    H160592   5.846   4.357   3.338 -0.1588 -2.3546  0.9409
13059TIP3    H260593   5.800   4.323   3.198 -1.0571 -2.1859  1.1885
13060TIP3   OH260594   6.486   4.253  15.739 -1.0233 -0.0201  0.9733
13060TIP3    H160595   6.528   4.238  15.654 -0.2316 -1.1039  1.5161
13060TIP3    H260596   6.392   4.253  15.720 -0.8965 -1.1283  0.2070
13061TIP3   OH260597   1.479   5.396   3.073 -0.5107  0.1210 -0.1721
13061TIP3    H160598   1.465   5.375   2.981 -1.1303  0.4045 -0.1456
13061TIP3    H260599   1.531   5.323   3.106 -2.3975 -1.2825 -0.1531
13062TIP3   OH260600   3.614   4.290  10.490  0.1800 -0.2219 -0.0164
13062TIP3    H160601   3.582   4.296  10.580 -0.7005 -0.2150 -0.3176
13062TIP3    H260602   3.594   4.200  10.463  1.1311 -0.4663  0.0338
13063TIP3   OH260603   6.105   4.260  12.546  0.0927  0.5640 -0.0980
13063TIP3    H160604   6.099   4.171  12.580  1.1068  0.0013 -1.3235
13063TIP3    H260605   6.043   4.262  12.474  0.3162  0.7406 -0.2868
13064TIP3   OH260606   2.528   6.380   3.576  0.0327 -0.2791  0.0351
13064TIP3    H160607   2.612   6.381   3.532 -0.0879 -1.1637 -0.2381
13064TIP3    H260608   2.532   6.452   3.638  0.5356  0.4342 -0.8074
13065TIP3   OH260609   4.270   2.776   5.967  0.0578  1.0831  0.5196
13065TIP3    H160610   4.213   2.845   5.933 -2.5525 -0.7971  0.7551
13065TIP3    H260611   4.236   2.758   6.055 -1.6006 -2.6068 -0.6708
13066TIP3   OH260612   2.766   5.718  14.615  0.5888  0.2416  0.0805
13066TIP3    H160613   2.820   5.738  14.692  0.9979  1.9875 -0.6283
13066TIP3    H260614   2.827   5.716  14.542  0.1467 -1.0549 -0.2842
13067TIP3   OH260615   0.991   0.860  15.879  0.2945 -0.0774  0.3453
13067TIP3    H160616   0.978   0.915  15.957  2.2508 -1.4558  1.7445
13067TIP3    H260617   1.075   0.817  15.894  0.0775 -1.4483 -1.9236
13068TIP3   OH260618   3.562   5.250  12.494  0.2460  0.5348  0.4202
13068TIP3    H160619   3.636   5.259  12.554 -1.0424 -2.5536  2.7599
13068TIP3    H260620   3.580   5.169  12.446 -0.8438  0.5974 -0.1206
13069TIP3   OH260621   4.218   5.847   4.006  0.0834  0.1773  0.1240
13069TIP3    H160622   4.305   5.808   4.007 -1.0982 -2.6735 -0.0213
13069TIP3    H260623   4.219   5.905   3.929  1.0017 -2.0812 -1.6837
13070TIP3   OH260624   1.829   2.953  14.828  0.3594 -0.0083  0.3466
13070TIP3    H160625   1.821   2.890  14.900 -0.2083 -0.9678 -0.5227
13070TIP3    H260626   1.906   3.006  14.851  1.7897 -1.9842  0.3957
13071TIP3   OH260627   1.540   1.451  12.559  0.2960  0.5631  0.8607
13071TIP3    H160628   1.504   1.528  12.602 -0.3667  1.3746 -1.0591
13071TIP3    H260629   1.634   1.456  12.575 -0.1057 -0.5170  4.2435
13072TIP3   OH260630   1.652   1.558  13.104  0.0956 -0.0460 -0.0757
13072TIP3    H160631   1.607   1.500  13.166 -0.3607 -0.5865 -0.8894
13072TIP3    H260632   1.708   1.614  13.158 -0.6144 -0.2229  0.8494
13073TIP3   OH260633   4.818   1.703   1.254  0.1870 -0.1489 -0.3769
13073TIP3    H160634   4.746   1.640   1.249 -0.4442  0.5825 -0.7737
13073TIP3    H260635   4.807   1.746   1.339 -0.0180  0.1524 -0.5517
13074TIP3   OH260636   6.195   1.447   5.303  0.6965 -0.3901  0.0322
13074TIP3    H160637   6.180   1.372   5.361 -0.0033 -2.2114 -2.3031
13074TIP3    H260638   6.281   1.431   5.265 -0.1331 -1.0012 -1.7225
13075TIP3   OH260639   5.980   3.337  15.359 -0.3167  0.2556 -0.3850
13075TIP3    H160640   6.026   3.295  15.432  0.0088  3.2378  1.2608
13075TIP3    H260641   5.888   3.310  15.371 -0.4818  1.5755  1.8969
13076TIP3   OH260642   5.616   4.360  16.504  0.3146 -0.3141  0.1246
13076TIP3    H160643   5.697   4.309  16.494 -0.7988 -2.7381  2.2667
13076TIP3    H260644   5.643   4.437  16.555  1.0652 -2.0703  2.5908
13077TIP3   OH260645   2.852   4.365  16.146  0.1416  0.5560  0.5759
13077TIP3    H160646   2.790   4.434  16.171 -0.0708  0.2583  0.8893
13077TIP3    H260647   2.870   4.319  16.228 -0.2739 -0.2122  0.2479
13078TIP3   OH260648   6.168   1.398   0.500 -0.4770  0.5219  0.2692
13078TIP3    H160649   6.141   1.453   0.426 -1.6938 -0.2633  0.1102
13078TIP3    H260650   6.087   1.374   0.544 -0.0308 -1.5214  0.0696
13079TIP3   OH260651   4.444   1.796   2.117  0.4513  0.2259 -0.2221
13079TIP3    H160652   4.505   1.809   2.044  1.9047  1.2070  1.1143
13079TIP3    H260653   4.408   1.884   2.133  1.5076  0.4200  1.3474
13080TIP3   OH260654   5.241   6.697  16.870 -0.4296 -0.0829  0.4289
13080TIP3    H160655   5.253   6.753  16.946 -1.3059  0.6095  0.0714
13080TIP3    H260656   5.174   6.634  16.897  0.9250 -1.3171  1.0084
13081TIP3   OH260657   4.417   6.445   0.790  0.0354 -0.8202  0.1825
13081TIP3    H160658   4.441   6.362   0.747 -0.9353  0.1440 -2.4610
13081TIP3    H260659   4.499   6.478   0.827  0.5664 -2.6008  0.6790
13082TIP3   OH260660   4.245   3.469  15.343 -0.0712  0.2357  0.5240
13082TIP3    H160661   4.157   3.498  15.364 -0.5193  0.6585 -1.7625
13082TIP3    H260662   4.260   3.498  15.253  2.4560  0.3018  0.8966
13083TIP3   OH260663   3.434   5.261  14.166  0.1481  0.0886 -0.3773
13083TIP3    H160664   3.461   5.175  14.197 -0.8516  0.3343  1.3320
13083TIP3    H260665   3.338   5.260  14.172  0.1697  1.7629  1.0200
13084TIP3   OH260666   1.808   0.268   5.401 -0.4698  0.0374  0.0570
13084TIP3    H160667   1.849   0.221   5.474  0.0695  0.4140 -0.0003
13084TIP3    H260668   1.743   0.325   5.443 -0.1104  0.3067  0.2525
13085TIP3   OH260669   1.040   5.709  13.893 -0.5972  0.6521  0.4096
13085TIP3    H160670   1.130   5.713  13.862 -0.1728  0.5964  1.5774
13085TIP3    H260671   1.042   5.755  13.977 -1.2947 -0.8074  1.2659
13086TIP3   OH260672   2.134   6.526   2.941  0.3488 -0.4456 -0.0130
13086TIP3    H160673   2.171   6.439   2.954  3.1655  0.2133 -2.3653
13086TIP3    H260674   2.202   6.585   2.973 -0.2823  0.8721 -0.9887
13087TIP3   OH260675   5.287   1.623   3.863 -0.6913  0.1346 -0.2449
13087TIP3    H160676   5.373   1.662   3.849 -1.0481  1.2148  0.4940
13087TIP3    H260677   5.267   1.579   3.780  0.4549  0.0730 -0.5050
13088TIP3   OH260678   4.818   5.900   1.407  0.0091 -0.1443  1.0615
13088TIP3    H160679   4.778   5.816   1.382 -1.1262  0.7675 -0.3716
13088TIP3    H260680   4.788   5.961   1.340  0.6516  1.4674  2.1917
13089TIP3   OH260681   3.867   0.917   6.270 -0.4902  0.2548 -0.1258
13089TIP3    H160682   3.780   0.893   6.236 -1.1033  1.6152  0.3918
13089TIP3    H260683   3.875   0.867   6.352 -1.2357  0.8599  0.3358
13090TIP3   OH260684   0.812   4.709   2.698 -0.0824 -0.3180 -0.2096
13090TIP3    H160685   0.815   4.651   2.622 -0.4397  0.3291 -0.7351
13090TIP3    H260686   0.826   4.797   2.662  0.9595 -0.1210  0.6335
13091TIP3   OH260687   1.574   4.338  10.519 -0.2840 -0.0851 -0.1842
13091TIP3    H160688   1.644   4.299  10.468 -0.3660  0.8885 -1.0561
13091TIP3    H260689   1.493   4.305  10.479 -0.3785 -1.5722  1.0962
13092TIP3   OH260690   5.634   1.918  14.523  0.1555 -0.0578  0.0083
13092TIP3    H160691   5.683   1.848  14.478  1.9331  0.9546  0.2506
13092TIP3    H260692   5.670   1.999  14.487 -0.9672  0.7453  0.6482
13093TIP3   OH260693   1.676   2.037   0.068  0.2413 -0.0177  0.0021
13093TIP3    H160694   1.587   2.003   0.055 -0.0771  0.3925  1.0496
13093TIP3    H260695   1.717   2.029  -0.019 -0.9787  0.2775 -0.6299
13094TIP3   OH260696   5.780   6.746  14.921  0.3998 -0.3966  0.4024
13094TIP3    H160697   5.693   6.705  14.927 -0.0591 -0.1234 -2.7202
13094TIP3    H260698   5.842   6.675  14.937 -0.3798 -0.9274  1.1596
13095TIP3   OH260699   6.742   1.853   5.226 -0.1511  0.3290 -0.1260
13095TIP3    H160700   6.747   1.857   5.130  0.9487 -0.7254 -0.1301
13095TIP3    H260701   6.764   1.942   5.255 -0.3798  0.6278 -0.8359
13096TIP3   OH260702   6.223   6.521  11.809 -0.0613  0.1660  0.0465
13096TIP3    H160703   6.155   6.557  11.753  0.4630  1.1750  0.0327
13096TIP3    H260704   6.199   6.429  11.820 -1.6182  0.5648  0.3244
13097TIP3   OH260705   2.976   1.868  13.076 -0.0467  0.0829  0.5682
13097TIP3    H160706   2.964   1.831  12.988 -0.0751  0.7338  0.2881
13097TIP3    H260707   2.957   1.796  13.135 -0.7577 -0.1748  0.0471
13098TIP3   OH260708   5.970   6.314   4.272 -0.3229  0.1428  0.3042
13098TIP3    H160709   5.939   6.353   4.190 -0.6358  1.3741  0.9966
13098TIP3    H260710   5.890   6.284   4.316 -0.1923 -0.0810  0.3939
13099TIP3   OH260711   3.121   5.891  12.597  0.7455  0.3596  0.0377
13099TIP3    H160712   3.163   5.805  12.585  0.6761  0.1801  0.9872
13099TIP3    H260713   3.081   5.886  12.684 -0.0300  1.0423 -0.2639
13100TIP3   OH260714   3.115   2.515  15.138 -0.0000 -0.8500  0.5432
13100TIP3    H160715   3.126   2.587  15.077 -0.7661 -0.9405  0.2927
13100TIP3    H260716   3.033   2.473  15.112 -0.0991 -1.1718  1.3374
13101TIP3   OH260717   6.777   6.314   3.676  0.4153  0.3462 -0.6999
13101TIP3    H160718   6.700   6.296   3.729  0.2482  1.9568 -0.3448
13101TIP3    H260719   6.799   6.406   3.695  1.1375  0.5716 -2.4069
13102TIP3   OH260720   2.072   0.529   4.869 -0.3797  0.5618  0.1960
13102TIP3    H160721   1.978   0.547   4.859 -1.0118 -1.4207  1.8866
13102TIP3    H260722   2.110   0.613   4.893 -1.1957  2.0519 -3.1105
13103TIP3   OH260723   3.513   5.861  11.897  0.0046  0.3668 -0.1095
13103TIP3    H160724   3.474   5.783  11.857 -1.0242 -0.2988  2.0461
13103TIP3    H260725   3.556   5.829  11.976  0.6578  1.8289  0.1640
13104TIP3   OH260726   2.303   5.984  12.453  0.2631 -0.3137 -0.5846
13104TIP3    H160727   2.261   5.933  12.522 -0.4697  1.7468  0.5664
13104TIP3    H260728   2.231   6.020  12.402  0.7611 -0.2328 -1.2447
13105TIP3   OH260729   3.545   1.928  15.754 -0.6489 -0.3650 -0.4340
13105TIP3    H160730   3.550   1.881  15.837 -0.2831  1.4673  0.6417
13105TIP3    H260731   3.572   1.864  15.688 -1.6759 -2.0820  0.7517
13106TIP3   OH260732   4.693   1.552   0.726  0.0712 -0.1043 -0.3865
13106TIP3    H160733   4.743   1.549   0.808 -0.9312  0.2020  0.2527
13106TIP3    H260734   4.725   1.476   0.677  1.7568  0.5368 -0.3699
13107TIP3   OH260735   1.246   3.833  16.473  0.6112 -0.7661  0.6627
13107TIP3    H160736   1.152   3.854  16.469  0.5067 -1.0071  1.5824
13107TIP3    H260737   1.286   3.912  16.509  0.6323 -0.9746  1.1135
13108TIP3   OH260738   2.672   5.783   4.143 -0.4920  0.8082  0.0822
13108TIP3    H160739   2.665   5.877   4.125 -3.1358  0.8003  0.6279
13108TIP3    H260740   2.652   5.742   4.059  0.3467  0.6999 -0.0766
13109TIP3   OH260741   3.767   3.579  13.430 -0.0394  0.3495  0.5678
13109TIP3    H160742   3.761   3.578  13.335 -0.6984  1.1521  0.5942
13109TIP3    H260743   3.689   3.531  13.459 -0.0859  0.5094  0.7094
13110TIP3   OH260744   3.063   4.284   5.584  0.2426  0.2745 -0.0977
13110TIP3    H160745   3.085   4.362   5.634  1.3719  1.7035 -2.6368
13110TIP3    H260746   3.046   4.316   5.495 -2.5224 -1.9999 -0.5645
13111TIP3   OH260747   5.214   4.866   0.133 -0.0453  0.0157 -0.1988
13111TIP3    H160748   5.128   4.901   0.112 -0.0191 -0.3582 -0.9502
13111TIP3    H260749   5.232   4.803   0.064  1.1883  0.6952 -0.5330
13112TIP3   OH260750   4.272   3.212  11.176  0.2481  0.1591  0.0681
13112TIP3    H160751   4.347   3.271  11.165  3.5948 -3.1939  2.4963
13112TIP3    H260752   4.238   3.200  11.087  2.6691  1.7447 -1.1901
13113TIP3   OH260753   3.962   4.942   0.006 -0.3735  0.2378  0.2808
13113TIP3    H160754   4.021   4.981  -0.058 -1.0659  1.3401  0.2860
13113TIP3    H260755   3.919   4.870  -0.041 -0.2311  0.4717 -0.2133
13114TIP3   OH260756   2.676   6.024  14.780 -0.7700  0.1473  0.9012
13114TIP3    H160757   2.735   6.029  14.705 -0.1715  0.0724  1.3565
13114TIP3    H260758   2.588   6.033  14.743 -0.3824  2.5494  0.4265
13115TIP3   OH260759   0.096   2.799  12.168 -0.3142 -0.8141 -0.4473
13115TIP3    H160760   0.161   2.747  12.120  0.1218 -1.8826  1.2436
13115TIP3    H260761   0.043   2.735  12.214 -0.2954  0.1942  1.0302
13116TIP3   OH260762   2.924   4.609   4.181  0.1750  0.3187 -0.7888
13116TIP3    H160763   2.942   4.702   4.178  2.3485  0.0348  1.0431
13116TIP3    H260764   3.008   4.567   4.165 -0.3479 -1.2690  0.2920
13117TIP3   OH260765   4.617   5.955  11.517  0.1821  0.0973  0.1737
13117TIP3    H160766   4.564   6.032  11.496  0.8293  0.1709 -1.3293
13117TIP3    H260767   4.603   5.940  11.610 -0.6244  1.5214  0.2995
13118TIP3   OH260768   0.673   5.230   0.656 -0.0411 -0.3288  0.1361
13118TIP3    H160769   0.672   5.326   0.647  0.0385 -0.2838  0.5699
13118TIP3    H260770   0.601   5.211   0.716  0.0650 -0.5222  0.2019
13119TIP3   OH260771   2.860   6.774  11.435  0.4472  0.1756 -0.6924
13119TIP3    H160772   2.846   6.763  11.529  0.5755  0.6070 -0.6203
13119TIP3    H260773   2.930   6.839  11.429 -0.6633  1.3805 -1.1001
13120TIP3   OH260774   2.540   2.018   1.149  0.4402 -0.3469 -0.0197
13120TIP3    H160775   2.475   1.985   1.210 -0.2460  1.5697  0.3649
13120TIP3    H260776   2.491   2.075   1.090  1.3389 -0.9998 -1.4724
13121TIP3   OH260777   1.962   4.498   4.949 -0.5262 -0.2903 -0.7258
13121TIP3    H160778   1.875   4.484   4.987  0.1814 -0.3487  0.9979
13121TIP3    H260779   2.011   4.419   4.973  0.8603  1.0107  1.0711
13122TIP3   OH260780   1.923   4.280   3.166  0.1830 -0.2709 -0.0220
13122TIP3    H160781   1.882   4.303   3.083  0.8488  0.0378 -0.2688
13122TIP3    H260782   1.851   4.281   3.229 -0.1858  0.2915 -0.4386
13123TIP3   OH260783   5.831   0.192  14.223  0.4401 -0.1042 -0.4639
13123TIP3    H160784   5.917   0.190  14.267  0.9279  0.1716 -1.3826
13123TIP3    H260785   5.846   0.244  14.144 -0.3254 -0.8884 -1.1437
13124TIP3   OH260786   1.949   1.717  15.899  0.3315  0.0436  0.0935
13124TIP3    H160787   2.030   1.742  15.854 -0.5651  4.1393  0.3418
13124TIP3    H260788   1.891   1.687  15.829  0.9564  0.4686 -0.6221
13125TIP3   OH260789   3.355   6.130   2.837 -0.1704  0.1022 -0.2915
13125TIP3    H160790   3.433   6.164   2.792 -1.6711  1.8379 -1.7833
13125TIP3    H260791   3.331   6.052   2.789  1.6224 -1.5507  1.3266
13126TIP3   OH260792   5.982   5.599  13.823  0.2717  0.2492  0.0429
13126TIP3    H160793   6.040   5.665  13.784  1.9063 -1.0131  0.1960
13126TIP3    H260794   5.910   5.649  13.861  0.8930  1.8447 -0.7861
13127TIP3   OH260795   4.024   3.807  13.245  0.3671  0.4909  0.1827
13127TIP3    H160796   4.044   3.856  13.165 -0.3227 -0.0571 -0.3499
13127TIP3    H260797   4.107   3.767  13.270  1.2945  3.0064  1.4434
13128TIP3   OH260798   5.547   5.627   0.476  0.3762  0.5728 -0.3406
13128TIP3    H160799   5.554   5.723   0.480  0.0410  0.6260 -0.8695
13128TIP3    H260800   5.616   5.595   0.534  0.9370  1.1354 -0.6891
13129TIP3   OH260801   6.616   4.249  17.163 -0.2963 -0.3034 -0.2415
13129TIP3    H160802   6.577   4.334  17.141 -1.5825 -0.4130  1.4003
13129TIP3    H260803   6.705   4.269  17.192 -0.7545  0.5575  0.6005
13130TIP3   OH260804   5.911   3.372  13.129 -0.3113 -0.3062 -0.6531
13130TIP3    H160805   5.970   3.381  13.054  0.5230 -0.4067 -0.0113
13130TIP3    H260806   5.854   3.449  13.124  0.3302  0.1549 -0.8765
13131TIP3   OH260807   1.579   6.130   6.033 -0.1133  0.7357 -0.2681
13131TIP3    H160808   1.599   6.215   6.071 -0.7798  1.1711 -0.8673
13131TIP3    H260809   1.486   6.136   6.008 -0.4152 -0.4559  0.4639
13132TIP3   OH260810   5.128   2.841   4.635  0.1515  0.1356 -0.3167
13132TIP3    H160811   5.148   2.934   4.640  0.8607  0.2249 -2.9707
13132TIP3    H260812   5.032   2.837   4.633  0.1107  0.7668  0.0591
13133TIP3   OH260813   6.050   4.387  12.209 -0.5181 -0.0870  0.2672
13133TIP3    H160814   6.039   4.296  12.184  0.7218 -0.2589  0.3069
13133TIP3    H260815   6.143   4.396  12.231 -0.6768  1.1084  0.5620
13134TIP3   OH260816   3.478   6.180  16.381  0.0929  0.3595  0.0269
13134TIP3    H160817   3.452   6.195  16.472 -2.6192 -3.1386  0.0638
13134TIP3    H260818   3.486   6.268  16.344 -0.5477  1.9045  3.1535
13135TIP3   OH260819   2.164   5.718   1.087 -0.2951 -0.3408  0.3648
13135TIP3    H160820   2.141   5.798   1.135 -0.9627 -0.4545  0.2411
13135TIP3    H260821   2.168   5.744   0.996  0.8626 -0.1517  0.4528
13136TIP3   OH260822   0.085   3.724  16.519 -0.2977  0.1401  0.3356
13136TIP3    H160823   0.039   3.653  16.475  1.3330 -0.8642  0.1486
13136TIP3    H260824   0.103   3.787  16.449 -1.5639  0.6528  0.4592
13137TIP3   OH260825   4.516   2.473   1.663  0.3479  0.3756  0.0545
13137TIP3    H160826   4.534   2.434   1.748 -0.2269 -0.8543 -0.3623
13137TIP3    H260827   4.528   2.567   1.676  1.8152  0.0723  1.0848
13138TIP3   OH260828   5.761   5.833   0.068  0.0670 -0.2421 -0.7166
13138TIP3    H160829   5.695   5.764   0.058 -0.3108  0.1383 -0.8806
13138TIP3    H260830   5.844   5.786   0.077 -0.2153 -0.7245 -0.5880
13139TIP3   OH260831   2.739   3.342   6.008 -0.4189  0.1227 -0.1111
13139TIP3    H160832   2.650   3.371   6.030 -0.1104  0.8315  0.2303
13139TIP3    H260833   2.732   3.246   6.004 -0.9752  0.1006  0.9399
13140TIP3   OH260834   1.973   2.684   5.378  0.7188 -0.6985  0.3316
13140TIP3    H160835   1.893   2.674   5.328  1.0973 -1.0434 -0.2175
13140TIP3    H260836   1.987   2.599   5.419  0.2120 -0.3095  1.3387
13141TIP3   OH260837   5.753   1.115  17.250 -0.1780  0.1507  0.2600
13141TIP3    H160838   5.816   1.157  17.191 -0.0956 -0.1905  0.1059
13141TIP3    H260839   5.742   1.179  17.321  1.5021 -0.3929  1.0730
13142TIP3   OH260840   4.560   2.260  15.187 -0.3736  0.7225  0.1343
13142TIP3    H160841   4.491   2.263  15.120 -1.0430  0.7836  0.8230
13142TIP3    H260842   4.513   2.255  15.270  0.4411  1.7224  0.6714
13143TIP3   OH260843   4.164   3.115  15.771  0.0134  0.5075 -0.0274
13143TIP3    H160844   4.169   3.167  15.852  2.3831  0.2409  0.0666
13143TIP3    H260845   4.160   3.180  15.701 -0.3000  0.7577  0.2170
13144TIP3   OH260846   1.201   3.136   2.418  0.2942 -0.4998  0.1509
13144TIP3    H160847   1.241   3.223   2.411  0.8700 -0.5109  2.3280
13144TIP3    H260848   1.210   3.098   2.331  1.2973  1.0909 -0.4863
13145TIP3   OH260849   4.787   1.930   5.610  0.4269  0.0603  1.1827
13145TIP3    H160850   4.841   2.007   5.592  1.4675 -0.6145  1.3506
13145TIP3    H260851   4.834   1.882   5.678 -0.2284 -0.7024  1.1209
13146TIP3   OH260852   0.896   4.699  15.242 -0.3568 -0.3144 -0.2012
13146TIP3    H160853   0.970   4.640  15.252 -0.6167 -0.6171 -0.0358
13146TIP3    H260854   0.848   4.666  15.166 -0.1649  0.0554 -0.4870
13147TIP3   OH260855   3.432   6.226  15.674 -0.0149 -0.3625 -0.4904
13147TIP3    H160856   3.365   6.292  15.660 -0.0143 -0.4372 -0.8444
13147TIP3    H260857   3.447   6.226  15.769  0.1051  0.2560 -0.5107
13148TIP3   OH260858   5.768   5.071   4.627 -0.0108  0.1694 -0.4734
13148TIP3    H160859   5.850   5.106   4.662 -0.0529 -0.7501  0.5879
13148TIP3    H260860   5.786   4.979   4.609 -0.6344  0.1053 -0.8029
13149TIP3   OH260861   6.084   4.768   3.422 -0.0721  0.0301  0.2959
13149TIP3    H160862   6.079   4.741   3.514 -0.6244 -0.5930  0.0966
13149TIP3    H260863   5.993   4.770   3.394  0.1715 -2.5273 -0.9903
13150TIP3   OH260864   5.682   5.074   5.812 -0.0294 -0.2681  0.7272
13150TIP3    H160865   5.716   4.999   5.762  0.3039 -0.0767  0.6603
13150TIP3    H260866   5.755   5.137   5.813 -1.3464  1.5348 -2.1536
13151TIP3   OH260867   5.871   3.674   0.309  0.4267 -0.0678 -0.4561
13151TIP3    H160868   5.848   3.626   0.230  2.1071 -0.0063 -1.0314
13151TIP3    H260869   5.802   3.653   0.372 -1.5721  0.7528 -2.2550
13152TIP3   OH260870   0.756   0.293   3.070 -1.0585 -0.0420  0.2895
13152TIP3    H160871   0.716   0.286   3.156  0.5065  1.0999  1.1779
13152TIP3    H260872   0.700   0.353   3.022 -0.6563  1.2606  1.3863
13153TIP3   OH260873   5.117   0.355  12.339 -0.1472  0.1116  0.2318
13153TIP3    H160874   5.138   0.262  12.346  0.5456  0.2141 -0.3699
13153TIP3    H260875   5.196   0.400  12.367 -0.7246  0.5367  1.2252
13154TIP3   OH260876   1.910   6.485  17.066  0.0737 -0.2789 -0.5534
13154TIP3    H160877   1.825   6.449  17.039  0.5773 -0.0910 -2.5457
13154TIP3    H260878   1.973   6.417  17.043  0.6503  0.3132 -0.7340
13155TIP3   OH260879   0.630   3.986  14.530  0.4235  0.1438 -0.4946
13155TIP3    H160880   0.666   4.030  14.454  1.0012 -0.6625 -0.7042
13155TIP3    H260881   0.688   4.011  14.602  0.0568  0.6592 -0.3702
13156TIP3   OH260882   0.825   2.531   0.072  0.1231  0.2401 -0.6844
13156TIP3    H160883   0.789   2.443   0.059  0.0746 -0.2974  2.3267
13156TIP3    H260884   0.792   2.581  -0.003  0.8214 -2.4185 -2.9784
13157TIP3   OH260885   1.329   2.841  14.403 -0.5451  0.2111  0.2312
13157TIP3    H160886   1.248   2.813  14.445 -0.5706  1.1418  0.8359
13157TIP3    H260887   1.303   2.914  14.347 -0.2265  0.0950 -0.0707
13158TIP3   OH260888   4.081   2.624  11.495  0.1466 -0.3579  0.3896
13158TIP3    H160889   4.011   2.566  11.465  0.5268 -0.7594  0.2659
13158TIP3    H260890   4.100   2.596  11.584  1.1344 -1.2197 -0.0650
13159TIP3   OH260891   4.899   1.176   0.852  0.1414 -0.3585 -0.0135
13159TIP3    H160892   4.981   1.133   0.875  1.8032  2.2851 -0.6767
13159TIP3    H260893   4.892   1.250   0.912 -1.7878 -0.5353  0.0401
13160TIP3   OH260894   2.525   0.424  16.065 -0.5819 -0.1087 -0.1088
13160TIP3    H160895   2.485   0.395  15.982 -0.7782  1.4546 -0.5829
13160TIP3    H260896   2.605   0.372  16.071  0.0771  0.5996 -1.9373
13161TIP3   OH260897   2.831   0.747  14.659  0.4329  0.4964  0.6327
13161TIP3    H160898   2.785   0.680  14.711  1.2529  0.6350  1.5671
13161TIP3    H260899   2.903   0.775  14.715  0.4568  1.7471  0.0065
13162TIP3   OH260900   2.849   2.956  14.186 -0.2702  0.4611 -0.4210
13162TIP3    H160901   2.852   2.986  14.277 -0.1488  1.7686 -0.8514
13162TIP3    H260902   2.776   2.894  14.185  0.5227 -0.5527  0.8431
13163TIP3   OH260903   2.621   1.433   2.632  0.2636 -0.4640 -0.0725
13163TIP3    H160904   2.682   1.411   2.562  0.4578 -1.1041  0.2868
13163TIP3    H260905   2.613   1.353   2.683 -0.1000 -0.0918  0.4715
13164TIP3   OH260906   2.485   3.540  17.162  0.3180  0.1026  0.1587
13164TIP3    H160907   2.493   3.597  17.238  1.0765  0.1136  0.0843
13164TIP3    H260908   2.551   3.472  17.176  0.3079 -0.0239 -0.3666
13165TIP3   OH260909   1.401   3.791   2.192 -0.9543 -0.6308  0.5301
13165TIP3    H160910   1.378   3.707   2.232 -1.3336 -0.2233  1.1940
13165TIP3    H260911   1.475   3.772   2.135 -1.7712 -1.6414 -0.2401
13166TIP3   OH260912   4.713   4.091  16.388  0.5245  0.3240  0.2326
13166TIP3    H160913   4.747   4.017  16.338 -2.1044 -0.3972 -0.6152
13166TIP3    H260914   4.646   4.053  16.445 -1.3610  2.0701 -0.6867
13167TIP3   OH260915   4.408   0.175  12.624 -0.1592  0.1054  0.2928
13167TIP3    H160916   4.397   0.234  12.699  1.1891 -1.1868  1.5515
13167TIP3    H260917   4.501   0.178  12.604 -0.2773 -0.6571 -0.4360
13168TIP3   OH260918   6.205   5.181  13.694  0.2982 -0.1226  0.1408
13168TIP3    H160919   6.237   5.138  13.773 -1.0424 -2.3852 -0.4579
13168TIP3    H260920   6.251   5.265  13.692  2.3958 -1.1347  1.8520
13169TIP3   OH260921   3.103   4.963   2.853 -0.6384 -0.1031 -1.0051
13169TIP3    H160922   3.114   5.047   2.897 -1.3390  0.1591 -1.3093
13169TIP3    H260923   3.157   4.902   2.903 -2.7105 -0.2016  1.3222
13170TIP3   OH260924   3.021   6.132  16.428  0.8692 -0.2909  0.6042
13170TIP3    H160925   3.061   6.138  16.341 -2.1352 -1.1844 -0.9915
13170TIP3    H260926   2.958   6.203  16.431 -2.3026 -2.8263  0.0627
13171TIP3   OH260927   6.188   4.044   1.297  0.0845  0.6752  0.0953
13171TIP3    H160928   6.096   4.070   1.302  0.3243  1.3815  1.0869
13171TIP3    H260929   6.233   4.104   1.356  0.8678 -1.1274  1.4005
13172TIP3   OH260930   5.311   4.907  16.479  0.2106  0.3652 -0.0064
13172TIP3    H160931   5.230   4.886  16.432  0.1508 -1.7581  0.9290
13172TIP3    H260932   5.377   4.914  16.411 -0.1277 -1.3141 -0.5508
13173TIP3   OH260933   1.094   4.889  14.701  0.7951  0.5245  0.7017
13173TIP3    H160934   1.186   4.914  14.694  0.3141  1.8343 -3.2561
13173TIP3    H260935   1.096   4.794  14.714  2.7553  0.2781 -0.9164
13174TIP3   OH260936   3.799   6.769   2.721  0.3774  0.1523 -0.5095
13174TIP3    H160937   3.888   6.734   2.732  1.1184  2.4274  1.5121
13174TIP3    H260938   3.745   6.717   2.779  0.7679  0.0565 -0.2283
13175TIP3   OH260939   1.966   0.007   3.339 -0.1075 -0.3563 -0.1650
13175TIP3    H160940   1.947  -0.044   3.261 -1.0840  1.4625 -1.1897
13175TIP3    H260941   2.058   0.029   3.332 -0.7964  2.3321 -2.4997
13176TIP3   OH260942   0.569   0.101   2.145 -0.4178  0.4266  0.7348
13176TIP3    H160943   0.558   0.050   2.225  0.3459 -1.4025 -0.2754
13176TIP3    H260944   0.542   0.043   2.075  1.9578  0.7999 -0.6003
13177TIP3   OH260945   4.102   4.065   3.168 -0.1800 -0.6107  0.6386
13177TIP3    H160946   4.161   4.092   3.097  0.3300 -1.2035  0.8329
13177TIP3    H260947   4.030   4.128   3.164  0.9565  0.7612  1.0567
13178TIP3   OH260948   4.356   5.127  15.226 -0.0144  0.1805 -0.2024
13178TIP3    H160949   4.381   5.216  15.200  1.6411 -0.3899 -0.6713
13178TIP3    H260950   4.389   5.118  15.316 -0.4808  0.1457 -0.0322
13179TIP3   OH260951   0.670   2.259   2.203 -0.0425  0.0336  0.9619
13179TIP3    H160952   0.734   2.309   2.152  0.0761 -1.1378 -0.0763
13179TIP3    H260953   0.586   2.280   2.162 -0.4200  1.7521  2.4671
13180TIP3   OH260954   0.384   3.868  12.073 -0.6282  0.0191 -0.5617
13180TIP3    H160955   0.332   3.931  12.023 -1.2847 -0.0400  0.0266
13180TIP3    H260956   0.320   3.805  12.105 -0.0711 -0.5390 -0.5342
13181TIP3   OH260957   3.295   3.366  12.323  0.8259 -0.8285  0.0121
13181TIP3    H160958   3.315   3.357  12.230 -0.2147 -1.3536 -0.1756
13181TIP3    H260959   3.315   3.280  12.360 -0.0079 -1.0244  0.0225
13182TIP3   OH260960   5.355   5.415  13.216 -0.2233  0.2564  0.2865
13182TIP3    H160961   5.325   5.358  13.145  1.6857  1.4475 -1.6291
13182TIP3    H260962   5.403   5.356  13.275 -0.5962 -0.5345 -0.1793
13183TIP3   OH260963   5.842   0.822   1.395  0.3385 -0.2518  0.4662
13183TIP3    H160964   5.865   0.734   1.364 -0.9835 -0.5852  0.3706
13183TIP3    H260965   5.866   0.880   1.323 -1.4802 -0.8801 -0.7231
13184TIP3   OH260966   4.050   0.966   0.607 -0.2091  0.6066 -0.1870
13184TIP3    H160967   4.096   0.882   0.597  0.1563  0.7024  0.6054
13184TIP3    H260968   4.082   1.019   0.535 -1.2059 -0.2651 -1.3022
13185TIP3   OH260969   4.934   4.916  16.452 -0.5152  0.2527 -0.6025
13185TIP3    H160970   4.898   4.890  16.537  0.9705  0.9809  0.2988
13185TIP3    H260971   4.923   5.012  16.449  0.0007  0.3064 -0.9536
13186TIP3   OH260972   4.237   6.071  13.797 -0.1812 -0.4347 -0.3099
13186TIP3    H160973   4.329   6.093  13.805 -0.3225  1.5822 -2.8703
13186TIP3    H260974   4.237   5.986  13.752  0.3136 -2.5455  3.2825
13187TIP3   OH260975   4.475   1.311  11.413  0.5931  0.4803  0.8176
13187TIP3    H160976   4.446   1.301  11.504 -0.9441  0.4995  0.3583
13187TIP3    H260977   4.569   1.324  11.419  0.3988  1.4162  2.4810
13188TIP3   OH260978   1.137   0.272  16.172 -0.6828  0.1744  0.6420
13188TIP3    H160979   1.073   0.287  16.241 -1.9068 -0.3969 -0.3333
13188TIP3    H260980   1.087   0.233  16.101  0.7904 -0.4430 -0.0923
13189TIP3   OH260981   4.423   0.442  12.010 -0.0743  0.5270  0.1822
13189TIP3    H160982   4.356   0.377  12.030 -0.6767  1.0088 -0.2443
13189TIP3    H260983   4.492   0.392  11.965 -0.4686  0.1583 -0.0173
13190TIP3   OH260984   4.823   4.066   2.186 -0.3691  0.0006  0.2148
13190TIP3    H160985   4.880   4.033   2.255 -0.2314 -0.3058 -0.0438
13190TIP3    H260986   4.842   4.010   2.110  0.8607  1.4982 -0.6439
13191TIP3   OH260987   1.535   1.259  11.028  0.3383  0.2021 -0.1217
13191TIP3    H160988   1.496   1.345  11.014 -1.1430 -0.3936  0.1674
13191TIP3    H260989   1.577   1.238  10.944  1.4145  1.5197  0.0544
13192TIP3   OH260990   3.267   1.350  14.932  0.1337  0.3269 -0.4578
13192TIP3    H160991   3.216   1.331  15.011  0.2872 -1.3216 -0.7224
13192TIP3    H260992   3.348   1.389  14.965 -0.2952  0.7775  0.1061
13193TIP3   OH260993   1.363   3.584  10.902 -1.0043 -0.4427  0.0909
13193TIP3    H160994   1.311   3.617  10.828  1.1603 -0.9085 -1.7496
13193TIP3    H260995   1.366   3.489  10.889 -0.0743 -0.4640  0.4124
13194TIP3   OH260996   6.446   3.113   0.160 -0.6882  0.1198  0.4376
13194TIP3    H160997   6.494   3.175   0.214  0.2884  0.4821 -0.7978
13194TIP3    H260998   6.488   3.029   0.177 -0.1377  0.2970 -0.0284
13195TIP3   OH260999   4.135   0.029  13.417 -0.7550  0.0552 -0.2441
13195TIP3    H161000   4.072  -0.024  13.467 -1.0184  0.3704 -0.2358
13195TIP3    H261001   4.218  -0.018  13.426 -0.6154  0.5109  1.1460
13196TIP3   OH261002   2.072   0.753  13.740  0.0655 -0.3115 -0.1429
13196TIP3    H161003   2.144   0.812  13.718 -0.0458  0.5532  1.6408
13196TIP3    H261004   2.084   0.734  13.833 -1.8015 -0.4284  0.1127
13197TIP3   OH261005   6.023   3.359  13.453 -0.1403 -0.3343  0.4157
13197TIP3    H161006   6.011   3.283  13.397  2.6097 -0.7824  0.2804
13197TIP3    H261007   5.994   3.330  13.540 -0.9072 -0.8707 -0.0122
13198TIP3   OH261008   4.487   1.705  16.764  0.1270 -0.3044  0.2313
13198TIP3    H161009   4.434   1.779  16.734  1.1144  1.6856  3.0357
13198TIP3    H261010   4.559   1.701  16.702 -0.5340  0.3127 -0.6085
13199TIP3   OH261011   1.058   2.415  15.031 -0.1834 -0.4256  0.1132
13199TIP3    H161012   1.010   2.356  14.973 -0.6673 -0.3728  0.4541
13199TIP3    H261013   1.148   2.412  14.999 -0.2319 -1.2374  0.0286
13200TIP3   OH261014   5.165   5.540  13.085 -0.4944  0.5245  0.9746
13200TIP3    H161015   5.092   5.567  13.139 -1.5314 -2.1229  1.0548
13200TIP3    H261016   5.227   5.500  13.146 -0.0883  0.6107  0.6274
13201TIP3   OH261017   1.558   5.554   5.667  0.1413 -0.4765 -0.6451
13201TIP3    H161018   1.619   5.481   5.677 -0.0715 -0.6659 -0.7091
13201TIP3    H261019   1.512   5.559   5.751 -1.0301 -1.5065 -1.1857
13202TIP3   OH261020   3.391   2.101   2.370 -0.0077 -0.2642 -0.0961
13202TIP3    H161021   3.363   2.162   2.302 -0.3421 -0.2764  0.0295
13202TIP3    H261022   3.312   2.083   2.421 -0.1677 -1.6508 -0.7744
13203TIP3   OH261023   0.970   0.472   0.329 -0.1857 -0.5626 -0.4152
13203TIP3    H161024   1.002   0.451   0.241  1.0158 -0.2087 -0.0837
13203TIP3    H261025   0.955   0.387   0.370 -1.8477 -0.7550 -1.3034
13204TIP3   OH261026   0.916   5.288  11.321 -0.5222 -0.8409 -0.1319
13204TIP3    H161027   0.939   5.380  11.325  0.1356 -1.0305  2.8066
13204TIP3    H261028   0.821   5.285  11.336 -0.8322 -0.6178 -1.8378
13205TIP3   OH261029   0.431   3.503   0.531  0.2052 -0.0831 -0.2635
13205TIP3    H161030   0.410   3.417   0.567 -2.3444  0.4330 -0.3442
13205TIP3    H261031   0.485   3.483   0.454  0.8880 -1.5071  0.5375
13206TIP3   OH261032   0.194   1.071   2.604  0.2494  0.6681  0.2211
13206TIP3    H161033   0.189   1.118   2.688  3.3744  0.4533  0.6531
13206TIP3    H261034   0.187   1.140   2.538  1.1829  1.3371  0.7860
13207TIP3   OH261035   3.397   5.747  12.821 -0.2045  0.4585  0.1293
13207TIP3    H161036   3.335   5.715  12.755  0.4225  0.5244 -0.5078
13207TIP3    H261037   3.421   5.835  12.790  1.9420 -0.4342 -0.8891
13208TIP3   OH261038   2.506   4.357  16.321  0.0377 -0.1635 -0.3981
13208TIP3    H161039   2.483   4.440  16.279  1.0059 -0.0449 -0.7249
13208TIP3    H261040   2.536   4.382  16.408 -1.1313 -0.3273  0.0676
13209TIP3   OH261041   4.471   2.144  14.293  0.1867 -0.7505 -0.3061
13209TIP3    H161042   4.561   2.115  14.305  0.3590  0.2961  1.1238
13209TIP3    H261043   4.444   2.176  14.380 -1.4000 -0.5987 -0.8184
13210TIP3   OH261044   2.722   2.156  14.160 -0.5179 -0.5952 -0.3740
13210TIP3    H161045   2.792   2.099  14.191  0.1069  1.5141  2.4181
13210TIP3    H261046   2.679   2.105  14.091  1.3526 -3.4877  0.4271
13211TIP3   OH261047   1.214   0.087  15.412 -0.4236 -0.3017 -0.1888
13211TIP3    H161048   1.199  -0.006  15.398 -0.7642 -0.0663 -1.6353
13211TIP3    H261049   1.149   0.113  15.477 -1.6616 -0.7183 -1.2023
13212TIP3   OH261050   4.225   0.684   3.521  0.1664  0.4955 -0.2937
13212TIP3    H161051   4.219   0.760   3.579  0.7450  0.0891  0.3266
13212TIP3    H261052   4.136   0.670   3.489  0.0354  1.3576 -0.3234
13213TIP3   OH261053   0.535   4.790   5.114  0.2433  0.0635 -0.0408
13213TIP3    H161054   0.597   4.863   5.109 -0.6165  0.7675 -0.7513
13213TIP3    H261055   0.577   4.719   5.066  0.4031  0.6101 -0.7157
13214TIP3   OH261056   4.413   1.855   6.023  0.7262 -0.2772  0.4542
13214TIP3    H161057   4.394   1.774   6.070  0.8286 -0.6769 -0.1782
13214TIP3    H261058   4.492   1.835   5.973  0.2146 -0.0941 -0.4373
13215TIP3   OH261059   1.885   5.305   4.808  0.1213 -0.2371 -0.1235
13215TIP3    H161060   1.943   5.357   4.752  0.0394 -1.1563 -1.0924
13215TIP3    H261061   1.844   5.369   4.866  0.9096  0.6234 -0.4979
13216TIP3   OH261062   6.254   1.775   1.053 -0.0557  0.0615 -0.3267
13216TIP3    H161063   6.332   1.824   1.027  0.2848 -0.7452 -0.8615
13216TIP3    H261064   6.219   1.740   0.971 -1.6851  1.4002 -0.2649
13217TIP3   OH261065   0.791   1.155  15.425  0.4704 -0.0713  0.4174
13217TIP3    H161066   0.696   1.151  15.423  0.4753 -0.2769 -1.2208
13217TIP3    H261067   0.811   1.247  15.440  0.0032  0.0302  0.4194
13218TIP3   OH261068   4.288   2.227   2.902  0.2335  0.0468  0.1744
13218TIP3    H161069   4.360   2.194   2.956  0.6487 -1.7566 -1.3507
13218TIP3    H261070   4.273   2.157   2.838 -2.0825  0.9099 -0.3076
13219TIP3   OH261071   3.370   1.854   3.736  0.0699 -0.3493 -0.2146
13219TIP3    H161072   3.382   1.927   3.675  1.5924 -2.6011 -2.8281
13219TIP3    H261073   3.293   1.808   3.703  0.3891 -1.1116  0.0834
13220TIP3   OH261074   3.061   6.083  13.940  0.1231 -0.3688  0.4383
13220TIP3    H161075   2.993   6.036  13.989  0.5467 -1.9906 -0.4700
13220TIP3    H261076   3.143   6.039  13.964  0.5575  0.0117 -0.3097
13221TIP3   OH261077   6.692   5.905   5.018 -0.0070 -0.8899  0.3929
13221TIP3    H161078   6.750   5.835   5.047  0.5230 -0.0632  1.3683
13221TIP3    H261079   6.613   5.859   4.987  0.7380 -1.9590  0.0193
13222TIP3   OH261080   4.342   1.318   5.406  0.0955 -0.8406  0.0729
13222TIP3    H161081   4.417   1.350   5.355 -0.0719 -1.1952 -0.4063
13222TIP3    H261082   4.268   1.323   5.345 -0.3588 -0.1066  0.6696
13223TIP3   OH261083   2.964   6.426  16.048  0.0103  0.6159  0.5116
13223TIP3    H161084   2.915   6.506  16.067  1.3748  1.4247  0.7550
13223TIP3    H261085   3.053   6.443  16.079  0.8273 -0.2686 -1.1491
13224TIP3   OH261086   3.032   5.885   3.953 -0.4019  0.3171 -0.2475
13224TIP3    H161087   3.121   5.918   3.963  0.5939 -1.9700 -0.9453
13224TIP3    H261088   3.020   5.824   4.026 -0.9885 -0.2486 -0.8027
13225TIP3   OH261089   3.324   4.561   5.105 -0.2582  0.2356 -0.4250
13225TIP3    H161090   3.418   4.554   5.093 -0.2079  0.8175 -0.4190
13225TIP3    H261091   3.286   4.502   5.040  0.0795  1.0744 -1.4127
13226TIP3   OH261092   2.553   2.991  13.990 -0.8247  0.1552  0.6150
13226TIP3    H161093   2.530   2.982  13.898  1.7169  0.1563 -0.0774
13226TIP3    H261094   2.588   3.080  13.998 -1.3750  0.2946  1.6917
13227TIP3   OH261095   0.151   4.455   0.480  0.2742  0.5649 -0.2276
13227TIP3    H161096   0.069   4.442   0.528 -0.1719 -0.3839 -1.1755
13227TIP3    H261097   0.199   4.521   0.530  0.1759 -0.8764  1.9270
13228TIP3   OH261098   3.902   6.661   5.010  0.0588  0.1214  0.3186
13228TIP3    H161099   3.832   6.686   4.950 -0.3360  1.0775  1.1364
13228TIP3    H261100   3.914   6.567   4.997 -1.9513 -0.2302  0.7532
13229TIP3   OH261101   5.998   3.823  13.836  0.1015  0.0209  0.3001
13229TIP3    H161102   5.981   3.817  13.930 -0.4128  0.2464  0.2249
13229TIP3    H261103   5.919   3.788  13.795 -0.2804  1.2491 -0.0617
13230TIP3   OH261104   3.217   4.800  16.617  0.0444  0.3604 -0.0490
13230TIP3    H161105   3.243   4.859  16.547  0.8091  0.2461  0.1244
13230TIP3    H261106   3.202   4.857  16.693 -0.9476  0.5021 -0.3348
13231TIP3   OH261107   2.513   1.851   6.538  0.1612 -0.3224  0.4496
13231TIP3    H161108   2.552   1.903   6.608 -0.8560  0.1297  0.6958
13231TIP3    H261109   2.434   1.899   6.514  0.5664 -0.3819 -1.1322
13232TIP3   OH261110   6.313   1.150  15.293 -0.2439 -0.1089 -0.5671
13232TIP3    H161111   6.406   1.163  15.314 -0.1974 -0.7046 -0.3906
13232TIP3    H261112   6.287   1.232  15.251  0.0235  0.5597  0.5337
13233TIP3   OH261113   2.704   3.943  12.965 -0.4355 -0.3277  0.0213
13233TIP3    H161114   2.611   3.930  12.985 -0.3195 -4.7670 -1.3228
13233TIP3    H261115   2.736   3.998  13.036 -4.2725  2.7975 -0.2791
13234TIP3   OH261116   5.987   1.022  17.031  0.0529 -0.2046 -0.0431
13234TIP3    H161117   5.986   1.112  17.062 -0.2451  0.2458 -1.2974
13234TIP3    H261118   5.993   1.029  16.936  0.3298 -1.5145 -0.1433
13235TIP3   OH261119   6.122   4.260   2.925  0.0453 -0.5270  0.1628
13235TIP3    H161120   6.112   4.330   2.990  2.0314  1.8623 -1.8725
13235TIP3    H261121   6.073   4.292   2.849  1.1185 -1.2443 -0.8573
13236TIP3   OH261122   2.606   3.617   5.808 -0.0326  0.1300  0.1439
13236TIP3    H161123   2.585   3.705   5.780 -1.1866 -0.5780 -1.3558
13236TIP3    H261124   2.524   3.581   5.841  0.6116 -0.1298  1.5787
13237TIP3   OH261125   0.155   2.776   4.303 -0.2405  0.0054  0.0506
13237TIP3    H161126   0.139   2.714   4.374 -0.2745  1.9234  1.7680
13237TIP3    H261127   0.234   2.823   4.329 -0.3981  0.9409 -1.0629
13238TIP3   OH261128   1.460   0.787   4.140 -0.2400  0.1279 -0.3530
13238TIP3    H161129   1.470   0.867   4.089  1.1582  0.4257  0.3225
13238TIP3    H261130   1.550   0.764   4.166 -0.8424 -0.2942  1.5182
13239TIP3   OH261131   5.548   5.931   1.578  0.6792  0.2480 -0.0779
13239TIP3    H161132   5.633   5.949   1.619  0.6615  1.6086 -0.5783
13239TIP3    H261133   5.485   5.933   1.650  0.6398  2.6604 -0.1028
13240TIP3   OH261134   4.341   4.064   4.609  0.2103  0.6261  0.2126
13240TIP3    H161135   4.316   4.003   4.679  1.4392  0.5046  0.5701
13240TIP3    H261136   4.408   4.120   4.649  0.4096  1.0267 -0.6592
13241TIP3   OH261137   6.121   4.602   2.271 -0.3298  0.7058 -0.0488
13241TIP3    H161138   6.173   4.522   2.272 -1.5783 -0.1375  0.7989
13241TIP3    H261139   6.140   4.642   2.186  2.7639  1.2054  0.7458
13242TIP3   OH261140   5.994   4.150   2.279 -0.2099  0.5159  0.6984
13242TIP3    H161141   5.917   4.116   2.326 -0.2380  0.1941  0.4164
13242TIP3    H261142   6.015   4.083   2.214 -0.2532  1.0230  0.1545
13243TIP3   OH261143   3.685   3.590   2.234  0.1000 -0.1691 -0.2333
13243TIP3    H161144   3.613   3.646   2.263  0.6804 -0.4969  2.0701
13243TIP3    H261145   3.751   3.599   2.303  0.8804 -2.3998 -0.6110
13244TIP3   OH261146   5.810   3.509  11.887 -0.1287 -0.1814  0.5006
13244TIP3    H161147   5.754   3.458  11.829  1.5747 -0.6984 -0.7739
13244TIP3    H261148   5.751   3.573  11.928 -1.8758 -1.6154  0.3502
13245TIP3   OH261149   3.977   2.765   0.174 -0.1173  0.2317 -0.3676
13245TIP3    H161150   4.071   2.781   0.171 -0.1254  0.2860 -0.3253
13245TIP3    H261151   3.968   2.673   0.150 -0.0580  0.2415 -0.4294
13246TIP3   OH261152   5.441   6.308  13.232 -0.0524 -0.2943 -0.3310
13246TIP3    H161153   5.347   6.304  13.215 -0.3861 -1.7355  1.5478
13246TIP3    H261154   5.454   6.392  13.275 -0.8031 -0.7768  0.9027
13247TIP3   OH261155   4.820   1.878  12.083 -1.0528  0.0597 -0.7119
13247TIP3    H161156   4.765   1.856  12.158  1.5536 -2.9170  0.5605
13247TIP3    H261157   4.882   1.942  12.117 -0.1775 -0.9304 -0.3605
13248TIP3   OH261158   4.245   1.592  16.721  1.1423 -0.6935  0.6764
13248TIP3    H161159   4.336   1.612  16.739  1.5669 -0.7326 -1.1657
13248TIP3    H261160   4.244   1.499  16.700  0.5393 -0.8703  1.4804
13249TIP3   OH261161   0.476   5.337   1.499 -0.1148 -0.6535 -0.2631
13249TIP3    H161162   0.560   5.344   1.454 -0.7134  0.5798 -1.2789
13249TIP3    H261163   0.485   5.393   1.576  0.4678 -1.7110  0.4631
13250TIP3   OH261164   5.502   0.391   5.236  0.4765 -0.2559 -0.9389
13250TIP3    H161165   5.504   0.435   5.321 -1.0157  0.5595 -1.2964
13250TIP3    H261166   5.569   0.437   5.185  0.6737 -0.0726 -0.5260
13251TIP3   OH261167   3.614   3.949  16.839  0.4014  0.4821  0.5021
13251TIP3    H161168   3.590   4.041  16.829  1.2390  0.8384  1.6614
13251TIP3    H261169   3.565   3.919  16.915  1.3703  0.4252  1.1176
13252TIP3   OH261170   0.675   1.587   4.500  0.1547 -0.6232 -0.4537
13252TIP3    H161171   0.620   1.665   4.502  1.9343  0.7376  3.0502
13252TIP3    H261172   0.764   1.620   4.513  1.0904 -3.1702  0.0779
13253TIP3   OH261173   6.270   1.532  11.865 -0.0189 -0.5819  0.2967
13253TIP3    H161174   6.343   1.552  11.923  1.5118 -1.8382 -1.0788
13253TIP3    H261175   6.231   1.617  11.845  0.9769  0.1076  1.1711
13254TIP3   OH261176   3.624   4.470  16.172  0.9057 -0.0582 -0.3215
13254TIP3    H161177   3.688   4.520  16.222  0.2716 -0.4219  0.8937
13254TIP3    H261178   3.578   4.536  16.120  2.1107  0.2287 -1.0634
13255TIP3   OH261179   2.047   4.201   1.671  0.0164  0.1833 -0.0109
13255TIP3    H161180   2.036   4.108   1.651 -1.9483  0.6009 -1.0758
13255TIP3    H261181   2.142   4.213   1.677  0.3014 -2.0078  0.8540
13256TIP3   OH261182   5.375   3.048  13.975 -0.5479 -0.3438 -0.1470
13256TIP3    H161183   5.333   2.964  13.958 -0.0558 -0.4555 -0.8579
13256TIP3    H261184   5.450   3.027  14.030 -0.2022 -0.4193 -0.6480
13257TIP3   OH261185   2.013   1.076   0.524  0.4305 -0.5109  0.4327
13257TIP3    H161186   1.998   1.143   0.591  1.8766  0.6914 -0.3756
13257TIP3    H261187   2.086   1.110   0.472 -1.8341 -0.3444 -3.0506
13258TIP3   OH261188   3.215   4.581  14.178  0.2704 -0.2481 -0.4161
13258TIP3    H161189   3.171   4.496  14.174 -1.4467  0.6460 -2.8512
13258TIP3    H261190   3.269   4.583  14.099  0.7250  0.7325 -0.0974
13259TIP3   OH261191   5.763   2.712  17.134  0.2124 -0.3468 -0.0445
13259TIP3    H161192   5.791   2.673  17.216 -0.6193  0.5154  0.6641
13259TIP3    H261193   5.844   2.728  17.086  0.6624 -1.4934  0.2890
13260TIP3   OH261194   3.449   5.165   1.895  0.4160 -0.3487 -0.5566
13260TIP3    H161195   3.496   5.156   1.978  0.1409  0.2610 -0.3277
13260TIP3    H261196   3.361   5.194   1.920  0.3107 -0.2294 -1.0538
13261TIP3   OH261197   0.337   1.385   6.031  0.1045  0.8333 -0.6049
13261TIP3    H161198   0.323   1.329   6.107  1.8228 -0.7367 -1.3690
13261TIP3    H261199   0.312   1.330   5.956 -0.2228  1.8585 -1.2668
13262TIP3   OH261200   1.245   1.827   5.984 -0.4929 -0.0524  0.0202
13262TIP3    H161201   1.150   1.832   5.992 -0.5436 -0.0451 -0.5508
13262TIP3    H261202   1.277   1.911   6.017 -0.8511  1.0551 -2.2549
13263TIP3   OH261203   4.539   4.230   4.723  0.3520  0.0633  0.1080
13263TIP3    H161204   4.587   4.196   4.648  1.5947  0.7209  0.5649
13263TIP3    H261205   4.509   4.317   4.696  2.6546  1.2280  1.0251
13264TIP3   OH261206   2.568   5.784   1.397  0.6697  0.5162 -0.4792
13264TIP3    H161207   2.653   5.770   1.355  1.4776  1.2135  0.8714
13264TIP3    H261208   2.571   5.729   1.475 -0.6123 -0.3709 -1.0317
13265TIP3   OH261209   4.222   4.099   5.407  0.0992 -0.5236  0.0855
13265TIP3    H161210   4.230   4.193   5.424  2.6209 -0.5994 -0.3057
13265TIP3    H261211   4.211   4.094   5.312 -0.6895 -0.6328  0.1721
13266TIP3   OH261212   0.017   6.697  12.594  0.4431 -0.5147 -0.2726
13266TIP3    H161213  -0.024   6.763  12.538 -0.1563  0.1343  0.8901
13266TIP3    H261214  -0.042   6.621  12.589 -0.5842  0.1746  0.8545
13267TIP3   OH261215   6.660   3.751   5.684  0.2686 -0.6431 -0.5471
13267TIP3    H161216   6.580   3.706   5.654  0.1732 -0.3249 -0.7807
13267TIP3    H261217   6.627   3.827   5.733  0.3953  0.2692 -1.7915
13268TIP3   OH261218   4.254   6.543   2.501  0.6503 -0.0393 -0.4334
13268TIP3    H161219   4.320   6.564   2.435 -0.2199  0.9947 -1.0157
13268TIP3    H261220   4.217   6.460   2.472  0.8302  0.0073 -0.8135
13269TIP3   OH261221   1.139   2.566  15.548 -0.2463 -0.2532  0.3503
13269TIP3    H161222   1.160   2.621  15.473  0.3047 -0.2749  0.4845
13269TIP3    H261223   1.069   2.508  15.517 -1.9317  1.5150  0.6418
13270TIP3   OH261224   2.256   3.872   2.869 -0.3996 -0.9130  0.0953
13270TIP3    H161225   2.258   3.780   2.841 -0.9805 -0.6056 -1.0090
13270TIP3    H261226   2.318   3.876   2.942 -1.6248 -2.5541  1.3175
13271TIP3   OH261227   0.518   2.650  16.332  0.3533 -0.3062 -0.3226
13271TIP3    H161228   0.549   2.741  16.326  1.5133 -0.5923  0.9399
13271TIP3    H261229   0.539   2.613  16.246  0.7965  0.3458 -0.5070
13272TIP3   OH261230   3.637   5.442   1.309 -0.4940 -0.3616 -0.7858
13272TIP3    H161231   3.575   5.482   1.370 -0.7269  0.2703 -1.4289
13272TIP3    H261232   3.723   5.471   1.341 -0.6771  1.1820 -1.5713
13273TIP3   OH261233   2.066   1.953   3.132 -0.1673  0.0378  0.6281
13273TIP3    H161234   2.090   1.873   3.085 -0.4633 -0.4113  1.2368
13273TIP3    H261235   2.068   2.021   3.065 -1.0307 -0.6723 -0.1511
13274TIP3   OH261236   5.999   4.616   3.677  0.7430 -0.4402 -0.1674
13274TIP3    H161237   6.046   4.647   3.754  0.0490 -1.8612  0.8739
13274TIP3    H261238   5.995   4.521   3.687 -1.5782 -0.4711 -0.6142
13275TIP3   OH261239   3.086   5.862  16.056 -0.2594 -0.3505 -0.0024
13275TIP3    H161240   3.076   5.776  16.098 -2.4969 -0.5366 -0.7712
13275TIP3    H261241   3.094   5.841  15.963 -1.7841  0.2599 -0.3031
13276TIP3   OH261242   0.868   2.031   3.997 -0.1280 -0.0748  0.0515
13276TIP3    H161243   0.837   2.108   3.949 -4.0540 -1.0317  0.7101
13276TIP3    H261244   0.951   2.008   3.955 -0.2162  2.8309 -1.9825
13277TIP3   OH261245   3.494   2.834   0.175 -0.8183 -0.2119  0.4448
13277TIP3    H161246   3.418   2.854   0.228 -0.7391  0.0671  0.4566
13277TIP3    H261247   3.499   2.739   0.173 -2.1711 -0.2903 -0.9656
13278TIP3   OH261248   2.286   3.838  11.203 -0.0012  0.0525  0.7864
13278TIP3    H161249   2.378   3.824  11.225  0.1415  1.5235  1.1896
13278TIP3    H261250   2.248   3.749  11.201  1.0556 -0.4623  2.1814
13279TIP3   OH261251   6.047   2.506  17.060 -0.4990 -0.9116 -0.1039
13279TIP3    H161252   6.002   2.577  17.014  1.9465 -0.3706 -1.8506
13279TIP3    H261253   6.033   2.525  17.153  0.8479  2.4997 -0.4587
13280TIP3   OH261254   4.850   0.644   1.777 -0.3557  0.3348  0.2708
13280TIP3    H161255   4.765   0.670   1.742 -1.5165 -2.0145  1.1562
13280TIP3    H261256   4.898   0.612   1.700 -0.5989  0.8164 -0.0919
13281TIP3   OH261257   4.258   3.631   3.142  0.4488 -0.1240  0.0643
13281TIP3    H161258   4.304   3.557   3.181 -0.2193 -0.7710 -0.3408
13281TIP3    H261259   4.323   3.700   3.138  1.1286 -0.7326  0.3246
13282TIP3   OH261260   2.587   3.371  12.452  0.4934 -0.1514 -0.3293
13282TIP3    H161261   2.587   3.342  12.361  0.7184 -2.0493  0.2377
13282TIP3    H261262   2.657   3.436  12.456  0.1092  0.3841 -1.6126
13283TIP3   OH261263   5.079   4.867   1.200 -0.3829 -0.0417  0.7088
13283TIP3    H161264   5.113   4.956   1.189  0.8091 -0.4329  1.1274
13283TIP3    H261265   4.985   4.875   1.181 -0.1533  1.1465 -0.0315
13284TIP3   OH261266   3.336   4.077   2.385 -0.1707 -0.4174 -0.3176
13284TIP3    H161267   3.254   4.085   2.434 -0.2117 -0.3918 -0.3908
13284TIP3    H261268   3.309   4.054   2.296 -0.2002  1.2973 -0.7865
13285TIP3   OH261269   6.145   0.157  15.948 -1.0844 -0.7258 -0.3082
13285TIP3    H161270   6.056   0.164  15.981 -0.9343 -2.0525  0.4964
13285TIP3    H261271   6.188   0.237  15.976 -1.9244 -0.2315 -0.4043
13286TIP3   OH261272   3.540   1.431   2.061  0.0865  0.4350  0.2634
13286TIP3    H161273   3.555   1.357   2.120  0.6232 -0.4057 -0.8784
13286TIP3    H261274   3.611   1.425   1.997 -0.0984  1.7128 -0.0855
13287TIP3   OH261275   3.492   4.898  13.119  0.4357  0.1186  0.3978
13287TIP3    H161276   3.492   4.825  13.057  0.8435 -0.9398  1.6083
13287TIP3    H261277   3.463   4.973  13.067  0.5856 -0.7665 -1.0255
13288TIP3   OH261278   2.394   4.341  14.386 -0.0871 -0.5886  0.1528
13288TIP3    H161279   2.336   4.414  14.408 -1.3283 -0.6757 -2.3842
13288TIP3    H261280   2.341   4.284  14.330  1.4988 -2.3730  0.3497
13289TIP3   OH261281   4.701   2.254   6.684 -0.3313 -0.0390 -0.0211
13289TIP3    H161282   4.667   2.251   6.594  1.4633  0.7501 -0.7635
13289TIP3    H261283   4.636   2.307   6.731 -2.8852 -2.8815 -0.0483
13290TIP3   OH261284   0.285   3.561  16.587 -0.1304  0.1925  0.9265
13290TIP3    H161285   0.254   3.490  16.643 -1.4876 -0.8847 -1.0287
13290TIP3    H261286   0.210   3.620  16.579 -0.8458 -0.9021 -1.5235
13291TIP3   OH261287   1.433   1.768   2.373 -0.3267 -0.0491  0.6314
13291TIP3    H161288   1.487   1.727   2.441 -1.0109  0.3684  1.4460
13291TIP3    H261289   1.391   1.694   2.328 -0.4355 -0.3034  1.1418
13292TIP3   OH261290   2.139   0.096   4.020 -0.3051  0.0072 -0.3580
13292TIP3    H161291   2.099   0.181   4.000 -1.3142 -0.8794 -2.3521
13292TIP3    H261292   2.205   0.083   3.952 -0.2594 -0.8704 -0.1608
13293TIP3   OH261293   3.335   2.495  16.076 -0.1256  0.1185  0.4462
13293TIP3    H161294   3.317   2.585  16.050 -3.0283 -0.4154  0.2740
13293TIP3    H261295   3.390   2.460  16.006 -0.6004  1.2047 -0.5058
13294TIP3   OH261296   6.304   3.133   5.601  0.3786 -0.2182 -0.4232
13294TIP3    H161297   6.216   3.161   5.627 -1.1521 -1.1164 -3.9517
13294TIP3    H261298   6.325   3.188   5.525  2.3750 -0.8043 -0.3372
13295TIP3   OH261299   0.536   1.654   0.887 -0.8147  0.4922  0.1555
13295TIP3    H161300   0.520   1.723   0.823 -0.9291  0.6587  0.3614
13295TIP3    H261301   0.510   1.692   0.971 -0.0965  0.4857  0.3906
13296TIP3   OH261302   3.985   3.886  11.951  0.0423  0.3106  0.0600
13296TIP3    H161303   3.958   3.921  11.866  1.6552 -0.8331 -0.9777
13296TIP3    H261304   3.903   3.872  11.998 -0.8523  1.5171 -1.0534
13297TIP3   OH261305   3.547   5.272   1.118  0.1808 -0.0621  0.2163
13297TIP3    H161306   3.593   5.335   1.174  3.2692 -1.6119 -0.3873
13297TIP3    H261307   3.557   5.306   1.029  1.0747 -0.8903 -0.0172
13298TIP3   OH261308   4.695   3.366   5.375  0.3528 -0.0603  0.4568
13298TIP3    H161309   4.684   3.289   5.319 -2.3205  0.6150 -0.0762
13298TIP3    H261310   4.722   3.331   5.460  2.0747 -1.2850 -0.5244
13299TIP3   OH261311   5.114   3.958   3.676 -0.3185  0.3277 -0.0676
13299TIP3    H161312   5.046   3.891   3.679 -0.8175  0.7254 -1.4726
13299TIP3    H261313   5.187   3.917   3.629 -0.5636  0.6997 -0.7892
13300TIP3   OH261314   0.803   2.522  15.867  0.0810  0.0464  0.2609
13300TIP3    H161315   0.895   2.522  15.894 -0.5331  2.1705  2.9321
13300TIP3    H261316   0.795   2.598  15.809  0.1418 -0.6913 -0.7439
13301TIP3   OH261317   1.454   4.873  12.266 -0.5888 -0.6565 -0.0281
13301TIP3    H161318   1.374   4.835  12.229 -0.9729 -1.6211  1.7000
13301TIP3    H261319   1.444   4.863  12.361  0.9348  0.5373  0.2928
13302TIP3   OH261320   3.981   4.570   3.405  0.1953  0.1641  0.4117
13302TIP3    H161321   3.922   4.597   3.475  0.1240 -0.9216  0.7956
13302TIP3    H261322   3.942   4.604   3.325 -0.2602  0.5574  0.7972
13303TIP3   OH261323   3.597   6.556  13.948  0.1220  0.0589  0.2745
13303TIP3    H161324   3.525   6.501  13.916 -0.1579 -0.5116  1.7819
13303TIP3    H261325   3.676   6.517  13.910 -0.3065  0.3930 -1.0040
13304TIP3   OH261326   6.597   1.827  15.631  0.1725 -0.6599 -0.6995
13304TIP3    H161327   6.645   1.745  15.620 -1.2217 -1.8325  1.3458
13304TIP3    H261328   6.641   1.888  15.572  1.8748 -2.5925 -1.5680
13305TIP3   OH261329   6.543   2.133  13.633  0.9757  0.2419 -0.1805
13305TIP3    H161330   6.466   2.186  13.654  0.1342 -0.7012 -0.8147
13305TIP3    H261331   6.562   2.084  13.713  1.0103  0.5698  0.0158
13306TIP3   OH261332   0.057   4.012  12.627  0.4069 -0.4217  0.4686
13306TIP3    H161333   0.128   3.971  12.577  2.0931 -0.2964  2.5950
13306TIP3    H261334   0.043   4.097  12.585  1.9471 -0.2063  0.3325
13307TIP3   OH261335   5.745   6.021  12.822  0.4562 -0.8234 -0.5039
13307TIP3    H161336   5.748   6.081  12.748  0.5632  0.6809  0.6666
13307TIP3    H261337   5.687   6.064  12.885  0.1712 -2.1835  0.1888
13308TIP3   OH261338   6.314   5.756  16.260  0.1859  0.4698  0.1643
13308TIP3    H161339   6.220   5.764  16.245  0.1883 -0.4220 -0.4274
13308TIP3    H261340   6.350   5.735  16.173  0.5874 -1.8322  0.8314
13309TIP3   OH261341   3.312   4.466   2.245  0.5759  0.2497  0.4065
13309TIP3    H161342   3.260   4.500   2.172  0.4289 -0.9589 -0.0811
13309TIP3    H261343   3.374   4.536   2.266 -0.4021  1.2065  0.1459
13310TIP3   OH261344   6.531   4.743  14.875 -0.3867  0.0775 -0.5037
13310TIP3    H161345   6.547   4.837  14.887 -1.7336  0.3767 -0.8830
13310TIP3    H261346   6.451   4.739  14.823 -1.1323 -1.3007  0.6786
13311TIP3   OH261347   6.604   1.803  14.797  0.4191 -0.4514  0.0786
13311TIP3    H161348   6.698   1.816  14.810  0.0024  1.4981  1.6862
13311TIP3    H261349   6.572   1.772  14.882 -0.7900  1.8889  0.5749
13312TIP3   OH261350   5.479   2.128  12.382 -0.3516 -0.0887  0.7306
13312TIP3    H161351   5.449   2.056  12.438 -0.0866 -1.9315 -1.3252
13312TIP3    H261352   5.575   2.122  12.384 -0.3225  0.3647  0.7326
13313TIP3   OH261353   4.825   1.598   2.235  0.2078  0.0816  0.2317
13313TIP3    H161354   4.840   1.608   2.141  2.4212 -1.7713  0.3005
13313TIP3    H261355   4.801   1.685   2.265 -1.8153  0.4702 -2.2225
13314TIP3   OH261356   2.570   1.856  13.067 -0.4260 -0.8412  0.2548
13314TIP3    H161357   2.625   1.908  13.126  0.7708 -2.2486  0.4261
13314TIP3    H261358   2.513   1.921  13.025  1.6396  0.7742 -0.2652
13315TIP3   OH261359   4.382   5.290   2.123  0.0249  0.8914  0.6335
13315TIP3    H161360   4.348   5.240   2.049 -0.5987  1.8388  0.2613
13315TIP3    H261361   4.439   5.228   2.169 -1.2594 -0.3744  0.6045
13316TIP3   OH261362   4.698   1.939  13.513  0.3976  0.2013 -0.6709
13316TIP3    H161363   4.794   1.940  13.510  0.3926 -0.4180 -1.3092
13316TIP3    H261364   4.675   1.847  13.503 -0.2788  0.4171 -1.1749
13317TIP3   OH261365   2.825   6.091   2.041 -0.2863 -0.1293  0.3444
13317TIP3    H161366   2.821   6.133   1.955  0.6186 -0.9742 -0.1428
13317TIP3    H261367   2.905   6.127   2.080  0.1978 -0.9557  0.1428
13318TIP3   OH261368   0.694   2.207   0.287  0.8620  0.1075  0.4950
13318TIP3    H161369   0.733   2.261   0.356  0.1450  0.1057  0.9088
13318TIP3    H261370   0.600   2.207   0.306  0.4033  1.4809 -1.4240
13319TIP3   OH261371   6.025   3.883  15.848 -0.1177 -0.0706  0.1889
13319TIP3    H161372   6.010   3.828  15.772 -1.9638  1.8626 -0.9609
13319TIP3    H261373   6.095   3.942  15.822 -0.2379  0.1122  0.2805
13320TIP3   OH261374   1.626   1.132   4.660 -0.0756  0.7480  0.0371
13320TIP3    H161375   1.624   1.170   4.748 -1.1272  0.7886 -0.0032
13320TIP3    H261376   1.719   1.115   4.644  0.1899  1.3406  0.8959
13321TIP3   OH261377   3.199   2.992   1.651 -0.7085 -0.2690 -0.3322
13321TIP3    H161378   3.284   3.034   1.634 -1.6007  1.3697 -0.9435
13321TIP3    H261379   3.136   3.047   1.605 -2.4159  0.1034  2.2543
13322TIP3   OH261380   1.699   2.880   2.886 -1.0490 -0.5720 -0.1140
13322TIP3    H161381   1.764   2.817   2.916  0.4542  0.4798 -1.0310
13322TIP3    H261382   1.624   2.827   2.860 -0.4499 -1.8404  0.6713
13323TIP3   OH261383   2.962   6.746  13.213 -0.1521  0.7448 -0.2793
13323TIP3    H161384   2.989   6.687  13.142 -0.8424 -0.1999  0.2275
13323TIP3    H261385   2.960   6.832  13.172  0.0228  0.2984 -1.2655
13324TIP3   OH261386   4.575   3.114  12.472  0.2520 -0.0836 -0.1926
13324TIP3    H161387   4.563   3.079  12.384 -0.5454  0.5068 -0.3327
13324TIP3    H261388   4.620   3.045  12.520 -1.3432 -1.3538 -0.4315
13325TIP3   OH261389   4.452   2.991  16.221  0.2957  0.8021 -0.0883
13325TIP3    H161390   4.414   2.969  16.136 -2.4533 -0.0050  1.2283
13325TIP3    H261391   4.407   3.071  16.248  0.4041  0.5203  1.0013
13326TIP3   OH261392   1.781   2.927  12.499 -0.0114  0.0644 -0.5081
13326TIP3    H161393   1.867   2.960  12.525  0.2966  0.6133 -2.1232
13326TIP3    H261394   1.778   2.838  12.535  0.7559  0.4218  0.5065
13327TIP3   OH261395   4.355   5.705   3.223 -0.9114  0.1567  0.6135
13327TIP3    H161396   4.422   5.718   3.156  0.0574 -0.6572  1.4044
13327TIP3    H261397   4.282   5.664   3.176 -0.5731  0.3682 -0.1079
13328TIP3   OH261398   4.935   0.512  15.850  0.5528  0.1388 -0.0929
13328TIP3    H161399   4.896   0.434  15.890  1.5528 -0.5472 -0.4264
13328TIP3    H261400   4.865   0.549  15.795  0.9515 -2.2275 -2.3424
13329TIP3   OH261401   0.541   3.276   0.699 -0.0390 -0.3335 -0.5848
13329TIP3    H161402   0.449   3.261   0.678 -0.5370  2.8891 -1.1383
13329TIP3    H261403   0.545   3.272   0.794 -1.0122  0.6115 -0.4871
13330TIP3   OH261404   1.517   4.147  11.474 -0.1746 -0.0341  0.2073
13330TIP3    H161405   1.483   4.063  11.443 -0.0210 -0.4707  1.1783
13330TIP3    H261406   1.522   4.137  11.569 -1.2555  1.4791  0.4680
13331TIP3   OH261407   5.556   2.676  11.835 -0.5462 -0.4352  0.5771
13331TIP3    H161408   5.465   2.650  11.849 -1.3244  0.8685 -1.6156
13331TIP3    H261409   5.564   2.685  11.740  1.8400 -0.3189  0.7323
13332TIP3   OH261410   2.865   0.691  15.667 -0.8287 -0.3591  0.1491
13332TIP3    H161411   2.808   0.768  15.667 -0.9324 -0.4266 -0.6218
13332TIP3    H261412   2.953   0.726  15.654 -0.8982 -0.3784 -0.4005
13333TIP3   OH261413   5.349   4.834  11.410  0.5875 -0.0575  0.4280
13333TIP3    H161414   5.310   4.865  11.491  0.0891  0.1237  0.1230
13333TIP3    H261415   5.349   4.738  11.419 -0.1559 -0.0735  0.3319
13334TIP3   OH261416   2.062   3.753  15.973 -0.3708  0.8336  0.3159
13334TIP3    H161417   2.130   3.738  16.038 -1.3829 -0.1950  1.1808
13334TIP3    H261418   2.110   3.780  15.894  0.9485  1.0453  1.1517
13335TIP3   OH261419   3.334   4.151  12.714  0.5234  0.3069  0.3835
13335TIP3    H161420   3.247   4.191  12.707 -0.0940 -0.6436  2.1473
13335TIP3    H261421   3.375   4.196  12.788  1.3573  0.4036 -0.1257
13336TIP3   OH261422   1.040   1.106  12.849  0.0932 -0.3633  0.1752
13336TIP3    H161423   1.039   1.170  12.920  0.2301 -0.5100  0.3095
13336TIP3    H261424   1.009   1.025  12.889  1.5015 -0.8090  0.4166
13337TIP3   OH261425   1.787   2.542   3.276 -0.2587 -0.4874  0.0678
13337TIP3    H161426   1.700   2.578   3.259  0.3193  0.9897  0.0897
13337TIP3    H261427   1.840   2.618   3.300  1.7857 -0.8646 -2.7225
13338TIP3   OH261428   0.503   3.374  13.916 -0.4956 -0.3533 -0.5103
13338TIP3    H161429   0.457   3.291  13.933 -1.1554 -0.2978 -1.8970
13338TIP3    H261430   0.548   3.393  13.998 -0.0586 -2.2620 -0.2516
13339TIP3   OH261431   2.713   5.328  17.036  0.0095 -0.1191 -0.4841
13339TIP3    H161432   2.629   5.374  17.031  0.1810  0.2786  0.1620
13339TIP3    H261433   2.737   5.314  16.944 -0.8690 -0.4533 -0.6826
13340TIP3   OH261434   4.709   2.693  16.784  0.4616  0.2109 -0.0519
13340TIP3    H161435   4.786   2.728  16.739  0.7194  0.4274  0.5483
13340TIP3    H261436   4.738   2.676  16.873  0.0527 -0.5657 -0.0564
13341TIP3   OH261437   5.179   0.706   5.379  0.7109  0.1983 -0.4126
13341TIP3    H161438   5.112   0.760   5.336  0.1031  1.7052  2.2155
13341TIP3    H261439   5.136   0.622   5.394  0.1361  0.4444 -0.6481
13342TIP3   OH261440   5.272   1.531   2.351 -0.3257 -0.4751  0.9952
13342TIP3    H161441   5.358   1.509   2.316 -0.3687 -0.9599  1.1788
13342TIP3    H261442   5.232   1.586   2.284  0.4807  0.5338  1.3187
13343TIP3   OH261443   2.409   1.567   1.851 -0.2759 -0.2928  0.2062
13343TIP3    H161444   2.314   1.565   1.865 -0.5094 -2.8652 -1.0564
13343TIP3    H261445   2.419   1.591   1.759  0.2998 -0.1672  0.2994
13344TIP3   OH261446   4.130   0.818   4.584 -0.4039  0.0502 -0.4945
13344TIP3    H161447   4.168   0.757   4.522  0.6398 -0.9923  1.0939
13344TIP3    H261448   4.050   0.775   4.616  0.4239 -0.6188  0.7544
13345TIP3   OH261449   0.353   1.520  13.986 -0.3285  0.0508 -0.0983
13345TIP3    H161450   0.294   1.537  14.060  1.4932 -2.2923  2.0883
13345TIP3    H261451   0.311   1.564  13.912 -2.4546  2.2658  2.1961
13346TIP3   OH261452   4.470   0.975   5.870 -0.3568 -0.2111  0.0327
13346TIP3    H161453   4.537   0.944   5.809  0.0273  0.8077 -0.0835
13346TIP3    H261454   4.519   1.014   5.943 -0.7568 -2.8683  1.8666
13347TIP3   OH261455   4.587   1.517   0.226  0.4341  0.7131 -0.2861
13347TIP3    H161456   4.658   1.537   0.165 -0.3182  1.2933 -0.9822
13347TIP3    H261457   4.584   1.422   0.230  0.9285  0.6809 -0.6255
13348TIP3   OH261458   2.552   6.354   4.580 -0.2823 -0.1180  0.8608
13348TIP3    H161459   2.500   6.403   4.643 -1.0531  0.8544 -0.4698
13348TIP3    H261460   2.595   6.285   4.631 -1.1461  0.4195  2.3516
13349TIP3   OH261461   2.724   6.582  13.036 -0.7188 -0.0727  0.3062
13349TIP3    H161462   2.721   6.600  13.130 -0.2828 -1.5612  0.6303
13349TIP3    H261463   2.726   6.669  12.995 -0.4676  0.5982  1.6817
13350TIP3   OH261464   2.216   1.938   2.678 -0.7492 -0.4566  0.2881
13350TIP3    H161465   2.286   1.990   2.641 -0.3498  0.6929  2.5013
13350TIP3    H261466   2.235   1.848   2.650  1.3028 -0.0925  0.3723
13351TIP3   OH261467   2.077   5.154  15.724 -0.3176 -0.1948 -0.4405
13351TIP3    H161468   2.009   5.098  15.687 -1.0166  0.6809 -0.4990
13351TIP3    H261469   2.140   5.166  15.653  1.2636 -3.0242  0.3035
13352TIP3   OH261470   5.055   1.158   3.911  0.5664 -0.5681 -0.3494
13352TIP3    H161471   4.966   1.145   3.877  0.4469 -0.0700 -0.2267
13352TIP3    H261472   5.052   1.121   4.000  0.3045  0.0274 -0.1072
13353TIP3   OH261473   0.527   6.638   2.618  0.1820  0.7151  0.0144
13353TIP3    H161474   0.594   6.571   2.629  0.5696  1.2812  1.3104
13353TIP3    H261475   0.497   6.628   2.528 -0.5025 -1.8482  0.4663
13354TIP3   OH261476   1.095   4.995  13.868 -0.1311  0.4554  0.1240
13354TIP3    H161477   1.081   5.089  13.857 -1.8696  0.2462  0.3698
13354TIP3    H261478   1.034   4.969  13.937  1.5271 -0.5651  1.2909
13355TIP3   OH261479   0.010   2.471  12.876 -0.5331  0.1472 -0.1383
13355TIP3    H161480   0.096   2.494  12.840 -0.9517  0.4820 -0.9541
13355TIP3    H261481  -0.007   2.382  12.845  0.6987 -1.0349  2.2952
13356TIP3   OH261482   2.977   3.264   2.433  0.4436 -0.4014 -0.7211
13356TIP3    H161483   3.020   3.262   2.348  0.8183  0.3456 -0.5605
13356TIP3    H261484   3.000   3.181   2.475 -0.5293 -1.2019 -1.7167
13357TIP3   OH261485   1.722   4.737  11.635 -0.4434 -0.7090 -0.1882
13357TIP3    H161486   1.803   4.689  11.654 -0.6641 -0.4792  1.4555
13357TIP3    H261487   1.742   4.787  11.556  0.2634 -2.3860 -1.1191
13358TIP3   OH261488   4.635   4.381   5.821 -0.6097  1.0333  0.6620
13358TIP3    H161489   4.722   4.419   5.835  0.6019 -0.3351 -2.2771
13358TIP3    H261490   4.586   4.450   5.777 -0.5119  1.3159  0.9952
13359TIP3   OH261491   6.358   6.397  16.385  0.0189  0.4378  0.0480
13359TIP3    H161492   6.346   6.354  16.300  0.6558 -0.1313  0.2351
13359TIP3    H261493   6.273   6.389  16.428 -0.2193  0.4565 -0.4104
13360TIP3   OH261494   1.161   1.591   2.013  0.6224  0.0014  0.1395
13360TIP3    H161495   1.147   1.636   1.930 -1.1537 -0.2676  0.2506
13360TIP3    H261496   1.099   1.632   2.073  0.9291 -0.7188  0.9627
13361TIP3   OH261497   0.215   1.283  12.405 -0.4124  0.2645 -0.6002
13361TIP3    H161498   0.258   1.197  12.404 -0.7478  0.0700  0.5977
13361TIP3    H261499   0.287   1.346  12.407 -0.1262  0.0964 -2.6565
13362TIP3   OH261500   5.263   5.309   3.016  0.1541  0.1907  0.2315
13362TIP3    H161501   5.257   5.371   3.088 -1.4722  1.1566 -0.6972
13362TIP3    H261502   5.336   5.341   2.963  0.4606  0.2655  0.6928
13363TIP3   OH261503   4.583   4.081  15.239  0.6583 -0.2229  0.2295
13363TIP3    H161504   4.530   4.009  15.274  0.3690  0.2126  0.6911
13363TIP3    H261505   4.664   4.078  15.290  1.0611 -0.8347 -0.4195
13364TIP3   OH261506   3.070   5.766   4.234 -0.2702  0.4795  0.0415
13364TIP3    H161507   3.108   5.747   4.320 -0.3644  1.0025  0.2017
13364TIP3    H261508   3.142   5.751   4.172  0.2950  1.7425  0.3672
13365TIP3   OH261509   0.768   3.111   3.916  0.1278  0.7695 -0.2090
13365TIP3    H161510   0.684   3.079   3.884 -0.6539  2.5140 -0.0064
13365TIP3    H261511   0.823   3.117   3.838  1.2802 -3.4983  0.0174
13366TIP3   OH261512   6.627   5.431   1.695 -0.2985  0.3489 -0.2297
13366TIP3    H161513   6.602   5.393   1.611 -2.0125  0.0821  0.3562
13366TIP3    H261514   6.645   5.523   1.675 -1.5601  0.5024 -0.7733
13367TIP3   OH261515   6.593   3.643  16.900  0.0317  0.0413  0.4679
13367TIP3    H161516   6.535   3.630  16.975  0.0604 -0.5853  0.3815
13367TIP3    H261517   6.538   3.687  16.835 -1.4272 -3.5220 -0.9286
13368TIP3   OH261518   4.559   1.794  16.233  0.5053 -0.3938 -0.1630
13368TIP3    H161519   4.610   1.872  16.212  1.0682 -1.1353 -1.6332
13368TIP3    H261520   4.488   1.827  16.289  1.6157  0.9100  0.5532
13369TIP3   OH261521   2.939   1.861  14.006  0.1521 -0.3178 -0.6859
13369TIP3    H161522   2.986   1.888  13.927  0.7316  1.2133  0.1498
13369TIP3    H261523   2.945   1.766  14.006  0.2724 -0.3490 -2.3942
13370TIP3   OH261524   1.525   5.820   0.837 -0.4289 -0.3286  0.7970
13370TIP3    H161525   1.464   5.865   0.896 -1.5779  0.3935 -0.8419
13370TIP3    H261526   1.469   5.766   0.781  0.7872 -2.4754  1.5352
13371TIP3   OH261527   0.092   5.974   5.987  0.5038 -0.5971  0.3706
13371TIP3    H161528   0.078   5.928   6.069  0.6109 -0.1296  0.6502
13371TIP3    H261529   0.044   6.056   5.996  0.6963 -0.4456  0.0505
13372TIP3   OH261530   3.029   2.006  13.769  0.5593  0.2566  0.1922
13372TIP3    H161531   2.995   2.091  13.741  0.8332  1.0162  2.0576
13372TIP3    H261532   3.112   2.026  13.812  1.0834 -1.0760 -0.1457
13373TIP3   OH261533   0.068   5.649  15.652  0.1418  0.5307  0.3008
13373TIP3    H161534   0.109   5.586  15.711 -0.6445  0.3725  0.6889
13373TIP3    H261535   0.028   5.595  15.583  0.3118  0.6623  0.0996
13374TIP3   OH261536   1.601   6.187   1.855  0.2136 -0.6871 -0.1999
13374TIP3    H161537   1.671   6.161   1.914 -0.4582  0.4066  1.1402
13374TIP3    H261538   1.550   6.252   1.905  0.0905  0.9204 -2.2673
13375TIP3   OH261539   0.849   4.136  11.451  0.4711  0.3205 -0.4291
13375TIP3    H161540   0.763   4.116  11.415  0.2248  0.0311  0.3192
13375TIP3    H261541   0.874   4.219  11.409 -0.6425  0.9756  0.1645
13376TIP3   OH261542   5.208   3.681  15.960  0.4370  0.6279  0.3383
13376TIP3    H161543   5.152   3.705  16.035  1.8104 -0.8599  1.9180
13376TIP3    H261544   5.187   3.589  15.943  0.1281  0.9481 -1.1880
13377TIP3   OH261545   2.400   2.548  17.078 -0.1474  0.4053 -0.3072
13377TIP3    H161546   2.346   2.555  16.999 -1.4398 -0.3604  0.4656
13377TIP3    H261547   2.490   2.544  17.046 -0.6729 -0.3350 -1.7688
13378TIP3   OH261548   5.862   4.057   1.492 -0.0835  0.1787 -0.4372
13378TIP3    H161549   5.874   4.051   1.397 -3.2769  2.0253 -1.1164
13378TIP3    H261550   5.883   4.148   1.513  0.8515 -0.2812  0.7125
13379TIP3   OH261551   0.284   6.388   2.091  0.2597 -0.6597 -0.7676
13379TIP3    H161552   0.315   6.300   2.072  1.3738 -0.2405 -0.9735
13379TIP3    H261553   0.343   6.420   2.159  1.0091  0.5617 -1.9324
13380TIP3   OH261554   2.328   3.678  11.717  0.4968 -0.2079 -0.0224
13380TIP3    H161555   2.244   3.634  11.732  1.2582 -1.5248  0.5818
13380TIP3    H261556   2.336   3.739  11.790  0.7885 -1.2721  0.8758
13381TIP3   OH261557   5.159   3.380  11.661 -0.2500 -0.1011  0.0373
13381TIP3    H161558   5.124   3.457  11.617  0.1257 -0.1716 -0.3925
13381TIP3    H261559   5.253   3.397  11.667 -0.0346 -0.9026 -0.8406
13382TIP3   OH261560   1.287   1.275  13.745  0.3637  0.8206  0.5438
13382TIP3    H161561   1.209   1.229  13.774 -1.0954  2.6890 -0.2435
13382TIP3    H261562   1.351   1.206  13.728 -0.7379 -0.6835  2.2205
13383TIP3   OH261563   0.006   2.305  12.469 -0.4126 -0.8906 -0.2853
13383TIP3    H161564   0.035   2.225  12.425 -0.3658 -1.2443  0.3777
13383TIP3    H261565  -0.074   2.280  12.515 -0.9315 -0.3056 -0.8602
13384TIP3   OH261566   6.071   0.364   5.327  0.4315  0.5656  0.4220
13384TIP3    H161567   5.989   0.401   5.359 -0.2279  2.4595 -3.0521
13384TIP3    H261568   6.068   0.272   5.356 -1.9536  1.0615  2.0376
13385TIP3   OH261569   1.363   2.181  14.391 -0.5354 -0.6040 -0.2009
13385TIP3    H161570   1.287   2.144  14.436  0.8385 -1.3566  1.6636
13385TIP3    H261571   1.411   2.106  14.357 -0.1784 -0.1995 -0.6170
13386TIP3   OH261572   3.295   1.929   0.806  0.1387 -0.5941 -0.5249
13386TIP3    H161573   3.357   1.891   0.744  0.2814 -0.2989 -0.5634
13386TIP3    H261574   3.329   2.016   0.824 -0.2213 -0.4591 -0.4869
13387TIP3   OH261575   3.764   2.481  16.014 -0.1594 -0.4392  0.1472
13387TIP3    H161576   3.767   2.565  16.059 -1.2668 -0.7147  0.7651
13387TIP3    H261577   3.836   2.430  16.053 -0.6395 -0.4131  1.0809
13388TIP3   OH261578   3.753   4.099   6.529  0.2050  0.2418  0.7528
13388TIP3    H161579   3.836   4.112   6.575  0.5154 -1.1728  0.6506
13388TIP3    H261580   3.734   4.183   6.488  2.1550  0.3099 -0.1238
13389TIP3   OH261581   0.041   2.452   4.288 -0.1996  0.0986 -0.1847
13389TIP3    H161582  -0.033   2.487   4.339 -1.0690 -0.6855 -0.8684
13389TIP3    H261583   0.014   2.363   4.265  0.7122  0.0064 -0.9618
13390TIP3   OH261584   2.702   3.493  16.548 -0.3529 -0.6334  0.6775
13390TIP3    H161585   2.668   3.513  16.636 -0.4143  0.3883  0.4408
13390TIP3    H261586   2.754   3.571  16.525 -1.6468 -0.1636 -0.8445
13391TIP3   OH261587   4.883   2.561   5.633 -0.7278  0.3411  0.3498
13391TIP3    H161588   4.966   2.533   5.595 -0.5811 -1.2511  1.7293
13391TIP3    H261589   4.825   2.577   5.558  0.1873 -0.5850 -0.5712
13392TIP3   OH261590   4.384   6.688  13.806  0.0047 -0.6095  0.0801
13392TIP3    H161591   4.455   6.736  13.848 -1.0295 -0.2949  1.5285
13392TIP3    H261592   4.361   6.619  13.868 -1.2001 -0.4705 -0.1875
13393TIP3   OH261593   4.030   3.005   0.021 -0.3657  0.0205 -0.3742
13393TIP3    H161594   4.050   2.918  -0.013 -0.6006 -0.1047 -0.2012
13393TIP3    H261595   3.934   3.005   0.030 -0.2456 -0.3184  1.2556
13394TIP3   OH261596   6.409   2.517   2.059 -0.0009 -0.4557  0.0295
13394TIP3    H161597   6.380   2.429   2.035 -2.4029 -0.0645  1.2010
13394TIP3    H261598   6.331   2.571   2.052  0.6332  0.9462  2.3749
13395TIP3   OH261599   6.495   3.600   5.305 -0.4367  0.5725 -0.0521
13395TIP3    H161600   6.584   3.635   5.305 -0.5768  0.9292 -0.0561
13395TIP3    H261601   6.447   3.655   5.367 -0.7489  0.6242 -0.3359
13396TIP3   OH261602   1.017   1.494  16.508  0.4711  0.3913  0.1125
13396TIP3    H161603   0.959   1.569  16.523 -0.2482 -0.3379  1.1115
13396TIP3    H261604   1.103   1.533  16.493 -0.2291  1.5002 -1.2980
13397TIP3   OH261605   0.620   0.232   0.927  0.1069  0.1405  0.5019
13397TIP3    H161606   0.525   0.225   0.917  0.0712  0.3212  0.6985
13397TIP3    H261607   0.655   0.220   0.839 -0.1089  0.2634  0.3987
13398TIP3   OH261608   4.478   1.783  11.903  0.4273  0.3567 -0.3296
13398TIP3    H161609   4.573   1.783  11.909  0.3781  0.7632  0.5909
13398TIP3    H261610   4.460   1.779  11.809  1.3746  3.7359 -0.7707
13399TIP3   OH261611   1.120   2.635   0.574  0.1811  0.1036  0.0864
13399TIP3    H161612   1.147   2.708   0.630 -0.3705  0.7643 -0.4895
13399TIP3    H261613   1.182   2.638   0.500 -0.6360  0.8286 -0.5972
13400TIP3   OH261614   2.724   3.115   6.527  0.0855  0.3822 -0.4707
13400TIP3    H161615   2.748   3.147   6.614 -1.8057 -0.5914  0.4593
13400TIP3    H261616   2.648   3.168   6.502  0.3941  0.4151 -1.3936
13401TIP3   OH261617   2.770   2.502   1.690  0.0348 -0.2340 -0.3917
13401TIP3    H161618   2.814   2.525   1.607  0.2909 -0.2399 -0.2597
13401TIP3    H261619   2.815   2.556   1.756 -0.3096 -0.0741 -0.2871
13402TIP3   OH261620   0.795   2.654  10.740  0.1423 -0.3205  0.1805
13402TIP3    H161621   0.759   2.743  10.733 -0.8801 -0.7159  0.1467
13402TIP3    H261622   0.748   2.605  10.672  1.3880 -0.6809 -0.4426
13403TIP3   OH261623   2.012   4.184   0.969  0.2356 -0.2419 -0.2452
13403TIP3    H161624   1.937   4.154   0.917  0.9206  0.8198 -1.9410
13403TIP3    H261625   1.995   4.277   0.984  0.2816 -0.4354  1.0703
13404TIP3   OH261626   0.294   4.091   5.227 -0.1264  0.4663 -0.2486
13404TIP3    H161627   0.251   4.176   5.232  0.1938  0.6143  0.0171
13404TIP3    H261628   0.264   4.054   5.144 -0.3904  0.7705 -0.2901
13405TIP3   OH261629   5.674   2.200   4.735 -0.2416 -0.2131 -0.1968
13405TIP3    H161630   5.724   2.280   4.754 -1.2424 -0.1132  2.5432
13405TIP3    H261631   5.607   2.228   4.673 -0.5125  1.0753  0.6388
13406TIP3   OH261632   0.853   1.389  13.858  0.0613  0.0392 -0.2302
13406TIP3    H161633   0.871   1.380  13.951 -1.1034  1.9074  0.2291
13406TIP3    H261634   0.932   1.428  13.821 -0.1645  1.0414  0.3329
13407TIP3   OH261635   4.867   1.707   1.993  0.6093  0.2609  0.4265
13407TIP3    H161636   4.914   1.700   1.910  0.8049 -0.0630  0.5605
13407TIP3    H261637   4.910   1.778   2.040  1.6884 -0.7460  1.0032
13408TIP3   OH261638   1.356   4.630  15.573 -0.3455  0.4262 -0.2212
13408TIP3    H161639   1.262   4.613  15.574 -0.2869  0.1089  0.7931
13408TIP3    H261640   1.391   4.575  15.643  0.3920  1.6665  0.4154
13409TIP3   OH261641   4.310   3.676  10.966  0.1028  0.1597 -0.7353
13409TIP3    H161642   4.360   3.690  11.047 -0.3026  1.6838 -0.7189
13409TIP3    H261643   4.365   3.712  10.897  0.1134 -0.4415 -1.0389
13410TIP3   OH261644   3.187   2.129  15.886 -0.4097  0.0908  0.0366
13410TIP3    H161645   3.167   2.103  15.796 -1.8536 -0.7204  0.5705
13410TIP3    H261646   3.104   2.158  15.922 -0.3653 -1.7524  1.8018
13411TIP3   OH261647   3.010   0.865  12.088 -0.1976  0.2568  0.2779
13411TIP3    H161648   3.056   0.818  12.158  0.3643  1.2087  0.5567
13411TIP3    H261649   3.073   0.870  12.017  0.1622  1.6018  0.6760
13412TIP3   OH261650   2.837   2.256  11.056 -0.4126  0.1110  0.3621
13412TIP3    H161651   2.932   2.253  11.047 -0.2276  0.4853  1.9172
13412TIP3    H261652   2.814   2.174  11.099 -1.2409 -1.5938 -2.9585
13413TIP3   OH261653   0.860   4.365  16.213 -0.2842 -0.0933  0.0051
13413TIP3    H161654   0.860   4.319  16.129  1.8149 -0.0107 -0.1146
13413TIP3    H261655   0.847   4.457  16.190  0.0865 -0.0957 -0.2321
13414TIP3   OH261656   2.297   6.281   3.674 -0.6852 -0.0959  0.2434
13414TIP3    H161657   2.270   6.366   3.708 -0.8292 -0.2073  0.4098
13414TIP3    H261658   2.384   6.297   3.636 -1.1036  0.3305 -0.5688
13415TIP3   OH261659   2.141   1.067   1.115 -0.0791  0.6520 -0.1671
13415TIP3    H161660   2.067   1.008   1.100 -0.1475  0.7509 -0.2182
13415TIP3    H261661   2.211   1.010   1.147 -0.2755  0.6048  0.1782
13416TIP3   OH261662   2.133   0.502  14.442  0.2097 -0.6196  0.2688
13416TIP3    H161663   2.060   0.543  14.489  0.3483  0.4555 -0.4318
13416TIP3    H261664   2.133   0.412  14.474 -0.9106 -0.4276  0.8904
13417TIP3   OH261665   5.780   5.080  14.491 -0.1396 -0.7726  0.2767
13417TIP3    H161666   5.727   5.000  14.494 -0.9872 -0.2395 -0.1309
13417TIP3    H261667   5.741   5.137  14.556 -0.3255 -0.2177 -0.3126
13418TIP3   OH261668   3.154   3.686  14.562 -0.1511 -0.2561 -0.0953
13418TIP3    H161669   3.222   3.724  14.617  0.0669 -1.1275  0.2633
13418TIP3    H261670   3.073   3.730  14.589 -0.0712 -0.7911  1.0638
13419TIP3   OH261671   3.940   4.111  12.773  0.2971 -0.1672 -0.5937
13419TIP3    H161672   4.014   4.165  12.745 -0.9547  1.5085 -0.8364
13419TIP3    H261673   3.942   4.035  12.715  2.6245 -0.9042  0.3161
13420TIP3   OH261674   6.463   2.891   5.768  0.7667 -0.2095 -0.0973
13420TIP3    H161675   6.489   2.861   5.855  0.0696 -0.5774 -0.0128
13420TIP3    H261676   6.465   2.813   5.713 -1.7235 -0.6229  0.2808
13421TIP3   OH261677   0.171   3.525   5.255  0.2741 -0.1944  0.1072
13421TIP3    H161678   0.206   3.459   5.196 -0.0980 -0.2849 -0.0156
13421TIP3    H261679   0.208   3.503   5.341 -0.8269 -1.3211  0.3198
13422TIP3   OH261680   5.754   3.707  13.767 -0.1091  0.6906 -0.1231
13422TIP3    H161681   5.785   3.649  13.697  0.3717  1.7217 -0.7933
13422TIP3    H261682   5.666   3.734  13.738 -0.1336  0.6847 -0.0541
13423TIP3   OH261683   2.515   1.396  17.152 -0.4011 -0.3105  0.3091
13423TIP3    H161684   2.505   1.333  17.081 -0.5345 -1.0984  1.0031
13423TIP3    H261685   2.568   1.350  17.217  0.5233  0.7380  0.3272
13424TIP3   OH261686   4.637   5.618  11.829 -0.1025 -0.0903  0.1422
13424TIP3    H161687   4.632   5.590  11.737 -1.4273 -0.0868  0.1980
13424TIP3    H261688   4.547   5.611  11.861  0.5147 -1.1284  1.7571
13425TIP3   OH261689   0.804   4.768   5.252  0.2540  0.0096  0.4229
13425TIP3    H161690   0.866   4.841   5.247  0.4286 -0.1675 -0.0228
13425TIP3    H261691   0.812   4.724   5.167  0.3372 -0.6859  0.7935
13426TIP3   OH261692   6.157   3.848   4.403 -0.3445 -0.6726 -0.0118
13426TIP3    H161693   6.227   3.794   4.367  0.4961 -0.2171  0.9116
13426TIP3    H261694   6.202   3.918   4.450 -1.4207 -0.0390  0.1136
13427TIP3   OH261695   5.735   0.049  11.529  0.2849  0.3147  0.4715
13427TIP3    H161696   5.740   0.121  11.466  1.3802  0.5545  0.8032
13427TIP3    H261697   5.727  -0.030  11.475  0.8369  0.5506  0.0329
13428TIP3   OH261698   4.824   0.658   2.410 -0.0327  0.3900 -0.7910
13428TIP3    H161699   4.875   0.675   2.490 -0.1642  1.3649 -0.9041
13428TIP3    H261700   4.866   0.712   2.343  0.1675 -0.5389 -1.4271
13429TIP3   OH261701   3.286   2.360   2.250 -0.1695 -0.0493  0.0709
13429TIP3    H161702   3.326   2.409   2.322 -1.5006  0.7754  0.2730
13429TIP3    H261703   3.345   2.374   2.176  0.3289  0.4934  0.5629
13430TIP3   OH261704   4.899   4.450   5.841 -0.3206  0.0682  0.2448
13430TIP3    H161705   4.902   4.408   5.927 -0.0705  0.3619  0.3783
13430TIP3    H261706   4.873   4.540   5.859 -2.6284 -0.4383 -0.1954
13431TIP3   OH261707   4.269   1.329  16.670  0.0413 -0.3340 -0.1175
13431TIP3    H161708   4.218   1.313  16.749 -0.4356 -1.0491 -0.5650
13431TIP3    H261709   4.357   1.347  16.702 -0.6974  2.2815  0.7795
13432TIP3   OH261710   4.572   6.093   5.156 -0.8639 -0.1406  0.4211
13432TIP3    H161711   4.622   6.033   5.100  3.0440  1.0157  2.3581
13432TIP3    H261712   4.506   6.130   5.097 -1.0449 -3.4518 -1.7688
13433TIP3   OH261713   0.803   4.211  15.621 -0.3298  0.1222 -0.3153
13433TIP3    H161714   0.879   4.183  15.570  0.2202 -0.3985  0.7514
13433TIP3    H261715   0.840   4.242  15.703 -1.3231 -1.0991  0.6410
13434TIP3   OH261716   0.672   0.897   5.342  0.8383 -0.2285 -0.3901
13434TIP3    H161717   0.665   0.935   5.255 -2.5047  0.8420  0.2034
13434TIP3    H261718   0.626   0.814   5.337  0.7996 -0.2606  0.3006
13435TIP3   OH261719   3.669   4.127  14.383  0.3327  0.1425 -0.4189
13435TIP3    H161720   3.647   4.107  14.474  1.3755 -1.2279 -0.4499
13435TIP3    H261721   3.713   4.212  14.387 -0.9243  0.7862  0.1608
13436TIP3   OH261722   2.210   3.459   1.893 -0.1655 -0.0835 -0.0786
13436TIP3    H161723   2.288   3.424   1.850 -0.0086 -0.4337  0.4827
13436TIP3    H261724   2.142   3.395   1.874 -0.3336  0.2346 -0.5901
13437TIP3   OH261725   6.257   6.578  13.951  0.1833 -0.6301 -0.3348
13437TIP3    H161726   6.257   6.553  13.858 -0.1073 -1.3552 -0.1453
13437TIP3    H261727   6.350   6.583  13.974  0.2490 -1.2483 -0.4551
13438TIP3   OH261728   0.007   3.284   1.147  0.1835  0.0101  0.0347
13438TIP3    H161729   0.020   3.314   1.056  0.4063  0.6687  0.2751
13438TIP3    H261730  -0.079   3.317   1.171  0.8618  1.4043  0.6516
13439TIP3   OH261731   0.452   2.025   2.008 -0.1681 -0.3089  0.2883
13439TIP3    H161732   0.487   1.954   1.954  3.3274 -0.3446  2.3133
13439TIP3    H261733   0.509   2.099   1.990 -1.5773  0.9756  0.8595
13440TIP3   OH261734   5.272   0.649   0.904  0.1514 -0.3506 -0.2140
13440TIP3    H161735   5.280   0.554   0.906  1.7261 -0.2676 -0.7789
13440TIP3    H261736   5.282   0.676   0.995  0.1163 -0.7021 -0.1049
13441TIP3   OH261737   0.395   1.409  12.025 -0.9222 -0.1461 -0.4370
13441TIP3    H161738   0.466   1.434  12.084  0.9435  0.4594 -2.7835
13441TIP3    H261739   0.315   1.420  12.077  0.2858  3.9154  0.9558
13442TIP3   OH261740   3.237   1.508  15.956 -0.8512  0.0769  0.4697
13442TIP3    H161741   3.168   1.551  16.007 -2.4673 -1.0704 -0.6390
13442TIP3    H261742   3.258   1.571  15.887 -1.1716  0.2328  0.5103
13443TIP3   OH261743   1.807   1.129   3.233 -0.1175 -0.0602 -0.2038
13443TIP3    H161744   1.725   1.179   3.240  0.9963  1.7714  0.4621
13443TIP3    H261745   1.825   1.125   3.140 -0.6917 -0.0378 -0.3220
13444TIP3   OH261746   0.244   6.366   1.796  0.5075  0.2877 -0.8173
13444TIP3    H161747   0.277   6.363   1.886  0.9791  1.7209 -0.9170
13444TIP3    H261748   0.150   6.382   1.805  0.5967  0.7044 -0.5680
13445TIP3   OH261749   3.598   0.961   0.100 -0.0295  0.1898  0.1729
13445TIP3    H161750   3.653   1.024   0.146 -0.3093  1.3313 -0.9836
13445TIP3    H261751   3.655   0.928   0.030  0.6530 -2.1033  1.6972
13446TIP3   OH261752   1.236   4.748  12.147 -0.3015  0.0048  0.1469
13446TIP3    H161753   1.216   4.722  12.057  0.6972  0.3798 -0.2032
13446TIP3    H261754   1.164   4.713  12.199 -0.7772 -0.4145 -0.7687
13447TIP3   OH261755   5.504   4.466  15.326  0.2442 -0.3044 -0.0909
13447TIP3    H161756   5.499   4.506  15.413 -0.9881 -1.2155  0.2811
13447TIP3    H261757   5.596   4.442  15.315  0.2888 -0.7586  1.2250
13448TIP3   OH261758   6.532   1.145  13.709 -0.0427 -0.2053  0.0511
13448TIP3    H161759   6.597   1.118  13.645  1.3477  0.7842  0.9889
13448TIP3    H261760   6.583   1.175  13.784 -1.5507  1.5801  0.4458
13449TIP3   OH261761   4.592   2.425   2.744  0.1443  0.2073 -0.9417
13449TIP3    H161762   4.652   2.393   2.677  1.4279  1.0352 -0.2408
13449TIP3    H261763   4.633   2.398   2.827 -0.7572  0.2864 -0.4561
13450TIP3   OH261764   1.894   6.481  13.186  0.5742 -0.0076  0.2116
13450TIP3    H161765   1.806   6.445  13.200 -0.1812  2.0374  1.0742
13450TIP3    H261766   1.935   6.420  13.125 -1.1916 -1.3965  0.3262
13451TIP3   OH261767   6.038   3.929  13.542  0.0239  0.1017  0.0559
13451TIP3    H161768   6.048   4.023  13.561  2.3992  0.0339 -0.4888
13451TIP3    H261769   5.960   3.903  13.591  1.5630  1.5016  3.6998
13452TIP3   OH261770   4.607   1.681   0.504  0.3308 -0.1470 -0.1045
13452TIP3    H161771   4.591   1.613   0.438  1.9133 -0.7472  0.0953
13452TIP3    H261772   4.585   1.639   0.587  0.6373 -0.1845 -0.0420
13453TIP3   OH261773   1.438   4.436   4.178 -0.3022  0.1117 -0.4644
13453TIP3    H161774   1.494   4.490   4.123 -0.2532 -0.6256 -1.1572
13453TIP3    H261775   1.498   4.371   4.215 -0.7129 -0.7930 -1.3507
13454TIP3   OH261776   4.600   5.685  16.194 -0.2346 -0.3216  0.0244
13454TIP3    H161777   4.529   5.656  16.251 -1.5325 -0.4249 -1.5870
13454TIP3    H261778   4.556   5.726  16.119  1.4412  2.0084  0.1947
13455TIP3   OH261779   1.906   2.594   0.865 -0.1679 -0.3342  0.3638
13455TIP3    H161780   1.890   2.643   0.945  2.0208  0.6113  0.2802
13455TIP3    H261781   1.826   2.606   0.814 -1.4070 -0.5234  2.1382
13456TIP3   OH261782   0.027   6.501  15.301  0.0752 -0.0850 -0.5886
13456TIP3    H161783  -0.040   6.561  15.269 -1.8650 -1.6977  0.2099
13456TIP3    H261784   0.093   6.499  15.232 -1.8434 -0.2111 -2.5313
13457TIP3   OH261785   1.800   4.233  13.036  0.4632  0.2719  0.0985
13457TIP3    H161786   1.860   4.206  12.967 -0.3580 -0.3690 -0.3780
13457TIP3    H261787   1.856   4.279  13.099  1.3788  0.0577 -0.5322
13458TIP3   OH261788   5.270   3.199  15.753 -0.7093  0.5383 -0.1879
13458TIP3    H161789   5.330   3.154  15.693 -0.0255  2.7237 -1.2561
13458TIP3    H261790   5.223   3.261  15.697 -0.2652  2.4551  1.4448
13459TIP3   OH261791   3.230   6.403  11.451  0.2064  0.5204  0.2920
13459TIP3    H161792   3.305   6.374  11.398 -1.5482 -1.3581 -1.3048
13459TIP3    H261793   3.234   6.349  11.529  0.3833  0.2738  0.1143
13460TIP3   OH261794   5.316   0.334  12.839  0.0377 -0.3758 -0.1931
13460TIP3    H161795   5.225   0.306  12.834 -0.1206  0.1005 -0.0154
13460TIP3    H261796   5.313   0.429  12.829  0.6899 -0.5291 -2.3214
13461TIP3   OH261797   5.272   6.086  13.992 -0.3081 -0.0126 -0.3441
13461TIP3    H161798   5.219   6.164  14.008 -0.1989  0.1339 -0.6748
13461TIP3    H261799   5.279   6.044  14.077 -3.4678 -1.6811 -0.7596
13462TIP3   OH261800   4.362   0.794   1.527  0.0931  0.0646 -0.4749
13462TIP3    H161801   4.352   0.764   1.437  0.4755 -1.3452 -0.0727
13462TIP3    H261802   4.272   0.799   1.560 -0.0132 -0.0213 -0.7438
13463TIP3   OH261803   2.176   5.775   0.817 -0.4219 -0.5072 -0.1361
13463TIP3    H161804   2.081   5.763   0.816 -0.4013 -0.6657 -0.1763
13463TIP3    H261805   2.191   5.853   0.762 -0.6312  0.2737  0.8893
13464TIP3   OH261806   1.960   1.705   4.551  0.1370 -0.4713 -0.0377
13464TIP3    H161807   1.957   1.780   4.610  3.1816 -3.2808  4.1840
13464TIP3    H261808   2.036   1.721   4.495 -0.8288  0.6574 -1.1202
13465TIP3   OH261809   4.011   4.683   2.429 -0.5402  0.1353 -0.1055
13465TIP3    H161810   3.951   4.637   2.488  1.0199 -1.0545  0.6363
13465TIP3    H261811   4.060   4.742   2.487 -2.5510  2.9090 -1.0511
13466TIP3   OH261812   1.730   6.083  16.646  0.7067 -0.1292  0.1805
13466TIP3    H161813   1.781   6.150  16.601  0.6127 -0.4947 -0.4871
13466TIP3    H261814   1.643   6.088  16.606  0.9576 -1.2831 -0.5701
13467TIP3   OH261815   1.675   3.946  17.120  0.0030  0.8031  0.0224
13467TIP3    H161816   1.715   3.863  17.094 -0.7398  0.5975 -0.4721
13467TIP3    H261817   1.721   3.970  17.201  0.7979  0.3390 -0.2804
13468TIP3   OH261818   1.886   2.256  11.088 -0.0447 -0.7133  0.5188
13468TIP3    H161819   1.978   2.275  11.072 -0.0356 -0.3033  1.0511
13468TIP3    H261820   1.887   2.178  11.144 -0.0633 -1.6954 -0.7938
13469TIP3   OH261821   0.127   1.148  13.326  1.0356  0.3497 -0.1550
13469TIP3    H161822   0.208   1.148  13.378  1.3772  2.6319 -0.6075
13469TIP3    H261823   0.141   1.214  13.258 -0.5023 -0.5517 -1.4179
13470TIP3   OH261824   4.500   1.103  12.403  0.4535 -0.2511 -0.6090
13470TIP3    H161825   4.512   1.193  12.372 -0.8332  0.0573 -0.2480
13470TIP3    H261826   4.524   1.106  12.495 -0.8318  0.0257 -0.2706
13471TIP3   OH261827   2.451   6.026   1.339 -0.1572 -0.1862  0.6808
13471TIP3    H161828   2.501   5.945   1.340  0.7097  0.2741 -1.4585
13471TIP3    H261829   2.514   6.094   1.314 -1.4741  0.6500 -0.5555
13472TIP3   OH261830   3.099   3.006   5.616 -0.4417 -0.1927 -0.6252
13472TIP3    H161831   3.059   3.073   5.672  2.6687  1.8735 -0.6124
13472TIP3    H261832   3.158   2.958   5.674 -0.6636 -1.1876 -1.2064
13473TIP3   OH261833   1.615   4.148   5.245  0.2491  0.4520 -0.0810
13473TIP3    H161834   1.702   4.113   5.267 -0.4815 -1.0814  0.4909
13473TIP3    H261835   1.609   4.230   5.294  0.5835 -0.4616  1.5351
13474TIP3   OH261836   5.932   4.528   4.515  0.8772 -0.0810  0.2732
13474TIP3    H161837   5.922   4.528   4.610 -0.6883  1.1021  0.1553
13474TIP3    H261838   5.853   4.483   4.484  0.7709  0.6144 -0.4883
13475TIP3   OH261839   3.092   1.192  12.010  0.9329  0.5661 -0.0291
13475TIP3    H161840   3.005   1.231  12.017  0.8388  0.1082  1.7756
13475TIP3    H261841   3.152   1.262  12.034  0.9675  0.4458  0.2319
13476TIP3   OH261842   4.366   3.658  12.618  0.6214  0.2472  0.4965
13476TIP3    H161843   4.346   3.565  12.610 -0.9329  0.5361  0.7614
13476TIP3    H261844   4.439   3.672  12.558 -0.2232 -0.8146 -0.8340
13477TIP3   OH261845   3.333   4.415  13.737 -0.5390  0.8814  0.8474
13477TIP3    H161846   3.417   4.457  13.721 -0.2689  0.9518  2.2849
13477TIP3    H261847   3.306   4.382  13.652  0.1621  2.2651  0.0516
13478TIP3   OH261848   5.283   0.958  16.537  0.0173 -0.8330 -0.2126
13478TIP3    H161849   5.325   1.012  16.604  1.4616  1.4794 -2.7662
13478TIP3    H261850   5.281   0.870  16.575  0.7377  0.3307  2.8124
13479TIP3   OH261851   1.508   1.982   4.641 -0.0389 -0.0406 -0.7348
13479TIP3    H161852   1.582   2.009   4.695  0.0282  1.3613 -1.4931
13479TIP3    H261853   1.455   1.926   4.698  0.3878  0.8476  0.5592
13480TIP3   OH261854   3.240   5.340   3.787  0.6338  0.9076 -0.0235
13480TIP3    H161855   3.239   5.367   3.696  1.2279  1.7919  0.2126
13480TIP3    H261856   3.318   5.383   3.824  1.7872 -1.3715  0.3341
13481TIP3   OH261857   4.148   3.246  14.035 -0.2566 -0.0650 -0.5870
13481TIP3    H161858   4.162   3.233  13.941 -2.4246 -0.2873 -0.9325
13481TIP3    H261859   4.142   3.342  14.044 -1.2904 -0.0821 -0.9175
13482TIP3   OH261860   0.445   5.849  15.406  0.6015  0.0138 -0.0262
13482TIP3    H161861   0.412   5.939  15.412  1.7073  0.3518  1.8424
13482TIP3    H261862   0.536   5.859  15.380  0.6647 -0.5949 -0.0512
13483TIP3   OH261863   2.681   5.227   2.477 -0.6186  0.2401 -0.0612
13483TIP3    H161864   2.720   5.142   2.497 -0.2154  0.2626 -0.7188
13483TIP3    H261865   2.728   5.288   2.534 -0.4889  0.1106 -0.0288
13484TIP3   OH261866   0.837   5.472  12.350  0.1931 -0.3507  0.4803
13484TIP3    H161867   0.851   5.380  12.371 -2.2013 -1.5692 -2.5191
13484TIP3    H261868   0.922   5.502  12.317  1.0911 -1.3136  1.8080
13485TIP3   OH261869   6.743   0.476   1.229  0.1269 -0.1780  0.2691
13485TIP3    H161870   6.787   0.392   1.245  0.6928  0.3087  1.4095
13485TIP3    H261871   6.685   0.487   1.305 -0.0860  0.3783  0.0304
13486TIP3   OH261872   5.533   2.663  15.151 -0.4959  0.1936 -0.0886
13486TIP3    H161873   5.527   2.596  15.083  3.5147  0.5061 -0.9648
13486TIP3    H261874   5.506   2.743  15.107 -0.5105 -0.0452 -0.5235
13487TIP3   OH261875   0.912   5.203  15.898 -0.4917 -0.3704  0.2788
13487TIP3    H161876   0.864   5.206  15.981  2.1300  0.1821  1.9112
13487TIP3    H261877   0.903   5.291  15.861 -0.9621 -0.3541  0.4344
13488TIP3   OH261878   4.840   5.151  16.001  0.0253  0.1107  0.1272
13488TIP3    H161879   4.845   5.231  16.053 -1.1800 -0.1923  0.7577
13488TIP3    H261880   4.792   5.089  16.057 -0.4369 -0.5514 -0.9564
13489TIP3   OH261881   0.163   0.143   3.195  0.3951  0.0994  0.4742
13489TIP3    H161882   0.194   0.060   3.158  1.2682 -0.3000  2.0320
13489TIP3    H261883   0.213   0.210   3.149  1.7646 -0.4134  1.1654
13490TIP3   OH261884   2.210   2.468  12.200 -0.2019  0.4725 -0.2236
13490TIP3    H161885   2.299   2.482  12.232 -0.2734  2.6378 -0.8402
13490TIP3    H261886   2.162   2.547  12.226 -1.4106  0.2559 -1.6771
13491TIP3   OH261887   2.655   3.856  10.640 -0.4291  0.3002 -0.5022
13491TIP3    H161888   2.636   3.798  10.714 -1.1921  0.0955 -0.8434
13491TIP3    H261889   2.575   3.907  10.629 -0.2374  0.4898 -1.0422
13492TIP3   OH261890   2.673   0.509  14.552  0.1170  0.5919  0.4043
13492TIP3    H161891   2.745   0.490  14.491 -0.5179  3.8334 -1.5753
13492TIP3    H261892   2.714   0.506  14.639  2.5603  1.7089 -0.6134
13493TIP3   OH261893   2.100   3.874  16.722  0.2370  0.1038  0.3624
13493TIP3    H161894   2.183   3.910  16.754  0.8951 -0.6915 -0.4273
13493TIP3    H261895   2.089   3.912  16.635 -0.3148  0.3129  0.5121
13494TIP3   OH261896   4.512   0.474   6.117  0.0163 -0.0988  0.1524
13494TIP3    H161897   4.584   0.513   6.167  1.3348 -1.4093 -0.6453
13494TIP3    H261898   4.462   0.549   6.084  0.7980  0.8331  1.0015
13495TIP3   OH261899   4.891   0.195  15.636  0.2542  0.1773  0.2944
13495TIP3    H161900   4.852   0.261  15.578 -1.1427  0.1998  1.2258
13495TIP3    H261901   4.853   0.112  15.607  1.8008 -0.2297 -0.6970
13496TIP3   OH261902   0.046   6.643  13.750  0.3226  0.0132 -0.7401
13496TIP3    H161903   0.139   6.659  13.766  0.2055 -0.6497  0.8385
13496TIP3    H261904   0.037   6.548  13.754 -0.6512  0.1290  0.7236
13497TIP3   OH261905   4.343   1.568   6.719  0.3192 -0.9178 -0.1118
13497TIP3    H161906   4.425   1.551   6.766  0.3902 -1.3378 -0.3865
13497TIP3    H261907   4.278   1.582   6.788  0.6586 -0.3934  0.1093
13498TIP3   OH261908   1.895   5.942   3.581 -0.0423 -0.1709 -0.7733
13498TIP3    H161909   1.866   5.851   3.575  2.4293 -0.9348 -2.4548
13498TIP3    H261910   1.858   5.985   3.504 -1.6759  0.4763  0.3065
13499TIP3   OH261911   0.594   4.247  14.104  0.8622 -0.2741  0.2424
13499TIP3    H161912   0.623   4.338  14.103 -2.4503  1.0851 -3.8772
13499TIP3    H261913   0.513   4.249  14.155  0.4775 -0.7122 -0.3353
13500TIP3   OH261914   5.811   5.912  16.170 -0.0751 -0.2376 -0.3069
13500TIP3    H161915   5.725   5.885  16.204  0.5959 -0.5656  1.2219
13500TIP3    H261916   5.843   5.975  16.234  1.1676 -0.7357 -0.4156
13501TIP3   OH261917   2.678   5.684  16.590 -0.7537  0.0752  0.1754
13501TIP3    H161918   2.597   5.652  16.548 -1.3726 -0.1110  1.4521
13501TIP3    H261919   2.715   5.746  16.527 -1.7702 -0.0133 -0.5407
13502TIP3   OH261920   1.048   2.973  12.922 -0.1063 -0.0329 -0.4864
13502TIP3    H161921   1.113   2.983  12.992 -0.0054 -0.1422 -0.5642
13502TIP3    H261922   1.077   2.897  12.872 -0.4669 -0.2778 -0.3333
13503TIP3   OH261923   2.222   6.605  12.522  0.4743  0.1410  0.3851
13503TIP3    H161924   2.133   6.572  12.534 -0.1487  2.1721  1.7653
13503TIP3    H261925   2.243   6.649  12.604  2.2283  0.9178 -0.4280
13504TIP3   OH261926   4.899   1.466  11.539  0.6513 -0.3285  0.1811
13504TIP3    H161927   4.841   1.398  11.505 -0.9752  0.6091  0.9972
13504TIP3    H261928   4.932   1.430  11.622  0.5381 -0.5161  0.1451
13505TIP3   OH261929   3.936   5.037  14.078 -0.7170 -0.0210  0.4730
13505TIP3    H161930   3.882   5.008  14.151 -1.3714  0.0370  0.0202
13505TIP3    H261931   3.904   5.125  14.058 -0.6147 -0.0785  0.0523
13506TIP3   OH261932   5.273   2.514   0.018  0.1663  0.0696 -0.1803
13506TIP3    H161933   5.300   2.442  -0.039 -1.5968 -1.4253  0.7494
13506TIP3    H261934   5.295   2.484   0.107  3.8657  2.7984  0.0456
13507TIP3   OH261935   5.549   0.333   1.922 -0.9366  0.0877 -0.1947
13507TIP3    H161936   5.623   0.386   1.951  0.7281 -0.4036 -3.1747
13507TIP3    H261937   5.480   0.396   1.903 -0.1756  0.8755 -0.4120
13508TIP3   OH261938   6.263   3.384  15.139 -0.4164 -0.2943 -1.1687
13508TIP3    H161939   6.280   3.299  15.180 -0.3377  0.7683  1.1628
13508TIP3    H261940   6.211   3.431  15.204  0.2358  1.7466 -2.0722
13509TIP3   OH261941   3.956   3.563  11.847 -0.1306 -0.3101  0.8173
13509TIP3    H161942   3.922   3.479  11.814 -1.7422  0.6121  0.0194
13509TIP3    H261943   3.988   3.608  11.769 -2.1926  1.0950  0.7242
13510TIP3   OH261944   5.289   3.067   0.228  0.0424 -0.3764  1.0410
13510TIP3    H161945   5.239   3.114   0.294  0.6014 -0.0647  1.2514
13510TIP3    H261946   5.268   2.975   0.242 -0.3223 -0.2600  1.2483
13511TIP3   OH261947   0.515   3.065  16.651 -0.2853  0.3242  0.1577
13511TIP3    H161948   0.576   3.131  16.619 -0.6147  1.0785  1.0558
13511TIP3    H261949   0.430   3.090  16.613 -0.6187  1.0499  1.3490
13512TIP3   OH261950   2.194   0.514  15.430  0.2427  0.0977 -0.2856
13512TIP3    H161951   2.188   0.465  15.348 -1.3260 -1.1573  0.5142
13512TIP3    H261952   2.251   0.461  15.485  1.5495  1.0994 -0.6516
13513TIP3   OH261953   5.241   0.272   4.155  0.7340 -0.1621  0.9893
13513TIP3    H161954   5.169   0.215   4.183  1.2150 -0.6095  1.3374
13513TIP3    H261955   5.312   0.212   4.132  0.7536  0.2501 -0.0411
13514TIP3   OH261956   3.553   2.125  16.680  0.3285  0.5264  0.2860
13514TIP3    H161957   3.489   2.072  16.632 -0.1809 -0.3768  1.8768
13514TIP3    H261958   3.631   2.123  16.625  0.7906 -3.0368  0.7787
13515TIP3   OH261959   3.923   1.072  14.228 -0.2031  0.1431 -0.4194
13515TIP3    H161960   3.975   0.998  14.197 -0.3279 -0.1017 -0.0502
13515TIP3    H261961   3.970   1.103  14.306 -0.0910  0.5220 -0.6362
13516TIP3   OH261962   0.478   3.727  15.167 -0.6477 -0.7096 -0.1154
13516TIP3    H161963   0.486   3.662  15.238  1.3473 -0.7657 -0.3146
13516TIP3    H261964   0.518   3.806  15.203 -0.7747 -0.3596 -0.7387
13517TIP3   OH261965   3.852   0.001   5.798 -0.2888  0.1698 -0.3100
13517TIP3    H161966   3.832   0.093   5.784  0.0803  0.2414 -0.3667
13517TIP3    H261967   3.924  -0.017   5.738 -1.4239 -0.5644 -1.5287
13518TIP3   OH261968   6.627   2.278   5.447  0.2127 -0.4166 -0.4943
13518TIP3    H161969   6.654   2.285   5.538 -0.5406  2.3698 -0.4020
13518TIP3    H261970   6.677   2.347   5.402 -1.4566  0.1219 -1.6190
13519TIP3   OH261971   6.681   6.412  12.609 -0.1843 -0.1976  0.0298
13519TIP3    H161972   6.656   6.321  12.625 -1.2172 -0.1124 -0.9445
13519TIP3    H261973   6.598   6.460  12.611  0.3485  0.7346  0.5552
13520TIP3   OH261974   4.700   5.693   4.503 -0.0551 -0.3533 -0.4029
13520TIP3    H161975   4.759   5.705   4.428 -0.1672 -0.0159 -0.4393
13520TIP3    H261976   4.614   5.679   4.464  0.2367 -2.5059 -0.4062
13521TIP3   OH261977   2.217   5.232   3.888  0.1871  0.4291 -0.3626
13521TIP3    H161978   2.267   5.314   3.887 -0.5370  0.9132  0.8962
13521TIP3    H261979   2.257   5.178   3.819  0.3546  2.0125 -1.5457
13522TIP3   OH261980   5.397   4.905  12.169 -0.6893  0.7468  0.4488
13522TIP3    H161981   5.309   4.943  12.162 -1.4920 -0.2247  3.6802
13522TIP3    H261982   5.389   4.838  12.236  2.1459 -0.7256 -0.5375
13523TIP3   OH261983   3.382   0.299  14.372  0.5097  0.4428 -0.6761
13523TIP3    H161984   3.401   0.277  14.463 -2.9938  2.4210  0.7151
13523TIP3    H261985   3.364   0.214  14.330 -2.2527 -0.3240  1.7339
13524TIP3   OH261986   1.100   1.530  14.138  0.2954 -0.4345 -0.1653
13524TIP3    H161987   1.118   1.555  14.047  0.5123 -0.3041 -0.0871
13524TIP3    H261988   1.050   1.449  14.131 -0.1647 -0.1362 -0.4197
13525TIP3   OH261989   6.363   3.302  16.031  0.1039  0.5439 -0.8254
13525TIP3    H161990   6.438   3.252  16.062 -1.9495 -1.3312  1.5629
13525TIP3    H261991   6.346   3.268  15.943  0.6691 -0.7043 -0.4756
13526TIP3   OH261992   1.578   3.141   1.846  0.0099 -0.1169  0.2789
13526TIP3    H161993   1.529   3.206   1.796 -1.6259 -1.2396  0.3287
13526TIP3    H261994   1.549   3.154   1.937 -1.0186 -1.4373  0.1714
13527TIP3   OH261995   5.958   1.092   0.830  0.2676 -0.0068 -0.1060
13527TIP3    H161996   5.924   1.133   0.909 -0.3989  1.9956 -1.3463
13527TIP3    H261997   5.889   1.033   0.801  1.5349 -2.7862  2.1089
13528TIP3   OH261998   0.041   1.202  14.930  0.0801 -0.8712 -0.1508
13528TIP3    H161999   0.103   1.256  14.881  2.1888 -2.7123  0.3039
13528TIP3    H262000   0.039   1.242  15.017  1.6802 -1.4951  0.2065
13529TIP3   OH262001   4.735   6.070   3.328  0.4102 -0.1380  0.0982
13529TIP3    H162002   4.728   5.979   3.357  2.5566 -1.1053 -2.0850
13529TIP3    H262003   4.767   6.118   3.405  0.1406 -1.3926  1.0102
13530TIP3   OH262004   2.510   2.916   0.389 -0.2472  0.0860  0.3856
13530TIP3    H162005   2.589   2.896   0.339 -1.3791  0.1172 -1.5011
13530TIP3    H262006   2.497   2.838   0.443  1.3872  0.3368  1.2120
13531TIP3   OH262007   4.605   3.404  12.409 -0.5527 -0.2801 -0.2847
13531TIP3    H162008   4.556   3.322  12.421  1.9336 -2.4426 -3.2362
13531TIP3    H262009   4.572   3.439  12.327  0.9054 -0.3170 -0.9078
13532TIP3   OH262010   3.719   3.758   2.988  0.1472  0.2344 -0.5423
13532TIP3    H162011   3.678   3.708   2.917  0.1934  2.3432 -2.1569
13532TIP3    H262012   3.682   3.721   3.068 -0.4158 -1.8005 -1.6609
13533TIP3   OH262013   4.698   0.599  15.752  0.4955  0.0807 -0.1597
13533TIP3    H162014   4.711   0.670  15.689  2.1286 -1.0407 -1.1660
13533TIP3    H262015   4.657   0.641  15.828 -1.8759  1.4445 -2.0369
13534TIP3   OH262016   0.233   2.373   2.481  0.3375 -0.0967 -0.3491
13534TIP3    H162017   0.146   2.353   2.515  0.2042  1.0241  0.0150
13534TIP3    H262018   0.238   2.327   2.397  0.3587 -2.2276  0.7608
13535TIP3   OH262019   5.914   5.037  16.544 -0.0706  0.0854 -0.3589
13535TIP3    H162020   5.878   4.973  16.605 -2.2916  2.6095  1.1789
13535TIP3    H262021   5.985   5.080  16.593 -0.8404  1.0755 -0.0883
13536TIP3   OH262022   5.933   5.140   4.976 -0.1177  0.2608 -0.2307
13536TIP3    H162023   5.995   5.086   5.025 -1.9918  0.2191  2.3084
13536TIP3    H262024   5.864   5.079   4.949 -0.9583  0.9033  0.4035
13537TIP3   OH262025   5.090   6.527  16.423 -0.3651 -0.2675 -0.2984
13537TIP3    H162026   5.041   6.483  16.493 -0.8751 -2.2952 -1.8272
13537TIP3    H262027   5.031   6.595  16.392 -0.8938 -0.5657  0.0324
13538TIP3   OH262028   6.444   1.607  15.313  0.7301  0.1271 -0.3488
13538TIP3    H162029   6.443   1.562  15.397 -0.6312 -1.5024 -1.1815
13538TIP3    H262030   6.443   1.700  15.336  2.1793 -0.2359  1.4109
13539TIP3   OH262031   6.535   6.028   1.019  0.7278  0.4309  0.1497
13539TIP3    H162032   6.531   6.123   1.032 -0.5126  0.1963  1.9335
13539TIP3    H262033   6.497   5.992   1.099  1.9268 -1.6080 -0.1330
13540TIP3   OH262034   2.848   4.885  14.960  0.2022  0.5731  0.1844
13540TIP3    H162035   2.885   4.811  14.913  2.3922  2.1950 -0.8568
13540TIP3    H262036   2.923   4.942  14.979 -1.1178  1.6937  2.5362
13541TIP3   OH262037   2.616   3.269   1.593 -0.1131  0.2186 -0.1713
13541TIP3    H162038   2.707   3.271   1.563 -0.0120  1.2098  0.1654
13541TIP3    H262039   2.592   3.176   1.593  0.0793  0.1040 -2.7076
13542TIP3   OH262040   5.882   0.836  12.309  0.3880  0.0712 -0.1360
13542TIP3    H162041   5.803   0.888  12.316  0.3533  0.2436 -1.4945
13542TIP3    H262042   5.882   0.804  12.219  2.1517  0.5512 -0.3481
13543TIP3   OH262043   4.104   6.631  12.791 -0.0959  0.2099  0.7495
13543TIP3    H162044   4.117   6.723  12.767  1.7516 -0.1071  0.3463
13543TIP3    H262045   4.011   6.623  12.808 -0.6629  1.6641 -1.2975
13544TIP3   OH262046   3.713   5.511  10.476  0.6514  0.0163 -0.8616
13544TIP3    H162047   3.703   5.548  10.564 -0.4136  0.0909 -1.0009
13544TIP3    H262048   3.628   5.524  10.435 -0.3187 -3.7840 -0.4439
13545TIP3   OH262049   4.038   5.281   5.877 -0.3264 -0.1605 -0.1646
13545TIP3    H162050   4.060   5.234   5.796  0.3343  1.0887 -0.7487
13545TIP3    H262051   4.045   5.215   5.946  1.3131 -0.7680 -0.8524
13546TIP3   OH262052   4.062   4.528  11.484 -0.1416 -0.0764  0.3383
13546TIP3    H162053   4.136   4.546  11.426 -0.1960  1.1714  0.6254
13546TIP3    H262054   4.096   4.548  11.572 -0.1629 -1.6050  0.7292
13547TIP3   OH262055   3.394   0.504   1.890 -0.4433  0.1681  0.3721
13547TIP3    H162056   3.436   0.547   1.965 -0.8765  0.9575  0.1654
13547TIP3    H262057   3.371   0.417   1.922 -1.1531  0.6954  1.3454
13548TIP3   OH262058   1.218   3.638   2.955 -0.2263 -0.2342  0.0262
13548TIP3    H162059   1.200   3.725   2.919  1.1383 -0.1046 -0.3877
13548TIP3    H262060   1.244   3.586   2.879  0.2163 -0.6549  0.4648
13549TIP3   OH262061   0.535   1.037  11.257 -0.0861 -0.1577 -0.4070
13549TIP3    H162062   0.538   1.011  11.166 -0.7097 -0.7843 -0.2483
13549TIP3    H262063   0.494   1.124  11.256  2.1200  0.9619 -0.9431
13550TIP3   OH262064   6.398   5.856   0.469 -0.3627 -0.1305 -0.1687
13550TIP3    H162065   6.484   5.895   0.483 -2.1513  2.9349  5.9915
13550TIP3    H262066   6.411   5.762   0.481  2.1162  0.2981  1.1141
13551TIP3   OH262067   3.360   1.356   4.843  0.2616 -0.0138  0.5312
13551TIP3    H162068   3.417   1.301   4.789 -0.2289 -0.3262  0.3252
13551TIP3    H262069   3.355   1.309   4.927  0.7311  0.2841  0.7249
13552TIP3   OH262070   4.051   5.302   6.673  0.0258  0.1590  0.4190
13552TIP3    H162071   4.131   5.280   6.720 -0.9192 -1.3463  1.3902
13552TIP3    H262072   4.057   5.256   6.590  0.4492  0.5799  0.2130
13553TIP3   OH262073   3.634   5.144   3.197  0.6054  0.1490  0.3232
13553TIP3    H162074   3.686   5.190   3.263  1.1435 -0.8056  0.5788
13553TIP3    H262075   3.543   5.158   3.224  0.6375  2.4803 -0.5507
13554TIP3   OH262076   5.873   5.280  15.518 -0.0056 -0.2716 -0.2291
13554TIP3    H162077   5.814   5.355  15.528 -0.1664 -0.3434 -0.6334
13554TIP3    H262078   5.844   5.218  15.585 -1.1308 -0.7826 -1.1510
13555TIP3   OH262079   2.943   2.209  15.982 -0.2903 -0.3417 -0.2572
13555TIP3    H162080   2.849   2.214  15.998 -0.6572  0.2868 -2.3198
13555TIP3    H262081   2.981   2.277  16.038 -0.9067 -1.2826  1.3753
13556TIP3   OH262082   4.704   1.965   0.405 -0.4329  1.1898 -0.2226
13556TIP3    H162083   4.647   1.889   0.414  0.2950  0.6832  0.2372
13556TIP3    H262084   4.704   2.005   0.492  0.9296  0.4309  0.1599
13557TIP3   OH262085   1.998   5.562   1.269  0.3725  0.3213 -0.2090
13557TIP3    H162086   2.052   5.606   1.204 -0.2451  0.7771 -0.4236
13557TIP3    H262087   1.909   5.565   1.233 -0.0983  1.2010  0.9639
13558TIP3   OH262088   3.317   2.795  16.987  0.3669 -0.5889  0.6756
13558TIP3    H162089   3.403   2.787  17.029  1.7957 -0.8608 -2.0295
13558TIP3    H262090   3.308   2.714  16.936 -0.5110  0.3506 -0.7197
13559TIP3   OH262091   2.253   1.933   6.599  0.7154 -0.1108 -0.1673
13559TIP3    H162092   2.231   1.979   6.679  2.8527 -0.3163  0.6006
13559TIP3    H262093   2.227   1.842   6.616  0.7463 -0.0678  0.1150
13560TIP3   OH262094   6.158   2.997  12.232  0.3036 -0.0495  0.2224
13560TIP3    H162095   6.234   3.013  12.287  0.7016  0.5696 -0.4783
13560TIP3    H262096   6.188   3.018  12.143 -0.2753 -1.1820 -0.2553
13561TIP3   OH262097   5.817   2.436   4.739  0.1924 -1.0593 -0.0898
13561TIP3    H162098   5.841   2.497   4.669  2.5719 -0.8358  0.8282
13561TIP3    H262099   5.900   2.397   4.767 -0.6859 -1.3969  2.3617
13562TIP3   OH262100   0.765   6.327  11.556 -0.0217 -0.1303 -0.6272
13562TIP3    H162101   0.682   6.287  11.582 -0.9405  1.4353 -1.0246
13562TIP3    H262102   0.792   6.377  11.633 -0.7299  1.3250 -1.2827
13563TIP3   OH262103   5.756   4.732  16.960  0.1797  0.3154 -0.5401
13563TIP3    H162104   5.740   4.826  16.961 -0.1224  0.3158 -2.0440
13563TIP3    H262105   5.716   4.702  16.878 -1.0630 -1.3759  0.6060
13564TIP3   OH262106   5.027   4.540   5.613 -0.6397 -0.4361 -0.0668
13564TIP3    H162107   5.077   4.544   5.695  0.9461 -0.7969 -0.9580
13564TIP3    H262108   4.967   4.615   5.618  1.0552  0.9869  0.4349
13565TIP3   OH262109   4.522   6.657  12.665 -0.3604 -0.0565  0.1280
13565TIP3    H162110   4.506   6.643  12.758 -0.0093 -2.2144 -0.1027
13565TIP3    H262111   4.562   6.744  12.660  0.8026 -0.4418  2.1094
13566TIP3   OH262112   1.773   5.440  12.306 -0.2747 -0.5310  0.1523
13566TIP3    H162113   1.780   5.379  12.379 -2.1893 -0.9110  0.0713
13566TIP3    H262114   1.751   5.385  12.231 -0.0962  0.0516 -0.3346
13567TIP3   OH262115   4.864   2.222   4.584  0.2003  0.6099  0.0322
13567TIP3    H162116   4.812   2.174   4.520  0.1248 -0.6822  1.0262
13567TIP3    H262117   4.813   2.300   4.604 -2.7010 -1.6964  2.7364
13568TIP3   OH262118   5.531   4.289  11.492  0.9316  0.7204  0.9678
13568TIP3    H162119   5.539   4.254  11.403 -0.5376  0.8282  0.7701
13568TIP3    H262120   5.450   4.250  11.526  1.6327  0.4323  2.3835
13569TIP3   OH262121   4.704   6.133   1.968 -0.1976 -0.5298  0.0812
13569TIP3    H162122   4.748   6.161   1.888 -1.0441 -0.1453 -0.2522
13569TIP3    H262123   4.620   6.179   1.968  0.4442  0.7573  2.0096
13570TIP3   OH262124   4.465   4.817   1.130  0.1826 -0.1230 -0.4684
13570TIP3    H162125   4.432   4.728   1.137  1.2031 -0.4836  0.0286
13570TIP3    H262126   4.423   4.864   1.202  3.6414 -1.5696  2.8618
13571TIP3   OH262127   2.170   2.652  12.562  0.3372 -0.0779  0.1245
13571TIP3    H162128   2.140   2.627  12.649 -0.2114  1.0540  0.2862
13571TIP3    H262129   2.185   2.747  12.568  1.1526 -0.1277 -0.7696
13572TIP3   OH262130   2.834   2.857   3.908 -0.1257 -0.2058  0.0153
13572TIP3    H162131   2.769   2.792   3.881  0.7711 -0.3871 -1.9252
13572TIP3    H262132   2.914   2.806   3.923  0.1602  0.2628  0.0971
13573TIP3   OH262133   0.044   5.013   1.987  0.1866  0.2187 -0.2324
13573TIP3    H162134  -0.002   5.013   1.903  1.1500  2.0448 -0.8094
13573TIP3    H262135  -0.026   5.017   2.052 -0.5735  2.2322 -1.0621
13574TIP3   OH262136   3.215   4.825  14.265 -0.4585 -0.0099 -0.3659
13574TIP3    H162137   3.229   4.741  14.223 -0.3956 -0.5834  0.7501
13574TIP3    H262138   3.152   4.807  14.335  0.9040  0.4543  1.0569
13575TIP3   OH262139   5.024   2.804  11.728 -0.2125 -0.7049  0.1405
13575TIP3    H162140   5.070   2.794  11.645 -0.5988 -0.7626 -0.0733
13575TIP3    H262141   5.058   2.885  11.766 -1.2898  0.2720 -0.9077
13576TIP3   OH262142   1.518   5.142   1.823  0.4645 -0.8477 -0.0556
13576TIP3    H162143   1.434   5.124   1.781  0.3791 -0.0903 -0.2269
13576TIP3    H262144   1.506   5.227   1.865  1.1925 -0.6555 -0.2170
13577TIP3   OH262145   2.913   4.177  12.075  0.1721 -0.3891 -0.3780
13577TIP3    H162146   2.996   4.205  12.037 -0.1284  1.8504  0.4876
13577TIP3    H262147   2.863   4.142  12.001  1.3406 -0.4460 -1.1615
13578TIP3   OH262148   0.722   5.269   3.218  0.2635  0.1333 -0.4797
13578TIP3    H162149   0.767   5.274   3.134  1.7881 -0.0292  0.2924
13578TIP3    H262150   0.786   5.228   3.277 -0.7364  0.3313  0.7758
13579TIP3   OH262151   2.555   5.516  12.894 -0.5399  0.2432  0.0009
13579TIP3    H162152   2.490   5.545  12.959 -0.2587  0.4743  0.1807
13579TIP3    H262153   2.517   5.437  12.856 -1.0430  0.5168 -0.0701
13580TIP3   OH262154   1.696   4.945   3.677 -0.2346 -0.1152  0.3274
13580TIP3    H162155   1.729   4.963   3.765  1.5606 -1.7143  0.0292
13580TIP3    H262156   1.668   4.854   3.679 -3.1783  0.6708  0.0570
13581TIP3   OH262157   2.853   5.562   2.429 -0.3863  0.6433  0.0642
13581TIP3    H162158   2.914   5.594   2.363 -0.5014  1.5115  0.3679
13581TIP3    H262159   2.899   5.489   2.470  0.2660  1.0022 -0.0108
13582TIP3   OH262160   1.955   1.762  12.025  0.2680  0.2394  0.0118
13582TIP3    H162161   1.999   1.740  12.107 -1.5050 -1.0087  0.6939
13582TIP3    H262162   1.863   1.773  12.049 -0.2707 -0.0480 -1.7809
13583TIP3   OH262163   1.254   1.077  13.453  0.0986 -0.6562  0.5959
13583TIP3    H162164   1.301   0.995  13.468 -0.1851 -0.8989  0.2024
13583TIP3    H262165   1.185   1.077  13.519 -0.3162 -1.0671  0.1743
13584TIP3   OH262166   0.934   4.373  16.735 -0.1297 -0.1730 -0.3743
13584TIP3    H162167   1.002   4.399  16.673  0.9264  0.0391  0.8120
13584TIP3    H262168   0.981   4.362  16.818 -1.3017 -1.5621  0.1445
13585TIP3   OH262169   5.429   3.108   6.091  0.1244 -0.3107  0.1859
13585TIP3    H162170   5.359   3.164   6.124 -1.9330 -2.4403 -0.2485
13585TIP3    H262171   5.497   3.112   6.158 -0.1892  2.1378  0.4484
13586TIP3   OH262172   1.737   1.514  15.954 -0.4444 -0.6879 -0.0482
13586TIP3    H162173   1.710   1.526  16.045  0.7657  1.6772  0.0868
13586TIP3    H262174   1.685   1.578  15.905  1.3593  0.5702 -0.4368
13587TIP3   OH262175   2.103   2.578   2.886  0.3971 -0.0940  0.0274
13587TIP3    H162176   2.156   2.504   2.857  0.8763  0.2769 -0.0552
13587TIP3    H262177   2.162   2.630   2.941  0.1540  0.3726 -0.1443
13588TIP3   OH262178   4.281   3.336   5.565  0.8901  0.0377 -0.4963
13588TIP3    H162179   4.214   3.316   5.631  0.3709  1.6150 -0.5249
13588TIP3    H262180   4.361   3.347   5.616  0.6444  0.4820 -0.1944
13589TIP3   OH262181   0.412   5.601   5.863  0.7285 -0.1727  0.2307
13589TIP3    H162182   0.482   5.631   5.921  1.5783 -0.8455 -0.4000
13589TIP3    H262183   0.331   5.631   5.904  1.3559  0.1177  1.2894
13590TIP3   OH262184   0.866   2.031   5.612 -0.1498  0.1023  0.3975
13590TIP3    H162185   0.857   2.020   5.517  0.4880  3.1371 -0.1238
13590TIP3    H262186   0.955   2.064   5.624  0.2510 -1.5111  2.2453
13591TIP3   OH262187   4.840   3.439  13.967  0.2866  0.1212 -0.4440
13591TIP3    H162188   4.777   3.418  13.899  0.0768  1.3688 -0.6403
13591TIP3    H262189   4.926   3.423  13.927  0.1310 -1.1150 -0.3241
13592TIP3   OH262190   3.663   4.663   2.045 -0.3003 -0.0478  0.3531
13592TIP3    H162191   3.699   4.586   2.089 -0.8508 -1.5758 -1.6941
13592TIP3    H262192   3.715   4.736   2.079  0.4199 -1.3235  2.1834
13593TIP3   OH262193   4.951   0.469  16.823  0.5058  0.0861  0.0183
13593TIP3    H162194   4.943   0.458  16.917  0.7900  0.6406  0.1077
13593TIP3    H262195   5.013   0.401  16.796  0.4817 -0.0235  0.2368
13594TIP3   OH262196   3.247   4.956   5.827 -0.2982  0.5005  0.3020
13594TIP3    H162197   3.247   4.910   5.743 -1.0060 -0.2905  0.7278
13594TIP3    H262198   3.253   4.888   5.893 -0.3121  1.0812  0.9182
13595TIP3   OH262199   3.804   1.914   2.508  0.4541  0.5408 -0.6488
13595TIP3    H162200   3.884   1.947   2.548  0.1549  0.9379 -0.3737
13595TIP3    H262201   3.734   1.945   2.565  0.1078  0.1191 -0.8355
13596TIP3   OH262202   4.926   4.741  11.727  0.2455  0.1450 -0.3230
13596TIP3    H162203   4.934   4.814  11.789 -1.0300 -0.5318  0.7096
13596TIP3    H262204   4.834   4.743  11.700  1.1881  1.8186 -4.0839
13597TIP3   OH262205   3.316   3.110   2.024  0.6659 -0.3788 -0.3185
13597TIP3    H162206   3.405   3.081   2.042  0.3328 -0.4059  1.4986
13597TIP3    H262207   3.314   3.126   1.930  2.6693 -0.0425 -0.3352
13598TIP3   OH262208   0.603   0.519   3.259  0.1190  0.0314 -0.0689
13598TIP3    H162209   0.549   0.596   3.245 -0.1900 -0.1691  0.0072
13598TIP3    H262210   0.680   0.551   3.305 -0.3962  0.1622  0.7217
13599TIP3   OH262211   2.025   4.428  11.903  0.0901  0.0847  0.7868
13599TIP3    H162212   2.009   4.335  11.886 -0.6423  0.4650 -0.7749
13599TIP3    H262213   1.956   4.454  11.964 -2.8447  0.6470 -2.4391
13600TIP3   OH262214   0.141   5.245   0.618  0.6743 -0.6335  0.4771
13600TIP3    H162215   0.092   5.323   0.645  0.2661 -0.3328 -1.0179
13600TIP3    H262216   0.224   5.279   0.584  0.1686 -0.7448 -0.9357
13601TIP3   OH262217   2.059   5.875   1.693 -0.5580  0.3527  0.0551
13601TIP3    H162218   2.028   5.800   1.643  1.0700 -1.4713  1.6211
13601TIP3    H262219   2.087   5.939   1.627 -0.7531 -0.9521 -1.3282
13602TIP3   OH262220   1.253   0.132   5.531 -0.5117  0.1507 -0.6374
13602TIP3    H162221   1.203   0.054   5.556  0.2432 -0.6852 -1.6611
13602TIP3    H262222   1.281   0.170   5.615 -0.5955 -0.8694 -0.1338
13603TIP3   OH262223   0.894   1.331  11.835 -0.9154  0.0609  0.0553
13603TIP3    H162224   0.953   1.383  11.780 -1.5819  0.3502 -0.4042
13603TIP3    H262225   0.952   1.280  11.891 -0.1755 -0.7163 -1.3456
13604TIP3   OH262226   3.082   6.339  16.684 -0.6749  0.3709  0.2287
13604TIP3    H162227   3.009   6.280  16.664  0.2177 -0.3584 -1.0676
13604TIP3    H262228   3.092   6.392  16.605  0.3953  0.2138  0.2347
13605TIP3   OH262229   3.404   3.098   1.527 -0.2264  0.3559  0.3945
13605TIP3    H162230   3.424   3.170   1.468 -1.1972  1.1138  0.9797
13605TIP3    H262231   3.440   3.021   1.482 -0.5392  0.9688 -0.9681
13606TIP3   OH262232   4.288   4.719  13.454 -0.3336  0.4506 -0.3528
13606TIP3    H162233   4.303   4.654  13.385 -0.3760  1.7204 -1.6259
13606TIP3    H262234   4.221   4.680  13.510  0.5483 -1.1114 -0.3345
13607TIP3   OH262235   6.767   2.907   1.763 -0.0363  0.2512 -0.3862
13607TIP3    H162236   6.836   2.870   1.708  1.0167  1.2847  0.1862
13607TIP3    H262237   6.813   2.940   1.840 -1.3251 -0.0316  0.5361
13608TIP3   OH262238   5.412   2.627  12.251 -0.1004  0.7312  0.1890
13608TIP3    H162239   5.468   2.649  12.325  3.4005  1.5092 -2.4353
13608TIP3    H262240   5.411   2.532  12.247  1.7865  0.6924 -0.1257
13609TIP3   OH262241   3.716   3.013   0.998 -0.0099  0.1586  0.3325
13609TIP3    H162242   3.775   3.086   0.981 -1.1101  0.8247 -0.9148
13609TIP3    H262243   3.749   2.972   1.077  0.9111  1.7458  0.8135
13610TIP3   OH262244   0.450   5.523  17.124  0.4596 -0.0112 -0.5803
13610TIP3    H162245   0.386   5.589  17.099  1.7480  1.0514 -1.2238
13610TIP3    H262246   0.430   5.504  17.216  0.1876  1.4572 -0.3038
13611TIP3   OH262247   4.100   6.178  13.572  0.5166  0.4288  0.5161
13611TIP3    H162248   4.180   6.184  13.520  0.3610 -1.6573 -0.0578
13611TIP3    H262249   4.129   6.144  13.657 -0.0096 -4.1403 -0.8764
13612TIP3   OH262250   3.273   0.689   0.047 -0.0847 -0.1418 -0.2667
13612TIP3    H162251   3.185   0.665   0.017 -0.2032  0.1788 -0.1814
13612TIP3    H262252   3.258   0.756   0.114  0.3517  2.8678 -2.9570
13613TIP3   OH262253   5.627   1.369  16.082 -0.0990  0.7383  0.1704
13613TIP3    H162254   5.574   1.297  16.116  0.4187  0.5568  0.5913
13613TIP3    H262255   5.658   1.338  15.997  1.0292  0.0120  0.8228
13614TIP3   OH262256   4.174   0.054  12.567  0.2093 -0.1967 -0.8193
13614TIP3    H162257   4.180   0.045  12.472  0.1119 -2.1421 -0.6783
13614TIP3    H262258   4.253   0.103  12.591  1.6009 -1.8816 -1.6841
13615TIP3   OH262259   0.509   4.379  11.364  0.8625 -0.1509 -0.0549
13615TIP3    H162260   0.592   4.423  11.346  0.1233  1.1485 -0.4262
13615TIP3    H262261   0.449   4.450  11.388 -0.0274 -1.1099  0.6614
13616TIP3   OH262262   4.575   1.351  12.334  0.8196 -0.2582  0.3915
13616TIP3    H162263   4.637   1.393  12.393  0.7342  2.3098 -1.2226
13616TIP3    H262264   4.615   1.359  12.247 -0.8459 -0.3720 -0.4199
13617TIP3   OH262265   0.116   5.910  15.567 -0.4050  0.3978  0.4936
13617TIP3    H162266   0.107   5.815  15.577 -0.5444  0.2837 -0.6063
13617TIP3    H262267   0.136   5.941  15.655  2.7470 -0.9935  0.4239
13618TIP3   OH262268   0.202   5.977   2.585  0.1791 -1.1198  0.4095
13618TIP3    H162269   0.200   6.059   2.635  0.5531  0.2912 -1.7382
13618TIP3    H262270   0.224   5.910   2.650 -0.1728  0.4430  2.2611
13619TIP3   OH262271   5.176   5.991  14.489 -0.1434  0.5941  0.4976
13619TIP3    H162272   5.115   5.920  14.510 -0.6802  0.7805 -0.3741
13619TIP3    H262273   5.192   6.035  14.572  0.8193 -1.0127  1.2295
13620TIP3   OH262274   6.374   5.042  11.579 -0.5658  0.6886 -0.0740
13620TIP3    H162275   6.378   4.980  11.505 -1.5837 -1.0748  1.2741
13620TIP3    H262276   6.310   5.107  11.552 -0.0717  0.7257 -1.2160
13621TIP3   OH262277   6.487   1.372   4.083  0.4153 -0.5000  0.2647
13621TIP3    H162278   6.487   1.436   4.153  0.0676 -0.9742  0.7084
13621TIP3    H262279   6.421   1.403   4.021  1.2938  0.3527 -0.2752
13622TIP3   OH262280   2.399   4.107  12.300 -0.0631 -0.0843 -0.6143
13622TIP3    H162281   2.348   4.122  12.220 -0.1076  0.9686 -0.4077
13622TIP3    H262282   2.387   4.187  12.351  1.4283  0.0013 -0.3513
13623TIP3   OH262283   2.595   4.810   1.697  0.5486  0.4239 -0.1511
13623TIP3    H162284   2.628   4.841   1.781  0.6240  1.2994 -0.4890
13623TIP3    H262285   2.530   4.743   1.719 -0.4187  1.5913  0.6607
13624TIP3   OH262286   1.984   3.790  15.496  0.4249 -0.3282 -0.1359
13624TIP3    H162287   1.986   3.767  15.403  1.1859 -1.8140  0.2195
13624TIP3    H262288   2.067   3.758  15.531  0.6971  1.3336  0.8231
13625TIP3   OH262289   0.225   6.264  14.213  0.2313  0.3143 -0.4962
13625TIP3    H162290   0.241   6.355  14.191 -0.7536  0.9768  1.3313
13625TIP3    H262291   0.130   6.254  14.210  0.2376 -0.2796  0.5794
13626TIP3   OH262292   4.296   6.737   0.663  0.0285  0.3789 -0.4137
13626TIP3    H162293   4.378   6.709   0.623 -0.2147  1.1682 -1.4976
13626TIP3    H262294   4.271   6.664   0.720  1.2199 -0.0735 -0.4512
13627TIP3   OH262295   1.971   4.476   1.034  0.5491 -0.2134  0.0386
13627TIP3    H162296   1.897   4.484   1.094  1.1507 -1.0434  0.9173
13627TIP3    H262297   1.954   4.542   0.966 -0.2752  0.5659  0.9740
13628TIP3   OH262298   0.281   0.694  12.653 -0.2984 -0.0187 -0.1068
13628TIP3    H162299   0.248   0.617  12.698  0.1267  0.9587  1.9991
13628TIP3    H262300   0.203   0.736  12.616 -0.6787 -0.7758 -0.1781
13629TIP3   OH262301   2.342   1.592  16.686 -1.1924 -0.2840  0.1435
13629TIP3    H162302   2.333   1.666  16.626 -0.6894  0.1366  0.5768
13629TIP3    H262303   2.254   1.555  16.691 -1.2581 -0.2892 -0.8006
13630TIP3   OH262304   2.033   1.296   4.240 -0.4833 -0.3082 -0.5266
13630TIP3    H162305   1.971   1.364   4.216 -1.6533 -1.1890 -0.1238
13630TIP3    H262306   1.978   1.223   4.268  0.7543 -0.6223  1.2350
13631TIP3   OH262307   3.699   5.375  14.975  0.2532 -0.9413 -0.6938
13631TIP3    H162308   3.665   5.398  14.889  1.5210 -1.0640 -1.2603
13631TIP3    H262309   3.661   5.290  14.994 -0.1930 -0.8265 -1.0406
13632TIP3   OH262310   6.693   2.340   2.141  0.0208  0.2820 -0.1451
13632TIP3    H162311   6.668   2.395   2.067 -1.6507  0.0561  0.2184
13632TIP3    H262312   6.620   2.280   2.153  1.6749 -1.8768 -0.3406
13633TIP3   OH262313   6.543   5.363   2.782 -0.2493  0.2835  0.2569
13633TIP3    H162314   6.486   5.290   2.759 -0.8782  0.3412  1.5289
13633TIP3    H262315   6.528   5.428   2.714 -2.7874  0.8609  1.2822
13634TIP3   OH262316   0.964   0.802  11.986  0.1041  0.2333  0.5569
13634TIP3    H162317   0.883   0.802  11.934  1.8221 -0.1423 -2.3202
13634TIP3    H262318   1.030   0.839  11.927  2.2793 -0.4396  2.4444
13635TIP3   OH262319   5.310   3.925  13.897 -0.6691  0.3483  0.6891
13635TIP3    H162320   5.378   3.992  13.901  0.8635 -0.9280 -1.3781
13635TIP3    H262321   5.294   3.901  13.988  2.8075 -0.3041  1.2861
13636TIP3   OH262322   5.323   5.355  10.603  1.1527  0.0773  0.0149
13636TIP3    H162323   5.343   5.261  10.611  0.4313 -0.3985 -2.7215
13636TIP3    H262324   5.235   5.357  10.567  1.1594  1.8312  0.0360
13637TIP3   OH262325   5.102   3.596   1.569  0.3833  0.4550 -0.0240
13637TIP3    H162326   5.120   3.656   1.496 -0.5748  0.8566  0.0506
13637TIP3    H262327   5.123   3.510   1.535  1.5791  0.8001 -0.2103
13638TIP3   OH262328   1.605   4.129   4.320  0.4977  0.6486  0.4742
13638TIP3    H162329   1.592   4.098   4.410  0.8525  0.5839  0.5044
13638TIP3    H262330   1.690   4.093   4.294  0.1807  0.2792 -0.0572
13639TIP3   OH262331   0.365   2.182  15.535 -0.9581 -0.4482 -0.0057
13639TIP3    H162332   0.327   2.146  15.615 -1.9208 -0.5512 -0.4879
13639TIP3    H262333   0.453   2.145  15.531 -1.1707 -1.0474  0.6035
13640TIP3   OH262334   0.498   1.434  11.736 -0.5488 -0.0830  0.1117
13640TIP3    H162335   0.420   1.387  11.708  0.9089 -3.3138  1.0903
13640TIP3    H262336   0.495   1.430  11.831  1.2585 -1.1619  0.1619
13641TIP3   OH262337   0.838   2.651   3.173  0.4818  0.3826 -0.4486
13641TIP3    H162338   0.755   2.682   3.135  0.3259 -0.3560 -0.7153
13641TIP3    H262339   0.840   2.558   3.155  2.0269  0.6088 -1.6380
13642TIP3   OH262340   5.835   4.639   2.616  0.4376 -0.0147 -0.1582
13642TIP3    H162341   5.875   4.726   2.616  0.0438  0.1727  0.1841
13642TIP3    H262342   5.741   4.656   2.605  0.3615 -0.3979 -0.1178
13643TIP3   OH262343   4.359   0.750  12.257  0.1576  0.1847  0.3213
13643TIP3    H162344   4.438   0.791  12.221 -0.1363  0.5011  0.0373
13643TIP3    H262345   4.391   0.669  12.298  0.9856  1.3821  2.2071
13644TIP3   OH262346   1.823   3.135   5.482  0.0822 -0.0346  0.1503
13644TIP3    H162347   1.781   3.132   5.396  1.2857 -0.5903 -0.4332
13644TIP3    H262348   1.785   3.061   5.529  1.3523 -1.3769 -0.8451
13645TIP3   OH262349   2.067   4.716  15.640 -0.0946 -0.0434 -0.2712
13645TIP3    H162350   2.058   4.697  15.733  0.1001 -0.0586 -0.2561
13645TIP3    H262351   2.160   4.705  15.621  0.2084  1.7726 -0.0613
13646TIP3   OH262352   3.192   2.708  11.904 -0.3301 -0.1647  0.0740
13646TIP3    H162353   3.217   2.734  11.992  0.2807 -0.1998 -0.0827
13646TIP3    H262354   3.186   2.613  11.907  4.1522 -0.6898 -0.9581
13647TIP3   OH262355   1.819   2.697   2.400  0.3283 -0.2857  0.7124
13647TIP3    H162356   1.731   2.732   2.386  0.8133  0.6692 -0.1330
13647TIP3    H262357   1.836   2.713   2.493 -0.4895 -0.7325  0.9469
13648TIP3   OH262358   0.938   2.438  12.479 -0.5199  0.0353  0.8243
13648TIP3    H162359   0.935   2.369  12.545 -1.0445 -0.0460  0.7181
13648TIP3    H262360   1.028   2.470  12.483 -0.6346  0.2757  1.8268
13649TIP3   OH262361   3.654   5.608   1.065  0.2104 -0.3038  0.7030
13649TIP3    H162362   3.613   5.558   1.136 -1.1553  0.9113  0.8229
13649TIP3    H262363   3.730   5.649   1.104 -0.2696 -0.0217  1.3656
13650TIP3   OH262364   4.280   6.505  16.458  0.8222 -0.0189  0.0583
13650TIP3    H162365   4.312   6.562  16.528 -0.0074 -0.2908  0.6791
13650TIP3    H262366   4.334   6.526  16.383  0.8058  1.2904  0.3869
13651TIP3   OH262367   1.030   6.269  13.578  0.3178 -0.3763 -0.6131
13651TIP3    H162368   0.983   6.339  13.623 -2.0771 -2.9750  1.2601
13651TIP3    H262369   0.976   6.248  13.502 -0.1749 -1.5805  0.0435
13652TIP3   OH262370   2.296   4.582   3.846 -0.0474 -0.0572 -0.5348
13652TIP3    H162371   2.281   4.510   3.908 -0.1514 -0.7540 -1.3433
13652TIP3    H262372   2.229   4.647   3.866 -0.6111 -0.6508 -0.4582
13653TIP3   OH262373   6.703   0.674  12.166  0.4683 -0.6270 -0.3838
13653TIP3    H162374   6.727   0.613  12.236  0.6185 -0.5356 -0.3540
13653TIP3    H262375   6.688   0.618  12.089 -0.3117 -0.7836 -0.1253
13654TIP3   OH262376   1.860   0.414  12.402 -0.4278  0.6120  0.2311
13654TIP3    H162377   1.934   0.454  12.357 -0.6447 -0.2892 -0.9830
13654TIP3    H262378   1.830   0.345  12.343 -1.6541  0.3400  1.1178
13655TIP3   OH262379   1.832   3.772   4.495  0.0553  0.5453 -0.5265
13655TIP3    H162380   1.789   3.837   4.551  1.5263  0.8850  0.2649
13655TIP3    H262381   1.782   3.775   4.413 -1.0349  1.3423  0.1280
13656TIP3   OH262382   0.404   3.421   4.348 -0.1661 -0.2697  0.0745
13656TIP3    H162383   0.348   3.449   4.275 -0.8209  0.1723  0.7320
13656TIP3    H262384   0.361   3.457   4.426 -0.0296 -1.5968  0.7816
13657TIP3   OH262385   3.885   0.944  15.926 -0.2302  0.2707 -0.1108
13657TIP3    H162386   3.861   1.036  15.918 -0.9845 -0.0142 -1.5688
13657TIP3    H262387   3.960   0.934  15.866 -0.4699 -0.1622 -0.3436
13658TIP3   OH262388   1.469   3.826   0.113 -0.1747 -0.4522 -0.5236
13658TIP3    H162389   1.375   3.832   0.096  0.0580  0.4294 -1.6790
13658TIP3    H262390   1.509   3.884   0.047  1.1544 -0.5611  0.1441
13659TIP3   OH262391   3.582   0.105  13.251 -0.0984 -0.1673  0.5020
13659TIP3    H162392   3.584   0.037  13.184 -0.0358  0.4367 -0.1246
13659TIP3    H262393   3.671   0.106  13.287  0.6322  1.2083 -1.1872
13660TIP3   OH262394   1.539   0.185  14.438  0.7586 -0.0817 -0.3998
13660TIP3    H162395   1.602   0.172  14.368  2.2177 -0.7799  0.9949
13660TIP3    H262396   1.460   0.140  14.408  1.1300  0.1847 -1.8442
13661TIP3   OH262397   0.562   0.878  14.529 -0.1849 -0.4552 -0.2299
13661TIP3    H162398   0.538   0.825  14.605 -1.6676  0.6207  0.1154
13661TIP3    H262399   0.485   0.873  14.472 -0.4888  1.4488 -0.0680
13662TIP3   OH262400   5.431   0.486  14.570  0.2954 -0.0275 -0.4621
13662TIP3    H162401   5.410   0.569  14.527  1.0742 -0.2761 -1.3591
13662TIP3    H262402   5.345   0.445  14.585 -0.0786  0.7940 -0.2953
13663TIP3   OH262403   3.429   5.104  11.787 -0.0013 -0.1183  0.1408
13663TIP3    H162404   3.408   5.197  11.777 -0.3410  0.0368  1.9724
13663TIP3    H262405   3.516   5.095  11.748  0.4190  1.1547  0.7281
13664TIP3   OH262406   2.251   0.074   4.769  0.3530 -0.2901  0.0546
13664TIP3    H162407   2.183   0.134   4.801 -0.5188 -1.2327  0.0407
13664TIP3    H262408   2.270   0.104   4.681  1.8756  1.5753  0.9529
13665TIP3   OH262409   6.555   5.519  12.852  0.2148 -0.0692 -0.2901
13665TIP3    H162410   6.473   5.569  12.848  0.5070  0.4517  0.1199
13665TIP3    H262411   6.530   5.436  12.893 -0.3524 -0.4408 -1.3399
13666TIP3   OH262412   4.629   0.962   6.620 -0.0777 -0.8170 -0.5814
13666TIP3    H162413   4.538   0.955   6.594  0.4439  0.3339 -2.9793
13666TIP3    H262414   4.673   0.891   6.574  0.3585 -0.9708  0.0526
13667TIP3   OH262415   1.826   2.346  15.548  0.4529  0.1088  0.3686
13667TIP3    H162416   1.812   2.270  15.490  1.0142  1.0875 -1.1207
13667TIP3    H262417   1.739   2.369  15.579  0.3086 -1.3096  1.0737
13668TIP3   OH262418   3.965   1.523  16.709  0.2312 -0.1263  0.4257
13668TIP3    H162419   4.029   1.593  16.717  1.4572 -0.0757 -5.1908
13668TIP3    H262420   3.883   1.567  16.686 -0.1026 -0.4046  1.0751
13669TIP3   OH262421   3.915   0.762   5.463 -0.0794  0.0367 -0.9038
13669TIP3    H162422   3.898   0.708   5.540  0.8259 -0.0343 -0.7470
13669TIP3    H262423   3.889   0.850   5.488  1.1722  0.2095 -0.1510
13670TIP3   OH262424   1.731   1.941  15.193  0.2137  0.1648  0.0223
13670TIP3    H162425   1.765   1.858  15.160  1.5406  0.2559  1.0642
13670TIP3    H262426   1.792   2.007  15.160 -1.4608  0.9188 -1.7571
13671TIP3   OH262427   6.529   4.226   0.567 -0.2167  0.0514 -0.3693
13671TIP3    H162428   6.435   4.234   0.579 -0.2772 -0.8572 -0.1429
13671TIP3    H262429   6.552   4.142   0.607  0.3497 -0.7430 -2.2053
13672TIP3   OH262430   4.780   6.540  16.226 -0.1158  0.3964 -0.1613
13672TIP3    H162431   4.855   6.495  16.187 -0.6162 -1.0831  0.4967
13672TIP3    H262432   4.708   6.523  16.166 -0.5118 -0.4748  0.5367
13673TIP3   OH262433   3.586   4.106   4.308  0.2508 -0.3133 -0.0373
13673TIP3    H162434   3.572   4.131   4.400 -1.9903 -3.1094  0.5688
13673TIP3    H262435   3.576   4.187   4.259  0.7928  1.1525  2.1054
13674TIP3   OH262436   4.765   3.156  11.398 -0.3225 -0.0266 -0.2923
13674TIP3    H162437   4.841   3.189  11.350 -0.3271  0.9789  0.3531
13674TIP3    H262438   4.691   3.172  11.339 -0.2949  0.9492 -0.0803
13675TIP3   OH262439   2.111   0.252  12.621 -0.2523  0.3991 -0.6057
13675TIP3    H162440   2.039   0.199  12.653 -1.1990  0.0427 -3.0956
13675TIP3    H262441   2.177   0.247  12.690 -2.5556  0.7502  1.7739
13676TIP3   OH262442   1.323   0.668   2.598 -0.2946  0.6321 -0.0181
13676TIP3    H162443   1.348   0.639   2.510  0.1908  3.4211 -0.9070
13676TIP3    H262444   1.337   0.763   2.597 -1.2638  0.9053  2.7656
13677TIP3   OH262445   3.544   1.189   2.206  0.0302 -0.0187  0.1418
13677TIP3    H162446   3.513   1.116   2.153 -0.5408  1.8966 -2.3206
13677TIP3    H262447   3.631   1.161   2.235  0.5860 -1.0230 -2.2069
13678TIP3   OH262448   1.592   6.035   0.699 -0.1722  0.1631  0.3317
13678TIP3    H162449   1.675   6.051   0.745  0.1106 -0.6084  0.1035
13678TIP3    H262450   1.558   5.955   0.737 -0.1715 -0.2274 -0.4638
13679TIP3   OH262451   4.348   6.637   5.376 -0.1287  0.1495  0.5811
13679TIP3    H162452   4.296   6.705   5.420 -1.4787 -0.9259  0.7350
13679TIP3    H262453   4.349   6.565   5.438  1.3043  0.0107  0.4230
13680TIP3   OH262454   5.341   5.440  14.182 -0.2305  0.2722  0.3476
13680TIP3    H162455   5.278   5.505  14.150  0.6906  1.4606  0.8658
13680TIP3    H262456   5.340   5.450  14.277  1.3653  0.9621  0.3276
13681TIP3   OH262457   5.780   5.448   0.021  0.3435  0.6417 -0.2589
13681TIP3    H162458   5.711   5.480   0.080  1.4824 -1.6766  2.5595
13681TIP3    H262459   5.754   5.359  -0.000  2.3238 -0.2183  0.7283
13682TIP3   OH262460   0.443   2.096   4.576  0.7092  0.0482 -0.3357
13682TIP3    H162461   0.426   2.155   4.650  0.8342  1.7977 -1.6202
13682TIP3    H262462   0.497   2.148   4.516  1.7260 -1.7817 -1.0657
13683TIP3   OH262463   3.466   2.126   3.630  0.3714  0.7667 -0.5660
13683TIP3    H162464   3.557   2.112   3.656 -0.5884 -0.1151  2.8682
13683TIP3    H262465   3.437   2.201   3.682 -1.1645  0.3148 -0.7171
13684TIP3   OH262466   0.479   4.090   2.208  0.4352 -0.1212 -0.0898
13684TIP3    H162467   0.427   4.012   2.227  2.1948 -1.1658  0.6082
13684TIP3    H262468   0.570   4.060   2.209  1.2346  2.0976  1.0762
13685TIP3   OH262469   5.043   1.282   4.235 -0.0463  0.0014  0.3408
13685TIP3    H162470   5.092   1.331   4.169  1.0770 -1.6445 -0.1135
13685TIP3    H262471   5.110   1.230   4.281 -1.0921 -0.5730  1.2692
13686TIP3   OH262472   4.956   6.056   3.725 -0.2635  0.3223  1.2463
13686TIP3    H162473   5.045   6.026   3.705 -0.2242 -0.5712  2.6053
13686TIP3    H262474   4.969   6.129   3.785 -0.4429  1.1049  0.3609
13687TIP3   OH262475   0.910   1.749  14.973  0.1307 -0.0149  0.0921
13687TIP3    H162476   0.849   1.675  14.977 -1.5163  1.3411  2.6889
13687TIP3    H262477   0.914   1.782  15.062  0.7175  3.0843 -0.9516
13688TIP3   OH262478   1.307   0.988  17.271  0.1170  0.0668  0.1620
13688TIP3    H162479   1.293   0.914  17.330  0.1104  0.2669  0.4132
13688TIP3    H262480   1.249   0.972  17.197  0.3341 -0.3298  0.0779
13689TIP3   OH262481   2.355   2.465   3.918  0.3920  0.6593  0.0113
13689TIP3    H162482   2.334   2.377   3.952 -0.9595  0.8060 -0.3708
13689TIP3    H262483   2.286   2.521   3.955  1.0070  1.4869 -0.0831
13690TIP3   OH262484   5.604   4.790  16.456 -0.1354  0.1876  0.3661
13690TIP3    H162485   5.697   4.807  16.444 -0.2915  2.9581  1.9823
13690TIP3    H262486   5.595   4.771  16.550 -1.1727 -0.2764  0.1878
13691TIP3   OH262487   3.219   3.310   0.725 -0.5775 -0.1983 -0.1000
13691TIP3    H162488   3.218   3.325   0.820 -1.1406 -0.9576  0.0235
13691TIP3    H262489   3.129   3.325   0.697 -0.5055 -0.4054 -0.4437
13692TIP3   OH262490   4.797   1.073  11.102 -0.7803 -0.4161  0.8508
13692TIP3    H162491   4.783   1.004  11.166  1.4177 -1.4808  0.2860
13692TIP3    H262492   4.863   1.130  11.143  0.4068 -0.9329 -0.2684
13693TIP3   OH262493   5.489   5.416  11.920  0.3926 -0.5119 -0.5375
13693TIP3    H162494   5.497   5.329  11.959 -0.2606 -0.7326 -0.8820
13693TIP3    H262495   5.438   5.402  11.840  0.2154  0.2012 -0.5546
13694TIP3   OH262496   3.451   1.087  16.723  0.5464 -0.3620  1.3197
13694TIP3    H162497   3.475   0.994  16.713  1.1465 -0.0040 -1.2869
13694TIP3    H262498   3.358   1.090  16.698  0.9954 -0.0676 -0.5172
13695TIP3   OH262499   5.767   4.704   4.928  0.1016 -0.0591 -0.1871
13695TIP3    H162500   5.809   4.648   4.862 -2.5165 -1.5563 -0.7339
13695TIP3    H262501   5.686   4.733   4.886 -0.7836  0.4248  1.7488
13696TIP3   OH262502   3.711   1.002  16.304  0.1574  0.1059  0.2204
13696TIP3    H162503   3.623   1.039  16.316  1.1318  2.1456  1.5636
13696TIP3    H262504   3.738   0.975  16.392  0.6526 -1.0847 -0.2803
13697TIP3   OH262505   3.830   6.416   1.941  0.5074 -0.0356 -0.4195
13697TIP3    H162506   3.924   6.428   1.952  0.4368  0.3222 -0.1741
13697TIP3    H262507   3.811   6.452   1.854  0.4152  0.9950  0.0114
13698TIP3   OH262508   0.489   2.742   0.947  0.0871  0.0981  0.0164
13698TIP3    H162509   0.471   2.681   1.019  0.2368  2.5429  2.3240
13698TIP3    H262510   0.573   2.714   0.911  0.5437 -0.6125  1.5523
13699TIP3   OH262511   3.480   2.202  14.459 -0.5056  0.2707 -0.1067
13699TIP3    H162512   3.573   2.207  14.484 -0.3903 -0.5536 -0.3252
13699TIP3    H262513   3.444   2.135  14.518 -0.4061 -1.1432 -1.5822
13700TIP3   OH262514   5.591   1.733   5.693  0.0583  0.7326 -0.8776
13700TIP3    H162515   5.622   1.735   5.784 -2.8322 -1.2768  0.3180
13700TIP3    H262516   5.668   1.706   5.642  1.2015 -0.4140  1.3092
13701TIP3   OH262517   6.276   2.919   3.807 -0.3177 -0.2993  0.1491
13701TIP3    H162518   6.369   2.915   3.788 -0.1955  1.1781  0.3047
13701TIP3    H262519   6.240   2.978   3.741 -0.6154  1.4490  1.7908
13702TIP3   OH262520   2.221   0.427   3.997  0.5949  0.5250  0.2765
13702TIP3    H162521   2.262   0.373   4.064  1.9307  0.3363 -0.6542
13702TIP3    H262522   2.225   0.516   4.031  0.6684  0.3496  0.7253
13703TIP3   OH262523   4.036   1.355   0.763  0.3048 -0.0747  0.1752
13703TIP3    H162524   4.078   1.297   0.699  0.5240 -1.4920  1.5499
13703TIP3    H262525   4.101   1.422   0.782  0.9321 -0.7159  0.2978
13704TIP3   OH262526   4.155   4.024  13.778 -0.2031  0.5003  0.7301
13704TIP3    H162527   4.235   4.021  13.726 -0.0265 -0.3850  1.0407
13704TIP3    H262528   4.181   3.991  13.864 -0.9161  0.1320  0.8086
13705TIP3   OH262529   6.324   6.131  16.007  0.3830 -0.1527  0.1466
13705TIP3    H162530   6.299   6.135  15.915 -1.0370  1.5964  0.5498
13705TIP3    H262531   6.252   6.084  16.050  1.0806 -1.0443  0.3837
13706TIP3   OH262532   1.176   6.052  11.378  0.5600  0.0245  0.3367
13706TIP3    H162533   1.110   6.032  11.444 -0.0327  0.9794  0.0445
13706TIP3    H262534   1.237   6.112  11.423  2.4533 -2.4387  1.2838
13707TIP3   OH262535   0.425   0.243   1.212  0.3951 -0.3115 -0.0310
13707TIP3    H162536   0.453   0.330   1.239  0.4793 -0.3419 -0.0210
13707TIP3    H262537   0.467   0.183   1.273  0.6881 -0.3886 -0.3070
13708TIP3   OH262538   3.179   2.519  12.754  0.0785  0.4336  0.4392
13708TIP3    H162539   3.264   2.556  12.731  0.1546 -0.9495 -1.7627
13708TIP3    H262540   3.123   2.595  12.770  0.7041  1.5040 -2.0316
13709TIP3   OH262541   2.033   0.096   2.436 -0.0506 -0.4284 -0.4529
13709TIP3    H162542   2.090   0.156   2.484  0.9307  1.0666 -3.2567
13709TIP3    H262543   1.955   0.148   2.416 -0.9999 -1.4235  0.5200
13710TIP3   OH262544   5.054   2.543   4.411  0.4391 -0.8648  0.2268
13710TIP3    H162545   5.042   2.471   4.349 -0.5282 -2.4835  2.1493
13710TIP3    H262546   5.079   2.617   4.357 -0.8768 -2.0175 -2.1532
13711TIP3   OH262547   3.237   1.504   2.437  0.0138  0.0502 -0.0866
13711TIP3    H162548   3.188   1.586   2.445 -1.8731 -0.9972 -0.3165
13711TIP3    H262549   3.210   1.468   2.352  2.5114  0.2139 -1.0236
13712TIP3   OH262550   1.359   0.540   5.141  0.0164  0.1038 -0.1008
13712TIP3    H162551   1.285   0.578   5.188 -0.6407 -1.0273 -0.1851
13712TIP3    H262552   1.337   0.447   5.132  1.3084 -0.1981 -0.3933
13713TIP3   OH262553   5.878   1.105   5.511 -0.4580  0.0773 -0.2275
13713TIP3    H162554   5.868   1.051   5.590 -0.6205 -0.0815 -0.3565
13713TIP3    H262555   5.801   1.162   5.511 -0.0016  0.7160  0.2173
13714TIP3   OH262556   3.539   6.711  10.914  0.0488  0.4869  0.4386
13714TIP3    H162557   3.543   6.636  10.855  2.3328  0.3630  0.6635
13714TIP3    H262558   3.445   6.726  10.927 -0.5568  0.1246 -2.6847
13715TIP3   OH262559   4.813   0.741   4.306 -0.1897  0.1714 -0.4274
13715TIP3    H162560   4.748   0.680   4.341 -0.5204  1.9548  2.4215
13715TIP3    H262561   4.897   0.706   4.336 -0.4863  1.8625  2.8978
13716TIP3   OH262562   0.102   1.877  14.822 -0.2853  0.0092  0.4674
13716TIP3    H162563   0.141   1.813  14.882  0.2561  0.0538  0.1705
13716TIP3    H262564   0.176   1.911  14.772 -0.6378  0.4993  0.2698
13717TIP3   OH262565   0.475   3.743   1.242 -0.7084  0.0216  0.3327
13717TIP3    H162566   0.517   3.823   1.211 -0.3663  0.3072  1.4680
13717TIP3    H262567   0.396   3.735   1.189  1.1030 -0.9428 -2.4070
13718TIP3   OH262568   3.355   6.512  12.251 -0.3212 -0.5925  0.4016
13718TIP3    H162569   3.362   6.469  12.166 -0.7567  0.5952 -0.2656
13718TIP3    H262570   3.276   6.474  12.290  0.7877 -2.3489  1.0227
13719TIP3   OH262571   4.032   5.278   3.816  0.0707  0.1729 -0.7002
13719TIP3    H162572   3.946   5.267   3.857 -0.3952  1.7816 -1.1880
13719TIP3    H262573   4.094   5.250   3.884 -0.8148 -2.1654 -0.7462
13720TIP3   OH262574   2.930   1.032  15.935  0.4670  0.3067  0.2731
13720TIP3    H162575   2.872   1.042  15.859  2.4025 -3.2285 -1.9296
13720TIP3    H262576   2.872   1.001  16.004 -1.0648  1.9606 -0.1729
13721TIP3   OH262577   0.810   4.292  10.836  0.1552  0.0208  0.2883
13721TIP3    H162578   0.864   4.248  10.771 -0.9931 -1.1501  0.0928
13721TIP3    H262579   0.738   4.330  10.785 -0.8153 -1.0065  0.8434
13722TIP3   OH262580   1.203   2.972  13.173  0.0094  0.1434 -0.0919
13722TIP3    H162581   1.233   2.940  13.258 -1.5190 -0.5346  0.2311
13722TIP3    H262582   1.236   3.061  13.167  1.5798 -0.3646  0.4464
13723TIP3   OH262583   5.206   6.412  12.553 -1.0231 -0.2892  0.8447
13723TIP3    H162584   5.176   6.321  12.547 -0.3664 -0.6549  2.5143
13723TIP3    H262585   5.128   6.464  12.532 -1.1639 -1.2042 -1.0832
13724TIP3   OH262586   0.665   2.078   3.212 -0.3260  0.3711 -0.3828
13724TIP3    H162587   0.757   2.099   3.194 -0.8699  2.5519 -0.9249
13724TIP3    H262588   0.635   2.150   3.267 -1.2171 -1.3616  1.5468
13725TIP3   OH262589   0.712   1.852  14.251 -0.3274  0.1380  0.3386
13725TIP3    H162590   0.805   1.832  14.241 -0.2866  0.4649  0.0483
13725TIP3    H262591   0.666   1.781  14.205 -0.1764  0.8969 -1.0478
13726TIP3   OH262592   3.434   4.308   1.410  0.1769 -0.0471 -0.6654
13726TIP3    H162593   3.358   4.250   1.415  0.3270 -0.1205  1.3439
13726TIP3    H262594   3.416   4.364   1.334 -1.5214 -0.5360 -0.6686
13727TIP3   OH262595   3.588   4.495   3.194  0.0699 -0.3938 -0.5321
13727TIP3    H162596   3.678   4.476   3.170 -0.8501 -1.7971 -3.2896
13727TIP3    H262597   3.580   4.465   3.284  2.9908  2.3160  0.8193
13728TIP3   OH262598   6.728   2.194   3.162 -0.5585 -0.3106  0.1691
13728TIP3    H162599   6.786   2.190   3.085 -1.0167  1.3829 -0.3069
13728TIP3    H262600   6.787   2.187   3.237  0.1233 -0.0009 -0.3236
13729TIP3   OH262601   1.273   5.836   3.939 -0.7184 -0.5518 -0.0153
13729TIP3    H162602   1.191   5.834   3.989 -0.3761  2.0341  0.8036
13729TIP3    H262603   1.279   5.926   3.907  1.5092 -0.8488 -0.5829
13730TIP3   OH262604   3.714   1.529  14.502  0.1809  0.1780  0.4024
13730TIP3    H162605   3.639   1.521  14.443 -0.1747  0.3521  0.8233
13730TIP3    H262606   3.686   1.485  14.582  0.6801 -0.1033  0.4253
13731TIP3   OH262607   4.757   6.162   3.579  0.1539 -0.2454 -0.4152
13731TIP3    H162608   4.678   6.147   3.632 -0.2375  0.2286 -0.8642
13731TIP3    H262609   4.825   6.112   3.625 -0.4488 -0.8538 -0.1520
13732TIP3   OH262610   0.121   4.516  12.707 -0.7965  0.4115 -0.0366
13732TIP3    H162611   0.189   4.491  12.769 -0.3643  0.8819 -0.3101
13732TIP3    H262612   0.044   4.468  12.735  0.2080 -1.9911 -1.0955
13733TIP3   OH262613   3.533   5.623   2.707 -0.3297  0.5200  0.5201
13733TIP3    H162614   3.549   5.682   2.633 -0.3313  0.1719  0.2373
13733TIP3    H262615   3.438   5.612   2.708 -0.3347  0.5696  0.6123
13734TIP3   OH262616   0.973   3.618  11.409 -0.1363 -0.2346  0.4525
13734TIP3    H162617   1.025   3.543  11.381  2.7575  1.4502  0.8918
13734TIP3    H262618   1.037   3.680  11.444 -2.4822  2.0580  1.0241
13735TIP3   OH262619   3.006   0.254   1.474  0.4132  0.1483 -0.5888
13735TIP3    H162620   2.990   0.215   1.388  0.2065  0.4878 -0.7045
13735TIP3    H262621   3.074   0.320   1.459  1.6637 -0.9892 -0.1769
13736TIP3   OH262622   4.144   5.459   2.443  0.0070  0.0523 -0.0510
13736TIP3    H162623   4.199   5.385   2.470  1.7840  1.7385  1.2544
13736TIP3    H262624   4.173   5.479   2.354 -1.2679 -1.4466 -0.8541
13737TIP3   OH262625   1.982   5.680   1.539 -0.1738 -0.0673  0.4724
13737TIP3    H162626   1.897   5.653   1.575 -0.2751 -0.5945 -0.1503
13737TIP3    H262627   1.987   5.637   1.454 -0.1772  1.5867 -0.4025
13738TIP3   OH262628   1.347   3.187   6.330  0.3439  0.3594 -0.4711
13738TIP3    H162629   1.271   3.208   6.384  1.0634 -0.7746  1.0769
13738TIP3    H262630   1.314   3.128   6.262  0.0202 -1.2180  0.9797
13739TIP3   OH262631   4.205   2.662  13.356  0.2417 -0.2690 -0.4913
13739TIP3    H162632   4.206   2.751  13.392  0.7835 -0.3747 -0.2335
13739TIP3    H262633   4.175   2.607  13.428 -0.5157 -0.2524 -0.7776
13740TIP3   OH262634   4.781   6.100   5.335  0.2084 -0.1437 -0.3993
13740TIP3    H162635   4.845   6.171   5.334 -0.3481  0.3797  0.3321
13740TIP3    H262636   4.742   6.102   5.247 -0.0318  0.6731 -0.2786
13741TIP3   OH262637   1.357   6.022  13.298 -0.2369  0.5709  0.2406
13741TIP3    H162638   1.443   6.000  13.262  0.7254  1.7344  1.7103
13741TIP3    H262639   1.319   5.938  13.322 -0.4975 -0.1725 -2.4288
13742TIP3   OH262640   5.524   6.665  16.717 -0.1953 -0.1602  0.1080
13742TIP3    H162641   5.454   6.730  16.720 -0.8830 -0.9278  1.9861
13742TIP3    H262642   5.490   6.596  16.660 -0.1731  0.3115 -0.4911
13743TIP3   OH262643   0.905   0.843  11.628 -0.0159  0.6143  0.5413
13743TIP3    H162644   0.907   0.932  11.592 -2.3073 -1.0105 -4.3890
13743TIP3    H262645   0.835   0.845  11.693 -2.8564  1.7535 -2.2976
13744TIP3   OH262646   3.530   0.204  15.382  0.1917 -0.3923 -0.3612
13744TIP3    H162647   3.530   0.115  15.347 -0.4708 -1.5009  2.2690
13744TIP3    H262648   3.592   0.202  15.454 -0.3601  1.1033  0.1927
13745TIP3   OH262649   5.620   3.890   5.660  0.6733 -0.3541 -0.4620
13745TIP3    H162650   5.644   3.858   5.747 -1.2486 -0.3402  0.1262
13745TIP3    H262651   5.686   3.956   5.640  1.9611 -1.3286  0.3505
13746TIP3   OH262652   4.640   3.924   5.287 -0.2183 -0.7423 -0.0595
13746TIP3    H162653   4.553   3.887   5.302 -0.1966 -0.8193 -0.1247
13746TIP3    H262654   4.649   3.990   5.355 -1.2373  0.8400 -1.3534
13747TIP3   OH262655   6.635   0.851  16.218  0.4288 -0.6985 -0.2854
13747TIP3    H162656   6.594   0.864  16.303  1.5013 -0.5679  0.2150
13747TIP3    H262657   6.565   0.870  16.155 -0.0306  0.3969  0.5336
13748TIP3   OH262658   5.624   3.386  11.725 -0.2657 -0.2963 -0.0964
13748TIP3    H162659   5.558   3.326  11.760 -0.4698  0.0791  0.1627
13748TIP3    H262660   5.651   3.346  11.642 -0.5778 -0.6194 -0.0442
13749TIP3   OH262661   1.003   1.243  11.332 -0.0941 -0.1299  0.3226
13749TIP3    H162662   1.028   1.331  11.302 -0.4581 -0.2286 -0.2727
13749TIP3    H262663   0.980   1.196  11.253  0.4200 -0.8758  0.5986
13750TIP3   OH262664   2.197   2.494   0.429 -0.4146  0.2312 -0.6977
13750TIP3    H162665   2.234   2.431   0.491 -1.1588 -0.6327 -1.1115
13750TIP3    H262666   2.147   2.554   0.484 -0.6571 -0.2291 -0.4074
13751TIP3   OH262667   1.463   3.672   3.117  0.0638 -0.0434  0.2623
13751TIP3    H162668   1.478   3.677   3.212 -0.9575 -1.8404  0.5525
13751TIP3    H262669   1.369   3.664   3.107  0.0082  1.6702 -1.0287
13752TIP3   OH262670   6.053   2.770  10.348  0.0600  0.1991  0.0653
13752TIP3    H162671   6.075   2.678  10.366  1.9290  0.8224  1.2870
13752TIP3    H262672   6.036   2.807  10.434 -1.2878  0.8828 -0.4766
13753TIP3   OH262673   2.031   5.640  11.772  0.0230  0.2787 -0.6038
13753TIP3    H162674   2.104   5.582  11.749  0.6086  0.6360  0.3249
13753TIP3    H262675   1.997   5.605  11.853 -0.7298  0.2301 -0.9333
13754TIP3   OH262676   3.597   1.656  13.927 -0.1065  0.3031  0.8916
13754TIP3    H162677   3.539   1.732  13.934 -2.1840 -1.3369  2.7462
13754TIP3    H262678   3.671   1.677  13.984 -1.5415  0.2826  2.8659
13755TIP3   OH262679   3.454   4.917   2.654 -0.0061 -0.2585  0.4256
13755TIP3    H162680   3.490   4.983   2.714  1.2954 -1.6430  1.2350
13755TIP3    H262681   3.423   4.847   2.711  1.9248 -1.9358 -0.4632
13756TIP3   OH262682   3.069   2.757   4.035 -0.4474  0.1362  0.2096
13756TIP3    H162683   3.136   2.688   4.039 -0.6590 -0.1006 -0.2519
13756TIP3    H262684   3.117   2.838   4.054 -0.4581 -0.2848  2.2415
13757TIP3   OH262685   3.045   0.076   5.915 -0.1387 -0.2071 -0.6013
13757TIP3    H162686   3.066   0.028   5.995  0.4447  0.7130 -0.1860
13757TIP3    H262687   2.952   0.058   5.901  0.1178 -1.6662 -0.6262
13758TIP3   OH262688   5.697   4.898   3.361  0.2671 -0.1480 -0.0752
13758TIP3    H162689   5.764   4.961   3.337  0.6292  0.1273  1.5781
13758TIP3    H262690   5.722   4.817   3.315  1.2109  0.2011 -0.1830
13759TIP3   OH262691   1.165   5.359  14.904 -0.2201  0.3252  0.0994
13759TIP3    H162692   1.154   5.265  14.911 -0.3858  0.3682  0.4701
13759TIP3    H262693   1.215   5.383  14.982  0.3602  0.4603 -0.3116
13760TIP3   OH262694   4.625   1.721   6.756  0.1571  0.2694  0.2542
13760TIP3    H162695   4.634   1.632   6.791 -1.2069 -0.2292 -0.5886
13760TIP3    H262696   4.688   1.773   6.807  0.9548 -1.1545  0.7919
13761TIP3   OH262697   3.327   1.672   2.761 -0.1848  0.0484 -0.1529
13761TIP3    H162698   3.284   1.595   2.724  1.0136 -0.6948 -0.0551
13761TIP3    H262699   3.362   1.719   2.686  1.7762 -1.1742 -0.0728
13762TIP3   OH262700   3.753   6.574  10.615  0.3091  0.3567  0.2395
13762TIP3    H162701   3.661   6.582  10.593  0.0056  0.3192  1.4223
13762TIP3    H262702   3.758   6.499  10.674  1.3110 -0.5247 -0.9037
13763TIP3   OH262703   5.936   3.275   3.836  0.1255 -0.1526 -0.8072
13763TIP3    H162704   5.956   3.345   3.898 -0.1290  1.1313 -2.1333
13763TIP3    H262705   5.889   3.209   3.889  0.3668  0.6589  0.4626
13764TIP3   OH262706   3.091   0.782   4.741  0.0976  0.0168 -0.4980
13764TIP3    H162707   3.172   0.823   4.773 -0.4226  0.5077  0.2213
13764TIP3    H262708   3.024   0.810   4.803 -0.3050 -1.8699 -0.0209
13765TIP3   OH262709   2.845   2.790  10.926  0.4447  0.2553  0.3829
13765TIP3    H162710   2.792   2.815  10.850 -1.0472 -0.5384  1.1048
13765TIP3    H262711   2.909   2.727  10.892 -2.8461 -3.4518  0.3211
13766TIP3   OH262712   6.246   4.363  11.656 -0.0007  0.4389  0.0263
13766TIP3    H162713   6.174   4.300  11.648  0.8154 -0.3977 -0.9799
13766TIP3    H262714   6.269   4.386  11.566  0.2826  1.5436  0.3640
13767TIP3   OH262715   2.408   3.703  15.136  0.1280 -0.4199 -0.0227
13767TIP3    H162716   2.440   3.789  15.164  0.0976 -0.4352  0.0605
13767TIP3    H262717   2.482   3.665  15.089  0.0600 -0.2518 -0.2676
13768TIP3   OH262718   5.537   3.001  13.642  0.5066  0.3232 -0.5881
13768TIP3    H162719   5.458   3.050  13.623  0.1773 -0.4653 -1.3344
13768TIP3    H262720   5.553   2.950  13.562  0.4196 -1.3098  0.3975
13769TIP3   OH262721   4.617   3.321   4.644 -0.3985  0.0141 -0.1927
13769TIP3    H162722   4.547   3.357   4.699 -1.0886  1.6969 -2.0534
13769TIP3    H262723   4.583   3.327   4.555  1.6974 -0.1611 -1.0550
13770TIP3   OH262724   3.392   4.070  14.685  0.6182  0.1895  0.4754
13770TIP3    H162725   3.484   4.049  14.668  0.6824  1.1692 -0.5044
13770TIP3    H262726   3.358   4.096  14.600 -1.1123 -2.0321  0.3828
13771TIP3   OH262727   0.418   1.717   5.275 -0.1986  0.0720  0.3535
13771TIP3    H162728   0.431   1.663   5.197  1.4161 -0.4541  0.9530
13771TIP3    H262729   0.484   1.687   5.337 -1.2422  0.6940  1.8308
13772TIP3   OH262730   4.286   3.849   4.780  0.1160 -0.0026  0.0303
13772TIP3    H162731   4.340   3.844   4.859 -1.0215 -3.0293  0.7581
13772TIP3    H262732   4.200   3.875   4.812 -0.3359 -1.1906 -0.1807
13773TIP3   OH262733   3.828   3.954  13.702  0.4416 -0.1553 -0.0000
13773TIP3    H162734   3.832   3.865  13.666  1.2742 -0.6292  1.2165
13773TIP3    H262735   3.830   4.010  13.625 -1.5857 -1.1800 -0.8860
13774TIP3   OH262736   3.721   3.167  13.105 -0.2326  0.1473 -0.6158
13774TIP3    H162737   3.683   3.221  13.176 -0.1600 -0.1741 -0.3320
13774TIP3    H262738   3.765   3.096  13.151  0.7610  0.5433 -0.9501
13775TIP3   OH262739   5.297   1.789   1.772 -0.3068 -0.4182 -0.7941
13775TIP3    H162740   5.234   1.818   1.838  2.1142 -0.4271  1.7007
13775TIP3    H262741   5.326   1.703   1.803  1.9858  0.2328 -0.9841
13776TIP3   OH262742   0.044   0.551   1.802 -0.3064 -0.1926 -0.0328
13776TIP3    H162743   0.035   0.558   1.897 -1.9047  0.4574 -0.1892
13776TIP3    H262744   0.067   0.460   1.786 -0.9873 -0.5542  0.9430
13777TIP3   OH262745   0.646   4.203  15.964 -0.2017  0.3433  0.2601
13777TIP3    H162746   0.611   4.276  16.015  1.2957 -0.2614  2.2708
13777TIP3    H262747   0.731   4.234  15.933  0.1080 -0.2651  0.4798
13778TIP3   OH262748   2.213   5.820   3.786  0.8628 -0.3072 -0.2287
13778TIP3    H162749   2.232   5.744   3.730  3.3397 -0.3949  0.6187
13778TIP3    H262750   2.242   5.895   3.735 -1.9926  0.2323 -1.2526
13779TIP3   OH262751   4.495   2.855  12.774  0.0421  1.0074  0.0678
13779TIP3    H162752   4.458   2.898  12.850  0.3572  3.8982 -1.2961
13779TIP3    H262753   4.420   2.824  12.724 -0.1960  0.0744  0.9739
13780TIP3   OH262754   5.492   4.727   6.559 -0.0369 -0.5739 -0.2708
13780TIP3    H162755   5.433   4.676   6.503  0.0163  0.3241 -1.1664
13780TIP3    H262756   5.528   4.794   6.501 -0.4186  0.7420  0.9671
13781TIP3   OH262757   3.650   3.451  11.462 -0.1995  0.5834  0.3279
13781TIP3    H162758   3.625   3.370  11.419 -1.1549  2.1198 -2.2331
13781TIP3    H262759   3.744   3.460  11.445 -0.4559  0.8898 -0.9656
13782TIP3   OH262760   1.050   5.839  15.517  0.2137 -0.0116 -0.3251
13782TIP3    H162761   1.114   5.905  15.491  0.5230 -0.9050 -1.9441
13782TIP3    H262762   1.018   5.802  15.435  0.7840 -2.5290  0.4729
13783TIP3   OH262763   4.706   2.015  14.910 -0.3110 -0.4763  0.5127
13783TIP3    H162764   4.612   2.026  14.893 -0.1335 -1.7120 -1.5711
13783TIP3    H262765   4.723   1.923  14.893  1.3701 -0.1834  0.4692
13784TIP3   OH262766   5.238   5.355  14.832  0.2289  0.2307  0.6062
13784TIP3    H162767   5.238   5.365  14.927  1.6432  2.5690  0.4367
13784TIP3    H262768   5.295   5.426  14.800  1.5236 -1.7484 -1.8592
13785TIP3   OH262769   4.870   4.285  16.062 -0.0301 -0.0413 -0.2699
13785TIP3    H162770   4.896   4.312  15.974  0.9965 -0.2811 -0.0561
13785TIP3    H262771   4.945   4.307  16.117 -0.4212 -0.4482  0.4437
13786TIP3   OH262772   0.101   5.002   5.489 -0.5645 -0.9436 -0.3647
13786TIP3    H162773   0.053   5.047   5.419 -0.7668 -0.1554  0.2679
13786TIP3    H262774   0.140   5.072   5.540  0.9570 -1.5606 -0.6322
13787TIP3   OH262775   5.137   4.945   3.140  0.1668 -0.3303 -0.1633
13787TIP3    H162776   5.070   5.005   3.106 -0.4894 -1.6117 -1.2345
13787TIP3    H262777   5.194   4.929   3.065  1.0423 -0.1213  0.4442
13788TIP3   OH262778   0.569   5.542  12.937 -0.0357 -0.4418  0.2177
13788TIP3    H162779   0.617   5.549  12.854  1.5006 -2.6603  0.8219
13788TIP3    H262780   0.540   5.631  12.955 -0.3019  0.1502 -2.5976
13789TIP3   OH262781   3.167   2.106   1.085 -0.3087  0.1694 -0.0678
13789TIP3    H162782   3.087   2.081   1.040 -0.7665 -0.0612  0.8467
13789TIP3    H262783   3.138   2.134   1.172  0.5445  0.6331  0.0798
13790TIP3   OH262784   4.449   2.284  14.543  0.6584 -0.2657  0.0101
13790TIP3    H162785   4.398   2.352  14.588 -0.0610 -0.4623 -0.4823
13790TIP3    H262786   4.540   2.311  14.555  0.3750  1.0749 -0.6115
13791TIP3   OH262787   3.346   0.755  15.697 -0.8463 -0.3367  0.2572
13791TIP3    H162788   3.330   0.668  15.734 -1.8513 -0.0743  0.4595
13791TIP3    H262789   3.441   0.762  15.694 -0.7282 -0.7815  1.8358
13792TIP3   OH262790   0.276   3.157   6.253 -0.6386 -0.6433 -0.1198
13792TIP3    H162791   0.278   3.078   6.307  2.3255 -0.7013 -0.1650
13792TIP3    H262792   0.192   3.198   6.275 -2.6052 -4.0339 -0.5817
13793TIP3   OH262793   6.716   2.954  17.075  0.0518 -0.6568 -0.2856
13793TIP3    H162794   6.723   2.896  17.151 -1.0972 -0.3140  0.1107
13793TIP3    H262795   6.797   2.941  17.027  1.3144 -0.1187  1.5595
13794TIP3   OH262796   5.028   0.197  17.044  0.1234  0.4725 -0.4201
13794TIP3    H162797   5.099   0.137  17.067 -0.1358  0.2611 -0.1522
13794TIP3    H262798   4.959   0.140  17.011 -0.2746  0.5755  0.2113
13795TIP3   OH262799   2.574   1.915  15.968  0.0083 -0.2561  0.4170
13795TIP3    H162800   2.483   1.902  15.942  0.2855  0.2700 -0.8893
13795TIP3    H262801   2.619   1.837  15.935  0.2129  0.0065  0.0681
13796TIP3   OH262802   6.433   3.459  13.605  1.0110  0.1042 -0.6017
13796TIP3    H162803   6.339   3.473  13.605  1.0330  0.2618 -1.3897
13796TIP3    H262804   6.469   3.530  13.553  1.4601 -0.6343 -1.3246
13797TIP3   OH262805   1.432   1.370   5.675  0.7844 -0.0970  0.1388
13797TIP3    H162806   1.412   1.358   5.768  0.4226  0.1811  0.1033
13797TIP3    H262807   1.376   1.444   5.648  0.2240 -0.7348 -0.5064
13798TIP3   OH262808   1.927   0.100  14.897  0.0593  0.3395  0.3162
13798TIP3    H162809   1.839   0.088  14.933 -0.6502  1.9061 -0.7881
13798TIP3    H262810   1.957   0.011  14.878 -1.0865 -0.2558  1.1344
13799TIP3   OH262811   2.961   0.064   1.661  0.6071  0.7909 -0.2021
13799TIP3    H162812   3.006   0.084   1.743  0.5192 -0.5194  0.1978
13799TIP3    H262813   2.979   0.138   1.604  0.4108  1.8840  1.1083
13800TIP3   OH262814   6.304   3.729   2.624  0.2790  0.0877  0.4437
13800TIP3    H162815   6.333   3.791   2.557  0.7499 -1.5266 -0.9197
13800TIP3    H262816   6.219   3.762   2.652 -0.8313 -0.1427 -2.3314
13801TIP3   OH262817   5.094   4.026   5.722 -0.0322 -0.1280 -0.2392
13801TIP3    H162818   5.007   4.034   5.762  0.0388  0.5355 -0.2092
13801TIP3    H262819   5.083   3.960   5.654 -0.3574 -0.6574  0.3182
13802TIP3   OH262820   2.180   5.142  11.906 -0.6701  0.1861 -0.1318
13802TIP3    H162821   2.252   5.154  11.968 -0.4223 -3.5081  0.5235
13802TIP3    H262822   2.101   5.155  11.959 -0.4614 -0.3711  0.3262
13803TIP3   OH262823   0.756   3.479   5.774  0.3804 -0.0040 -0.5735
13803TIP3    H162824   0.818   3.547   5.748 -0.4712  0.0869 -2.4496
13803TIP3    H262825   0.688   3.481   5.708 -2.3438  0.7022  2.0315
13804TIP3   OH262826   0.689   6.618  16.966 -0.0668 -0.3325 -0.0718
13804TIP3    H162827   0.626   6.578  17.027 -0.8028  0.1672 -0.5017
13804TIP3    H262828   0.705   6.705  17.001 -1.0710  0.2370 -0.9938
13805TIP3   OH262829   4.760   1.735  13.806 -0.8333  0.2177  0.0521
13805TIP3    H162830   4.734   1.664  13.864  0.1846 -0.8582 -0.7623
13805TIP3    H262831   4.725   1.712  13.721 -0.4028  0.6356 -0.2478
13806TIP3   OH262832   1.124   4.042  13.908 -0.4244  1.0748 -0.3655
13806TIP3    H162833   1.198   3.994  13.946 -0.0423  1.1411 -1.0082
13806TIP3    H262834   1.071   4.067  13.983 -0.1641  0.4116  0.0477
13807TIP3   OH262835   3.096   2.806   0.094  1.1474 -0.3136 -0.1018
13807TIP3    H162836   3.020   2.794   0.037  1.9917 -0.1934 -1.2941
13807TIP3    H262837   3.162   2.747   0.058  2.0912  0.6308  0.0494
13808TIP3   OH262838   4.996   3.531   0.906  0.2345 -0.8129 -0.7770
13808TIP3    H162839   4.980   3.446   0.866  2.4868 -1.2628 -0.8504
13808TIP3    H262840   5.037   3.511   0.990  0.1003  0.1925 -0.4565
13809TIP3   OH262841   2.698   1.525  11.902  0.1202  0.2386 -0.0964
13809TIP3    H162842   2.759   1.504  11.832  0.4955  0.7311  0.0718
13809TIP3    H262843   2.635   1.586  11.862  0.7212  1.0442  0.1505
13810TIP3   OH262844   3.591   0.490   5.499 -0.2950 -0.3605 -0.3829
13810TIP3    H162845   3.566   0.443   5.579 -0.8087 -1.2113 -1.0289
13810TIP3    H262846   3.527   0.560   5.492  1.6013  1.7736  1.6406
13811TIP3   OH262847   3.150   6.627  13.371  0.0590  0.0810  0.4719
13811TIP3    H162848   3.070   6.672  13.347 -0.8732  0.4228  3.7450
13811TIP3    H262849   3.121   6.541  13.403  1.3623 -1.0498 -1.2011
13812TIP3   OH262850   3.355   0.594   3.691 -0.4127  0.2646  0.1543
13812TIP3    H162851   3.434   0.544   3.673 -0.8609 -0.6624  0.6949
13812TIP3    H262852   3.367   0.627   3.781 -0.8724 -0.3411  0.4433
13813TIP3   OH262853   4.841   4.799   4.288 -0.0601  0.1094 -0.2234
13813TIP3    H162854   4.867   4.742   4.360  0.4825 -0.2853 -0.7110
13813TIP3    H262855   4.768   4.753   4.246  0.4937 -0.3387 -0.7258
13814TIP3   OH262856   0.662   1.793  13.899 -0.6961  1.0091 -0.5329
13814TIP3    H162857   0.577   1.836  13.893 -1.3129 -0.1795 -0.4414
13814TIP3    H262858   0.657   1.741  13.979 -0.0912  0.4688 -0.8418
13815TIP3   OH262859   1.030   5.840   4.090  0.0815 -0.3132 -0.3368
13815TIP3    H162860   1.052   5.819   4.181 -0.3332  0.1258 -0.1308
13815TIP3    H262861   0.988   5.760   4.057 -0.4250 -0.2217  0.0802
13816TIP3   OH262862   1.622   3.207   2.522 -1.1333  0.0752  1.0970
13816TIP3    H162863   1.610   3.272   2.591 -2.0217  1.3795 -0.2141
13816TIP3    H262864   1.543   3.153   2.525 -3.1165  2.5869 -1.3119
13817TIP3   OH262865   3.765   3.681  13.164 -0.1307  0.1919  0.3006
13817TIP3    H162866   3.838   3.736  13.193 -0.5621  1.6971 -1.3253
13817TIP3    H262867   3.688   3.738  13.171 -0.4450  0.1883 -2.3621
13818TIP3   OH262868   6.539   3.797   4.576  0.1417 -0.3674 -0.2758
13818TIP3    H162869   6.533   3.736   4.650  0.6018  0.2880  0.3191
13818TIP3    H262870   6.536   3.883   4.617 -0.0760  0.0059 -1.0751
13819TIP3   OH262871   2.816   5.685  15.204 -0.1660 -1.0405 -0.5963
13819TIP3    H162872   2.864   5.767  15.215 -0.6686 -1.0004  1.8714
13819TIP3    H262873   2.882   5.623  15.171  0.9830 -0.3871  0.4067
13820TIP3   OH262874   4.116   4.471  12.039 -0.9076 -0.3371 -0.0850
13820TIP3    H162875   4.114   4.382  12.004 -0.8575  0.1839 -1.4627
13820TIP3    H262876   4.207   4.499  12.030 -0.8634 -0.2264  0.5949
13821TIP3   OH262877   6.468   3.546  12.955 -0.3123  0.0268 -0.0040
13821TIP3    H162878   6.412   3.616  12.923 -2.9357 -2.1269 -0.4215
13821TIP3    H262879   6.506   3.507  12.876 -1.6936 -1.2102 -0.0985
13822TIP3   OH262880   3.717   1.292   2.461  0.2277 -0.1045 -0.9557
13822TIP3    H162881   3.633   1.327   2.491  1.8981  1.4368  2.5336
13822TIP3    H262882   3.750   1.359   2.401 -0.1995  0.3047 -0.7463
13823TIP3   OH262883   0.161   4.359  15.916  0.4154 -0.4294 -0.2205
13823TIP3    H162884   0.189   4.341  16.006  1.4850  0.1756 -0.4140
13823TIP3    H262885   0.183   4.451  15.902 -1.9596  0.1803 -0.3245
13824TIP3   OH262886   2.101   2.395  13.598  0.4185  0.2601  0.0249
13824TIP3    H162887   2.065   2.307  13.610 -0.8459  0.7316 -0.1705
13824TIP3    H262888   2.061   2.447  13.668 -0.4407  1.1188 -1.0603
13825TIP3   OH262889   0.500   6.660   6.285 -0.0890 -0.2537  0.1230
13825TIP3    H162890   0.512   6.743   6.331 -2.3502 -0.3922  1.0771
13825TIP3    H262891   0.484   6.596   6.354 -0.7733 -1.0173 -0.7103
13826TIP3   OH262892   0.558   4.037   5.230 -0.3749  0.8054 -0.5539
13826TIP3    H162893   0.572   4.020   5.137  0.3788 -1.8472 -0.0470
13826TIP3    H262894   0.466   4.060   5.237 -0.2246  2.0000 -2.0460
13827TIP3   OH262895   1.533   2.316   3.582 -0.4718  0.9243  0.1937
13827TIP3    H162896   1.590   2.340   3.655 -0.0256  1.4920 -0.3271
13827TIP3    H262897   1.476   2.392   3.570 -2.1443 -0.0505  1.4252
13828TIP3   OH262898   4.078   0.767  14.709  0.2644 -0.3864  0.5499
13828TIP3    H162899   4.036   0.824  14.773 -0.3517  2.4970 -2.2022
13828TIP3    H262900   4.007   0.715  14.672  0.0389  0.4300 -0.1742
13829TIP3   OH262901   5.327   4.206   3.037 -0.4452  0.5568  0.1397
13829TIP3    H162902   5.247   4.258   3.034  0.6018  2.2466 -2.2985
13829TIP3    H262903   5.373   4.229   2.956  1.4634 -2.0466  0.3714
13830TIP3   OH262904   3.600   0.832   2.515  0.3600 -0.3546 -0.5489
13830TIP3    H162905   3.557   0.805   2.596 -0.7305  0.9435 -0.6497
13830TIP3    H262906   3.543   0.901   2.480  3.0072  2.2623 -0.1376
13831TIP3   OH262907   3.097   1.285   0.634 -0.5234  0.3021 -0.2120
13831TIP3    H162908   3.010   1.264   0.670 -0.0918 -1.9342 -0.3363
13831TIP3    H262909   3.110   1.221   0.564  1.4013  0.3212  0.0800
13832TIP3   OH262910   1.647   2.701  11.646  0.8279  0.0808 -0.3991
13832TIP3    H162911   1.565   2.739  11.676 -0.3228 -1.3462 -1.5863
13832TIP3    H262912   1.627   2.608  11.632  2.8911 -0.4963  0.1547
13833TIP3   OH262913   5.040   4.809   4.561 -0.3217  0.3160 -0.4246
13833TIP3    H162914   5.128   4.829   4.531 -0.7536  2.6234 -0.2830
13833TIP3    H262915   5.018   4.726   4.517  0.1548  2.0045 -4.2662
13834TIP3   OH262916   3.156   0.784  15.228 -0.9575  0.2542  0.1947
13834TIP3    H162917   3.246   0.781  15.259 -0.6275 -1.6639 -0.8410
13834TIP3    H262918   3.161   0.829  15.144 -0.9594  0.1251  0.1252
13835TIP3   OH262919   3.687   1.495  16.348 -0.0042 -1.2013 -0.4385
13835TIP3    H162920   3.731   1.414  16.374  0.0337 -1.9527 -2.6678
13835TIP3    H262921   3.742   1.530  16.278 -0.7427  0.0672 -0.4040
13836TIP3   OH262922   4.586   4.850  15.927 -0.3934 -0.2080 -0.0750
13836TIP3    H162923   4.498   4.880  15.907 -0.0544  1.1404  0.3242
13836TIP3    H262924   4.643   4.919  15.893  0.5277 -1.1734 -0.5410
13837TIP3   OH262925   6.394   5.425   4.641  0.3760  0.1863 -0.3660
13837TIP3    H162926   6.376   5.402   4.550 -1.2115 -0.5182  0.0856
13837TIP3    H262927   6.309   5.454   4.675  0.3721 -1.7469  1.4970
13838TIP3   OH262928   0.106   5.952   5.390 -0.6510  0.1380  0.0651
13838TIP3    H162929   0.067   6.026   5.344 -0.6896 -0.7342 -1.3668
13838TIP3    H262930   0.031   5.898   5.416 -0.6154  0.5120  1.0019
13839TIP3   OH262931   3.968   4.258  12.204  0.4336 -0.0979 -0.0324
13839TIP3    H162932   3.959   4.166  12.228 -0.3669 -0.3302 -1.1234
13839TIP3    H262933   4.004   4.257  12.116  0.5085  0.6355 -0.0206
13840TIP3   OH262934   2.541   2.045  13.991 -0.5922 -0.1149  0.4088
13840TIP3    H162935   2.565   2.069  13.902 -0.0505  0.0671  0.6026
13840TIP3    H262936   2.451   2.076  14.001 -0.2643  0.9016  0.3071
13841TIP3   OH262937   0.504   6.254  13.867 -0.0343 -0.1658 -0.3976
13841TIP3    H162938   0.500   6.239  13.961 -1.8568  0.0352 -0.3946
13841TIP3    H262939   0.485   6.348  13.857  4.6158  1.0022 -0.7899
13842TIP3   OH262940   2.572   6.749  16.858  0.7740 -0.2109  0.5518
13842TIP3    H162941   2.538   6.659  16.860 -0.2157  0.1539  1.0516
13842TIP3    H262942   2.649   6.747  16.916 -0.4932 -0.2887  2.3299
13843TIP3   OH262943   3.374   1.020  15.345 -0.2121 -0.4642  0.0867
13843TIP3    H162944   3.296   1.025  15.401 -0.1801 -0.1922  0.1084
13843TIP3    H262945   3.386   0.926  15.329 -0.1979 -0.5461  0.5703
13844TIP3   OH262946   6.070   3.853   2.700  0.0391 -0.4799  0.0082
13844TIP3    H162947   6.041   3.834   2.790  0.1656  0.2142  0.2006
13844TIP3    H262948   6.046   3.945   2.686 -0.6953 -0.8000 -0.9519
13845TIP3   OH262949   4.698   5.694  16.597 -0.1765  0.1078  0.1458
13845TIP3    H162950   4.744   5.769  16.636  0.8091 -1.1439  1.4774
13845TIP3    H262951   4.754   5.668  16.524  0.1721 -0.1470  0.5029
13846TIP3   OH262952   1.787   2.520  15.210  0.3196  0.2036 -0.1515
13846TIP3    H162953   1.731   2.574  15.266  0.5246  1.2653 -0.9402
13846TIP3    H262954   1.777   2.431  15.244 -2.6869  0.1403 -0.9316
13847TIP3   OH262955   4.039   5.303  14.297  0.3945 -0.2613 -0.5597
13847TIP3    H162956   4.045   5.366  14.369 -3.1302 -1.1638  0.7708
13847TIP3    H262957   4.099   5.233  14.323  1.6664  0.9005 -0.2404
13848TIP3   OH262958   1.430   3.079  13.663  0.5353 -0.1655  0.3964
13848TIP3    H162959   1.368   3.067  13.735  0.8919  1.4656  1.0332
13848TIP3    H262960   1.486   3.002  13.666  0.0950 -0.4671  1.4126
13849TIP3   OH262961   1.194   1.993  11.084  0.2536  0.6966 -0.0015
13849TIP3    H162962   1.265   1.930  11.070  0.9533  0.8973  2.1684
13849TIP3    H262963   1.116   1.950  11.048  0.6984 -1.4946  1.4388
13850TIP3   OH262964   5.615   5.198  13.100 -0.1855  0.0025 -0.4013
13850TIP3    H162965   5.625   5.120  13.046  0.1497 -0.5053  0.3724
13850TIP3    H262966   5.674   5.262  13.061 -2.5378  0.8998 -2.8027
13851TIP3   OH262967   0.202   6.682   1.671  0.1055  0.0078  0.3000
13851TIP3    H162968   0.276   6.621   1.669  0.9077  0.9850 -0.4016
13851TIP3    H262969   0.192   6.705   1.764  0.5885 -0.2331  0.4145
13852TIP3   OH262970   4.218   3.058   6.490 -0.6388 -0.2266  0.0271
13852TIP3    H162971   4.211   3.087   6.581  1.3055 -0.6592  0.3644
13852TIP3    H262972   4.166   2.977   6.487 -2.3620  0.8312  0.2136
13853TIP3   OH262973   0.441   5.498   3.118  0.4103 -0.0570 -0.1092
13853TIP3    H162974   0.397   5.573   3.157 -1.4731 -0.3750 -1.4946
13853TIP3    H262975   0.535   5.514   3.133 -0.0586  1.4104  1.5921
13854TIP3   OH262976   2.355   4.107  13.797 -0.0271 -0.0338 -0.1853
13854TIP3    H162977   2.305   4.184  13.772 -1.2943 -0.6982  0.1883
13854TIP3    H262978   2.431   4.107  13.739 -0.3787  1.0824 -0.6728
13855TIP3   OH262979   3.057   3.796  14.989  0.3036  0.5028 -0.0332
13855TIP3    H162980   3.137   3.839  14.957  0.2724  0.5070 -0.1054
13855TIP3    H262981   3.042   3.724  14.927 -0.3959  1.1961 -0.6908
13856TIP3   OH262982   3.581   3.643  16.219 -0.0357 -0.3108  0.5226
13856TIP3    H162983   3.634   3.684  16.151 -0.7233  0.5866  0.5052
13856TIP3    H262984   3.642   3.588  16.268  0.4129 -1.2298 -0.9975
13857TIP3   OH262985   0.437   1.465  13.510  0.5669  0.1152  0.8402
13857TIP3    H162986   0.345   1.477  13.531  0.3094 -0.8823  0.3242
13857TIP3    H262987   0.483   1.496  13.588 -0.2588 -0.6478  1.6600
13858TIP3   OH262988   1.160   5.899  15.838  0.2716  0.3850  0.5481
13858TIP3    H162989   1.177   5.820  15.786  0.2748  0.6247  0.1827
13858TIP3    H262990   1.067   5.895  15.858  0.5810 -0.5843  1.9803
13859TIP3   OH262991   0.060   4.199  13.779  0.1417 -1.0804 -0.2483
13859TIP3    H162992   0.145   4.174  13.744  0.9257 -0.7713  1.3652
13859TIP3    H262993   0.072   4.203  13.874 -1.9647 -2.1558  0.1465
13860TIP3   OH262994   5.850   0.378  12.849  0.7168 -0.9022  0.7377
13860TIP3    H162995   5.933   0.412  12.884  0.6057  1.4404 -1.0055
13860TIP3    H262996   5.787   0.392  12.921  1.5315 -1.3491  1.5566
13861TIP3   OH262997   6.616   5.616   1.271  0.2146 -0.4514 -0.4672
13861TIP3    H162998   6.663   5.533   1.270 -0.3323 -0.7646 -1.5215
13861TIP3    H262999   6.637   5.658   1.188 -2.1332 -1.0829 -1.4715
13862TIP3   OH263000   5.261   3.974  14.859 -0.2401  0.1300 -0.0634
13862TIP3    H163001   5.356   3.977  14.860 -0.2560  0.8288 -0.2995
13862TIP3    H263002   5.240   3.890  14.817  0.2600 -1.2076  2.1858
13863TIP3   OH263003   0.688   3.338  12.624 -0.7313 -0.2877  0.4571
13863TIP3    H163004   0.612   3.290  12.655 -0.2021 -1.6528 -0.2913
13863TIP3    H263005   0.753   3.271  12.605  0.8901  0.8568  1.6050
13864TIP3   OH263006   2.166   2.090   2.308 -0.5156 -0.0949 -0.5904
13864TIP3    H163007   2.229   2.070   2.239 -0.5515 -1.4963 -0.2480
13864TIP3    H263008   2.208   2.158   2.360 -1.7150  3.3451 -3.6636
13865TIP3   OH263009   1.793   1.945   2.942  0.0399 -0.2103 -0.5289
13865TIP3    H163010   1.875   1.925   2.897  0.3515 -1.9058  0.6926
13865TIP3    H263011   1.820   1.973   3.030 -0.6778 -0.2398 -0.2880
13866TIP3   OH263012   0.718   2.576   0.336 -0.4100 -0.3089 -0.0400
13866TIP3    H163013   0.741   2.544   0.249  0.7001 -0.4038  0.2818
13866TIP3    H263014   0.778   2.531   0.396 -0.1571  0.8676  0.6215
13867TIP3   OH263015   3.569   3.961  16.063 -0.0565  0.0703  0.2711
13867TIP3    H163016   3.528   3.936  16.146 -0.0908  0.8889  0.5064
13867TIP3    H263017   3.661   3.975  16.086  0.0332 -0.1733  0.0675
13868TIP3   OH263018   0.459   0.948  15.417 -0.0405 -0.2256  0.1940
13868TIP3    H163019   0.479   1.040  15.435  3.1481 -1.0255  1.4276
13868TIP3    H263020   0.370   0.936  15.450 -0.3814  2.3011  0.3577
13869TIP3   OH263021   2.169   1.498  16.456  0.6563  0.3842 -0.4192
13869TIP3    H163022   2.126   1.433  16.400 -0.1729  0.2551  0.3447
13869TIP3    H263023   2.213   1.557  16.394 -1.4232  1.0838 -1.3155
13870TIP3   OH263024   1.391   1.745   0.603  0.3677 -0.1874  0.5982
13870TIP3    H163025   1.359   1.669   0.651  0.5937  0.1817  1.3543
13870TIP3    H263026   1.326   1.761   0.535  0.9826 -1.8629 -0.4270
13871TIP3   OH263027   2.366   1.874   3.168 -0.1930  0.3771 -0.0946
13871TIP3    H163028   2.322   1.791   3.151  3.5613 -1.3394 -2.8560
13871TIP3    H263029   2.333   1.933   3.101 -1.5998  0.6524  0.7986
13872TIP3   OH263030   3.489   0.387  16.015  0.1737  0.2407  0.0512
13872TIP3    H163031   3.412   0.364  16.067 -0.6475  1.9830 -0.3175
13872TIP3    H263032   3.523   0.467  16.056  0.7580  0.4548 -0.8281
13873TIP3   OH263033   4.346   6.640  11.222  0.2500  0.0992  0.0173
13873TIP3    H163034   4.344   6.656  11.317 -0.0775 -3.0875  0.6520
13873TIP3    H263035   4.344   6.545  11.214 -0.1565  0.2859 -3.2426
13874TIP3   OH263036   5.822   5.176  15.164 -0.0458  0.0065 -0.2201
13874TIP3    H163037   5.828   5.158  15.070  0.9007 -1.0333  0.0177
13874TIP3    H263038   5.746   5.234  15.173 -1.6158 -1.7953 -1.3572
13875TIP3   OH263039   0.218   2.391   1.909 -0.1977 -0.6393 -0.1311
13875TIP3    H163040   0.127   2.421   1.917  0.1054  1.6177 -3.1363
13875TIP3    H263041   0.214   2.319   1.846  0.1175  0.2066 -1.1645
13876TIP3   OH263042   3.358   5.473   4.241 -0.1197 -0.2143 -0.0778
13876TIP3    H163043   3.412   5.514   4.309  0.1112  0.3461 -0.5974
13876TIP3    H263044   3.270   5.470   4.280  0.0549 -0.1094  0.3329
13877TIP3   OH263045   6.017   2.920  15.575 -0.2479  0.1388 -0.1661
13877TIP3    H163046   6.000   2.934  15.482 -5.3201 -0.9679  0.2617
13877TIP3    H263047   6.040   2.827  15.581 -1.0496 -0.0757 -0.2804
13878TIP3   OH263048   6.692   5.633  15.401 -0.1875  0.1837  0.0974
13878TIP3    H163049   6.667   5.725  15.401 -0.3103  0.1506  0.0877
13878TIP3    H263050   6.781   5.632  15.366  0.2958  0.4237  1.2829
13879TIP3   OH263051   2.597   1.182   2.746 -0.2355  0.1565  0.1143
13879TIP3    H163052   2.518   1.154   2.792  1.3431 -0.6325  2.5510
13879TIP3    H263053   2.645   1.101   2.730  1.1744  0.8092  0.9046
13880TIP3   OH263054   5.687   4.469   0.309 -0.7184 -0.0527  0.2167
13880TIP3    H163055   5.698   4.459   0.403 -0.1366  1.9809  0.3983
13880TIP3    H263056   5.592   4.474   0.297 -0.8167 -0.7916  0.6240
13881TIP3   OH263057   6.065   2.275  11.654  0.8700  0.5733  0.2322
13881TIP3    H163058   6.064   2.246  11.745  0.6575  0.7957  0.2996
13881TIP3    H263059   5.996   2.340  11.648  2.3187  2.2043  0.4651
13882TIP3   OH263060   5.596   3.219  14.452  0.3848  0.0468  0.1403
13882TIP3    H163061   5.678   3.256  14.484 -0.4065  1.0566  1.0845
13882TIP3    H263062   5.622   3.143  14.401  1.8830  0.1753  0.6721
13883TIP3   OH263063   1.242   3.538  16.515  0.0214  0.1559  0.5651
13883TIP3    H163064   1.291   3.607  16.470 -0.8603  0.5039  0.1181
13883TIP3    H263065   1.309   3.479  16.548  0.7056  0.0277 -0.9818
13884TIP3   OH263066   3.734   3.230  16.087  0.2744  0.2725 -0.3302
13884TIP3    H163067   3.657   3.202  16.136 -1.0857 -0.8579 -2.9198
13884TIP3    H263068   3.705   3.309  16.041  1.4595  1.2098  0.4738
13885TIP3   OH263069   3.377   1.909   3.991 -0.0649  0.2892  0.5761
13885TIP3    H163070   3.365   1.903   3.896  0.5922 -0.2331  0.5269
13885TIP3    H263071   3.469   1.930   4.003  0.2500 -1.2794  1.1424
13886TIP3   OH263072   0.702   2.145  13.451  0.4410  0.1913  0.8196
13886TIP3    H163073   0.724   2.147  13.358  0.0070 -0.2623  0.7080
13886TIP3    H263074   0.783   2.174  13.495  1.3240 -1.5070  0.4163
13887TIP3   OH263075   5.349   3.008  11.941 -0.0593  0.2325  0.4680
13887TIP3    H163076   5.436   3.003  11.901 -1.1850 -2.4248 -2.0443
13887TIP3    H263077   5.352   2.945  12.013 -0.1376 -0.6635 -0.2851
13888TIP3   OH263078   5.558   4.712   3.797  0.1553  0.1589 -0.0181
13888TIP3    H163079   5.645   4.751   3.794 -0.1605  0.8148 -0.9749
13888TIP3    H263080   5.510   4.754   3.725 -0.9649 -0.1522  0.5260
13889TIP3   OH263081   3.930   2.164  13.889  0.3982 -0.0906 -0.1551
13889TIP3    H163082   4.024   2.183  13.892  0.5517 -0.9079  1.5470
13889TIP3    H263083   3.918   2.118  13.806  1.9891 -2.1890  0.6945
13890TIP3   OH263084   5.461   5.018   3.457  0.1033 -0.0733 -0.1996
13890TIP3    H163085   5.529   4.955   3.433  0.2063 -0.1350  0.2480
13890TIP3    H263086   5.487   5.099   3.413 -0.1230 -0.3824 -0.9225
13891TIP3   OH263087   4.923   5.231  16.436  0.4447  0.6780  0.3403
13891TIP3    H163088   4.873   5.252  16.515  0.7489  0.3234  0.6288
13891TIP3    H263089   4.870   5.267  16.364 -1.0747 -1.0763  0.4974
13892TIP3   OH263090   3.308   5.816   3.168 -0.0533 -0.5131 -0.0566
13892TIP3    H163091   3.329   5.909   3.168 -0.8391 -0.2734  2.3690
13892TIP3    H263092   3.218   5.813   3.136 -0.1795 -0.3858  0.2812
13893TIP3   OH263093   1.105   3.669  15.765  0.1632  0.1069 -0.0304
13893TIP3    H163094   1.080   3.660  15.858 -0.4678 -2.1317 -0.3438
13893TIP3    H263095   1.029   3.710  15.724 -0.2050 -0.3093  0.2137
13894TIP3   OH263096   4.510   2.032   1.800 -0.5904 -0.3164 -1.3561
13894TIP3    H163097   4.555   2.027   1.885 -0.5734 -1.1260 -1.3986
13894TIP3    H263098   4.576   2.064   1.739  0.1457 -2.0780 -1.5428
13895TIP3   OH263099   2.048   6.333   0.738  0.3188  0.0852 -0.0697
13895TIP3    H163100   1.990   6.364   0.668  0.5971 -0.7287 -0.6673
13895TIP3    H263101   2.135   6.329   0.699  0.3363 -1.2106  0.0412
13896TIP3   OH263102   3.975   4.364  12.507  0.3142 -0.4384 -0.1350
13896TIP3    H163103   3.980   4.365  12.411 -0.1001 -0.7029 -0.1620
13896TIP3    H263104   3.916   4.291  12.527 -0.5952  0.3821  0.2785
13897TIP3   OH263105   6.295   1.724  16.757  0.0515  0.4956 -0.0232
13897TIP3    H163106   6.217   1.778  16.771  0.0674  0.6521 -0.5374
13897TIP3    H263107   6.351   1.743  16.833 -1.3493 -1.3205  1.5535
13898TIP3   OH263108   0.573   0.716   6.751 -0.4243 -0.2848 -0.1375
13898TIP3    H163109   0.664   0.700   6.730 -0.0760 -0.4456  1.3411
13898TIP3    H263110   0.542   0.776   6.684  1.2119  1.0197  0.2156
13899TIP3   OH263111   2.783   5.100   4.341 -0.5104 -1.0063 -0.1072
13899TIP3    H163112   2.698   5.079   4.380 -0.7804  2.2149  1.3843
13899TIP3    H263113   2.769   5.183   4.296  1.9495  0.0165  0.8024
13900TIP3   OH263114   3.045   4.622   6.162 -0.6109  0.1427  0.5998
13900TIP3    H163115   2.951   4.606   6.161 -0.6616  0.4448 -0.9144
13900TIP3    H263116   3.066   4.632   6.255 -1.7355 -1.7106  1.1013
13901TIP3   OH263117   2.429   3.208   0.925 -0.0315  0.4716  0.3818
13901TIP3    H163118   2.522   3.215   0.945  0.6849  1.1982 -2.6294
13901TIP3    H263119   2.397   3.298   0.933 -0.1068  0.4793  0.0261
13902TIP3   OH263120   4.967   1.053  11.505  0.0878  0.2505  0.4738
13902TIP3    H163121   5.021   1.094  11.573 -0.2724 -1.4923  1.8871
13902TIP3    H263122   4.922   0.981  11.550  0.9783 -1.9633 -1.9204
13903TIP3   OH263123   5.751   3.465   5.691  0.3179 -0.3540  0.3436
13903TIP3    H163124   5.791   3.552   5.698 -2.0619  0.9577 -0.8198
13903TIP3    H263125   5.736   3.438   5.782 -0.6512  1.3914  0.7529
13904TIP3   OH263126   5.102   4.380   5.201 -0.0168  0.4545 -0.6762
13904TIP3    H163127   5.125   4.321   5.272  0.9312  1.8175  0.1898
13904TIP3    H263128   5.103   4.467   5.240 -1.3013  1.0835 -1.9335
13905TIP3   OH263129   3.802   1.207  14.008 -0.4473 -0.0956  0.0144
13905TIP3    H163130   3.821   1.301  14.009  0.5781 -0.2912  0.1023
13905TIP3    H263131   3.824   1.177  14.096  1.1489 -0.7483 -0.5595
13906TIP3   OH263132   0.986   0.587  13.077 -0.5224 -0.1799  0.4818
13906TIP3    H163133   0.986   0.570  13.171  1.8080  1.0177  0.7525
13906TIP3    H263134   1.047   0.522  13.041  0.4747  0.8987  0.1631
13907TIP3   OH263135   3.608   6.434  17.068 -0.2908 -0.1147  0.1662
13907TIP3    H163136   3.556   6.357  17.091  0.0985  0.2033  2.3748
13907TIP3    H263137   3.544   6.504  17.060 -0.4533 -0.2526  0.2566
13908TIP3   OH263138   2.160   5.477  15.837  0.2478  0.0254 -0.3519
13908TIP3    H163139   2.078   5.505  15.798 -1.0866 -1.5773  1.1419
13908TIP3    H263140   2.219   5.465  15.762 -0.4797  2.2554 -1.3566
13909TIP3   OH263141   6.732   5.196  16.759 -0.2097  0.3392  0.5320
13909TIP3    H163142   6.805   5.250  16.790 -0.6286  0.7048  0.8884
13909TIP3    H263143   6.677   5.256  16.710 -1.6384  0.6757  2.4595
13910TIP3   OH263144   3.002   1.868   0.264 -0.3054  0.0662  0.1804
13910TIP3    H163145   3.027   1.950   0.221  1.9886 -0.8007 -0.2797
13910TIP3    H263146   3.072   1.806   0.240 -0.5252 -1.2788  2.7276
13911TIP3   OH263147   0.383   2.678   5.834  0.6147 -0.1868  0.1387
13911TIP3    H163148   0.456   2.619   5.812 -0.1930 -1.1839  0.0474
13911TIP3    H263149   0.352   2.647   5.919 -0.3052 -0.3887 -0.2567
13912TIP3   OH263150   2.576   6.314   1.600 -0.2504  0.3196 -0.1040
13912TIP3    H163151   2.576   6.306   1.695  0.6913  1.7322  0.0634
13912TIP3    H263152   2.552   6.405   1.583 -1.5151 -0.1985 -1.2821
13913TIP3   OH263153   3.776   1.113  12.613  0.3424  0.5217 -0.9127
13913TIP3    H163154   3.767   1.057  12.537 -2.4076 -0.8226  0.2621
13913TIP3    H263155   3.870   1.114  12.631  0.7073 -2.0698 -2.1852
13914TIP3   OH263156   0.217   4.722  16.597  0.5700 -0.6581 -0.9247
13914TIP3    H163157   0.262   4.807  16.594  1.7774 -1.2655 -0.6130
13914TIP3    H263158   0.161   4.722  16.519 -0.2147  0.8173 -0.4082
13915TIP3   OH263159   4.780   2.365   4.045 -0.6261 -0.1430 -0.5188
13915TIP3    H163160   4.693   2.388   4.012 -0.5794 -0.6273 -1.0011
13915TIP3    H263161   4.840   2.412   3.987 -0.5687  1.2192  0.6027
13916TIP3   OH263162   2.863   4.706  15.177 -0.2072 -0.4475 -0.2592
13916TIP3    H163163   2.773   4.673  15.179 -1.1513  1.9614  1.3507
13916TIP3    H263164   2.860   4.780  15.117  0.2051  0.8083  1.2116
13917TIP3   OH263165   2.926   4.785   2.001  0.1247  0.0404  0.4869
13917TIP3    H163166   2.913   4.712   2.061 -1.0538 -0.2071 -0.0492
13917TIP3    H263167   2.845   4.835   2.005  0.2393  0.3240 -0.4833
13918TIP3   OH263168   0.234   5.218   2.005 -0.1056 -0.0006  0.5635
13918TIP3    H163169   0.189   5.138   2.030 -2.2889  1.0684  0.2822
13918TIP3    H263170   0.172   5.264   1.948  1.9832  0.8430 -1.1737
13919TIP3   OH263171   5.389   2.508   1.364 -0.8420 -0.0831  0.1806
13919TIP3    H163172   5.355   2.557   1.290  0.7331  0.8723  0.0425
13919TIP3    H263173   5.446   2.570   1.410  0.3669 -1.4608  0.6118
13920TIP3   OH263174   4.795   3.613   3.239  0.2816 -0.1506  0.2850
13920TIP3    H163175   4.846   3.533   3.225 -1.2169 -1.1890  0.5230
13920TIP3    H263176   4.720   3.605   3.180 -0.4355  0.5746  1.0621
13921TIP3   OH263177   5.211   5.523   3.458 -0.1493  0.1683 -0.6391
13921TIP3    H163178   5.144   5.458   3.478 -1.1195  0.7795 -1.7990
13921TIP3    H263179   5.162   5.603   3.438  0.8774  0.4589 -2.1322
13922TIP3   OH263180   5.388   2.441  15.689 -0.5536 -0.0315 -0.5131
13922TIP3    H163181   5.422   2.515  15.639  1.3943 -0.5229  0.0037
13922TIP3    H263182   5.423   2.454  15.778 -0.2087 -1.5417 -0.4084
13923TIP3   OH263183   0.687   2.610   4.132 -0.5242 -0.1594  0.0465
13923TIP3    H163184   0.783   2.610   4.137 -0.4653 -1.0040 -0.8518
13923TIP3    H263185   0.661   2.688   4.181  0.6320  0.1860  0.1464
13924TIP3   OH263186   0.072   5.482   2.985  1.0266 -0.1580 -0.2767
13924TIP3    H163187   0.012   5.532   2.929 -0.1130 -1.2940 -0.1056
13924TIP3    H263188   0.159   5.503   2.951  0.5509  1.4775 -0.5758
13925TIP3   OH263189   5.968   6.204   5.508 -0.5100  0.3480 -0.3873
13925TIP3    H163190   5.991   6.218   5.599  0.4479  0.8404 -0.6930
13925TIP3    H263191   5.992   6.286   5.464  0.0902 -0.2829 -1.2742
13926TIP3   OH263192   6.294   0.833  16.284 -0.2393 -0.1530 -0.2167
13926TIP3    H163193   6.319   0.796  16.199  1.2097  1.8164 -0.7100
13926TIP3    H263194   6.200   0.849  16.276  0.0173  0.7363 -1.7773
13927TIP3   OH263195   4.281   3.142   1.104 -0.2872  0.0802 -0.2361
13927TIP3    H163196   4.212   3.175   1.161  0.6831 -0.5650  1.3710
13927TIP3    H263197   4.331   3.219   1.077 -0.2629  0.3064  0.4596
13928TIP3   OH263198   3.364   5.503  14.522 -0.3414  0.0194  0.3412
13928TIP3    H163199   3.293   5.551  14.565 -0.9549 -0.3733 -0.2067
13928TIP3    H263200   3.321   5.455  14.451  0.5467  0.1679 -0.3266
13929TIP3   OH263201   0.553   6.433   0.988 -0.0031 -0.1914  0.1056
13929TIP3    H163202   0.515   6.485   0.917  2.3930  2.6052  0.6860
13929TIP3    H263203   0.510   6.466   1.068 -0.8775 -1.5457  0.2217
13930TIP3   OH263204   3.218   4.258   1.643 -0.4981 -0.4752  0.3382
13930TIP3    H163205   3.172   4.204   1.707 -0.3218 -0.5833  0.3725
13930TIP3    H263206   3.199   4.217   1.558 -1.3864  0.1190  0.2314
13931TIP3   OH263207   0.013   5.997  11.385 -0.2386 -0.3523 -0.2811
13931TIP3    H163208   0.029   5.902  11.383  0.8580 -0.2911  1.9982
13931TIP3    H263209   0.047   6.028  11.301  2.3394 -1.6326  0.1497
13932TIP3   OH263210   1.142   5.455   6.576 -0.2139 -0.1614  0.0459
13932TIP3    H163211   1.089   5.534   6.569  1.8921  1.3622  0.4435
13932TIP3    H263212   1.125   5.422   6.664  2.3566  2.5833  1.7399
13933TIP3   OH263213   1.079   4.967   5.152 -0.1668 -0.6150 -0.3631
13933TIP3    H163214   1.118   4.889   5.192 -1.3739 -1.2728 -0.4262
13933TIP3    H263215   1.047   5.018   5.227  0.4294 -0.2712 -0.3346
13934TIP3   OH263216   1.033   3.910   6.094  0.3620 -0.5587  0.2221
13934TIP3    H163217   1.097   3.979   6.076  1.1470 -1.1000  0.8800
13934TIP3    H263218   1.062   3.871   6.176  1.0614 -2.9698 -1.0809
13935TIP3   OH263219   1.917   1.528  11.858 -0.0971  0.1334  0.2542
13935TIP3    H163220   1.963   1.606  11.888 -0.3387 -0.2757  1.7491
13935TIP3    H263221   1.936   1.524  11.764  1.4750  0.9349  0.5000
13936TIP3   OH263222   3.255   6.666  17.054 -0.4847  0.1213  0.0244
13936TIP3    H163223   3.225   6.609  17.125 -3.5215  0.2114 -1.0366
13936TIP3    H263224   3.260   6.753  17.094  0.6919 -0.2807  0.7923
13937TIP3   OH263225   2.882   0.388   3.781 -0.2393  0.1179 -0.1061
13937TIP3    H163226   2.972   0.419   3.769 -0.0445 -0.8220 -1.2142
13937TIP3    H263227   2.868   0.325   3.710 -1.3987 -0.5967  0.7237
13938TIP3   OH263228   0.865   0.436  14.365 -0.0566  0.2461  0.1989
13938TIP3    H163229   0.900   0.357  14.324 -0.8663 -0.6991  1.2399
13938TIP3    H263230   0.941   0.494  14.375  0.8383 -0.9560  0.6461
13939TIP3   OH263231   3.641   4.362   0.917 -0.2939  0.1079  0.0666
13939TIP3    H163232   3.730   4.372   0.886  0.7342 -0.0830  2.6832
13939TIP3    H263233   3.627   4.268   0.923 -0.6551  0.1363 -0.2776
13940TIP3   OH263234   4.759   3.852  15.713 -0.1375  0.2291 -0.6334
13940TIP3    H163235   4.705   3.854  15.634 -2.1076 -0.6562  0.6395
13940TIP3    H263236   4.761   3.760  15.738 -0.3113  0.6233  0.8793
13941TIP3   OH263237   3.251   3.056  10.848  0.0899  0.2587 -0.4311
13941TIP3    H163238   3.222   3.000  10.775 -0.3634 -0.5016  0.3077
13941TIP3    H263239   3.300   2.997  10.905 -0.8115  0.4959  0.6115
13942TIP3   OH263240   6.214   1.994  13.419  0.1400 -0.2020  0.2307
13942TIP3    H163241   6.303   1.987  13.454 -0.5619 -0.0803  2.1602
13942TIP3    H263242   6.209   2.083  13.385  0.7732 -0.2401  0.0160
13943TIP3   OH263243   1.335   6.558   5.550 -0.3141 -0.1989  0.4010
13943TIP3    H163244   1.248   6.598   5.563 -1.2382 -2.4278  1.6905
13943TIP3    H263245   1.357   6.522   5.636  0.4298 -2.4178 -0.6550
13944TIP3   OH263246   5.925   3.648   5.761  0.2300 -0.1395 -0.0437
13944TIP3    H163247   5.925   3.733   5.806 -0.1871  0.1332 -0.5552
13944TIP3    H263248   5.960   3.587   5.827  1.0496  0.5111  0.1491
13945TIP3   OH263249   5.309   2.632   0.838 -0.2886  0.3323  0.8878
13945TIP3    H163250   5.295   2.553   0.786  0.4213  0.5308  0.3757
13945TIP3    H263251   5.377   2.607   0.900  0.5034  0.7507  0.2128
13946TIP3   OH263252   5.731   3.264  14.155 -0.0713 -0.3220 -0.0463
13946TIP3    H163253   5.686   3.326  14.213 -0.4230 -0.1569 -0.4972
13946TIP3    H263254   5.781   3.320  14.096 -0.3917 -0.4695 -0.4567
13947TIP3   OH263255   4.031   3.984  11.151 -0.3433 -0.2203 -0.5662
13947TIP3    H163256   3.948   4.025  11.126 -0.7165 -0.8010 -0.3046
13947TIP3    H263257   4.098   4.042  11.115 -0.8575  0.5334 -0.3268
13948TIP3   OH263258   5.929   2.035  17.100  0.0002  0.2929 -0.4294
13948TIP3    H163259   5.836   2.054  17.086  0.0562 -0.7281 -2.5579
13948TIP3    H263260   5.972   2.074  17.024  1.7187  2.9984  1.7133
13949TIP3   OH263261   0.830   0.104  13.582 -0.1684  0.3175 -0.3632
13949TIP3    H163262   0.906   0.074  13.533 -0.6039  0.5551 -1.1879
13949TIP3    H263263   0.773   0.028  13.586 -1.6991  1.1971 -3.2686
13950TIP3   OH263264   4.543   1.541  12.919  0.7195  0.2527  0.2314
13950TIP3    H163265   4.487   1.619  12.921  0.3288 -0.0009 -0.4975
13950TIP3    H263266   4.537   1.509  12.829  0.3409 -0.9946  0.6723
13951TIP3   OH263267   5.625   0.344  13.737  0.7435 -0.4699 -0.4393
13951TIP3    H163268   5.657   0.394  13.662 -0.2557  0.0234 -0.5472
13951TIP3    H263269   5.568   0.278  13.698  1.7626 -1.4900 -0.2650
13952TIP3   OH263270   2.836   4.198   4.513 -0.1661 -0.1090 -0.0618
13952TIP3    H163271   2.904   4.142   4.475 -0.6515 -2.2134  1.9480
13952TIP3    H263272   2.760   4.141   4.521 -1.3787  1.4885  0.0854
13953TIP3   OH263273   6.679   6.634  12.332  0.1442 -0.9672  0.0168
13953TIP3    H163274   6.728   6.677  12.261 -0.2683  0.4126  0.5390
13953TIP3    H263275   6.713   6.544  12.333  1.5380 -0.4804 -0.6582
13954TIP3   OH263276   1.426   0.550   3.777  0.5269 -0.3517  0.4996
13954TIP3    H163277   1.349   0.533   3.722 -0.0623 -1.2804  1.5808
13954TIP3    H263278   1.390   0.572   3.863  1.4416  0.8846  0.5942
13955TIP3   OH263279   1.989   1.172   1.341  0.2229  0.1416  0.0839
13955TIP3    H163280   1.898   1.148   1.362  0.7845 -2.0388  0.1924
13955TIP3    H263281   1.994   1.165   1.246  0.5855 -0.9509  0.1775
13956TIP3   OH263282   6.543   5.401  10.640 -0.2132  0.1866 -0.5839
13956TIP3    H163283   6.597   5.434  10.569 -0.6759  0.1680 -0.9501
13956TIP3    H263284   6.605   5.369  10.705  0.2401  1.3863 -0.4018
13957TIP3   OH263285   2.257   2.051   1.237  0.5586 -0.0450  0.1031
13957TIP3    H163286   2.190   1.985   1.249  0.6350  0.0125  0.8827
13957TIP3    H263287   2.208   2.133   1.227  0.5033  0.3623  2.9186
13958TIP3   OH263288   5.556   2.528   4.355 -0.1727 -0.1207  0.0346
13958TIP3    H163289   5.481   2.520   4.295  0.5442  0.6324 -1.0024
13958TIP3    H263290   5.617   2.460   4.327 -0.9282 -1.5531  1.6571
13959TIP3   OH263291   6.178   2.989   1.833 -0.1549 -0.5535  0.2843
13959TIP3    H163292   6.223   2.908   1.857  1.8929 -0.0205 -1.4465
13959TIP3    H263293   6.113   2.963   1.768  0.5011 -0.8409 -0.2705
13960TIP3   OH263294   1.586   6.333   5.316  0.2455  0.7698  0.1324
13960TIP3    H163295   1.648   6.406   5.306  0.1624  0.6703 -1.4634
13960TIP3    H263296   1.627   6.275   5.380  1.8277  0.7147 -0.8756
13961TIP3   OH263297   3.349   0.375  14.891  0.0007  0.5666  0.4698
13961TIP3    H163298   3.293   0.418  14.956  1.3023  2.3074  0.5330
13961TIP3    H263299   3.290   0.319  14.841 -1.5265  1.2497  1.4340
13962TIP3   OH263300   3.876   2.644  10.993  0.5053  0.2905 -0.5411
13962TIP3    H163301   3.845   2.734  10.981  0.8340  0.2277 -1.9445
13962TIP3    H263302   3.834   2.595  10.923 -0.7188 -0.9516  0.9760
13963TIP3   OH263303   5.781   5.619   5.548  0.0161  0.1390 -0.1055
13963TIP3    H163304   5.809   5.565   5.622 -1.9173 -0.2617  0.4057
13963TIP3    H263305   5.685   5.618   5.553 -0.1402  0.9370 -2.0352
13964TIP3   OH263306   2.042   0.865   5.906 -0.4335 -0.0047 -0.3107
13964TIP3    H163307   2.104   0.794   5.921 -1.2592 -0.5312  0.7195
13964TIP3    H263308   2.057   0.926   5.978 -0.9983 -0.0681 -0.1323
13965TIP3   OH263309   6.445   0.331   4.396  0.7680 -0.0018 -0.5221
13965TIP3    H163310   6.521   0.289   4.436  0.4020  1.0894  1.4929
13965TIP3    H263311   6.371   0.302   4.450  0.1768  1.2109 -0.6468
13966TIP3   OH263312   2.108   4.411  12.836 -0.3103  0.2134 -0.0334
13966TIP3    H163313   2.135   4.488  12.887  1.2982  0.3054 -0.9443
13966TIP3    H263314   2.148   4.337  12.881  0.6525  0.2411 -0.8040
13967TIP3   OH263315   1.507   4.722   2.323 -0.0853 -0.0534 -0.5134
13967TIP3    H163316   1.573   4.722   2.253  1.6431  0.5845  1.0475
13967TIP3    H263317   1.465   4.807   2.316  1.5087  0.8692  0.4338
13968TIP3   OH263318   5.933   1.440   1.982  0.2537  0.0462 -0.5923
13968TIP3    H163319   5.989   1.474   1.912  0.3921 -0.6169 -0.8150
13968TIP3    H263320   5.883   1.370   1.940 -0.0385 -0.0084 -0.1533
13969TIP3   OH263321   1.076   2.339  13.845 -0.4008 -1.1119 -0.1295
13969TIP3    H163322   1.023   2.318  13.922 -0.3357 -0.6125  0.0527
13969TIP3    H263323   1.162   2.361  13.880 -0.9341  1.1993 -0.1533
13970TIP3   OH263324   4.844   2.335  12.605  0.3128 -0.0561 -0.5309
13970TIP3    H163325   4.751   2.345  12.625  0.5375 -0.0253  0.5774
13970TIP3    H263326   4.869   2.418  12.565 -0.2897 -0.3282 -1.4877
13971TIP3   OH263327   1.426   5.089  10.749 -0.3621  0.0189  0.7532
13971TIP3    H163328   1.342   5.079  10.703 -0.0007  0.0082  0.0943
13971TIP3    H263329   1.445   5.182  10.744 -0.6416  0.1240  1.4635
13972TIP3   OH263330   3.384   1.726  13.496 -0.1799 -0.2509  0.2442
13972TIP3    H163331   3.314   1.675  13.454  0.6045 -0.6683 -0.5787
13972TIP3    H263332   3.349   1.747  13.582 -0.7930 -1.6073  0.3525
13973TIP3   OH263333   1.176   3.954  14.430  0.2837 -0.0735  0.0914
13973TIP3    H163334   1.119   4.007  14.486  1.3666 -0.9241  2.1201
13973TIP3    H263335   1.261   3.999  14.434  0.6613 -0.7813  0.1022
13974TIP3   OH263336   4.105   6.023  11.703  0.6886  0.0705  0.2685
13974TIP3    H163337   4.114   5.944  11.757 -1.0150 -1.6758 -1.8452
13974TIP3    H263338   4.095   5.991  11.614 -0.1831  2.6888 -0.6720
13975TIP3   OH263339   2.441   0.142   1.648 -0.1311  0.4483  0.1927
13975TIP3    H163340   2.474   0.100   1.728  0.3888 -0.8324 -0.6577
13975TIP3    H263341   2.513   0.132   1.585 -0.0168  2.5967 -0.0830
13976TIP3   OH263342   2.762   3.872   5.345  0.7119  0.1337 -0.4092
13976TIP3    H163343   2.849   3.912   5.339  0.0294  1.5376 -1.5767
13976TIP3    H263344   2.753   3.823   5.264  1.1275 -1.6131  0.5591
13977TIP3   OH263345   2.377   4.417   2.046  0.0777 -0.1293  0.3115
13977TIP3    H163346   2.315   4.345   2.052  0.5375 -0.6824 -1.0414
13977TIP3    H263347   2.451   4.381   1.996 -0.4269  1.7119 -1.9581
13978TIP3   OH263348   2.929   1.843  10.442  0.0384 -0.5459  0.4231
13978TIP3    H163349   3.006   1.880  10.485  1.5092 -1.2464 -1.4641
13978TIP3    H263350   2.871   1.918  10.429  1.3262  0.4353  0.0106
13979TIP3   OH263351   5.862   1.686   4.922 -0.0408  0.1154 -0.5621
13979TIP3    H163352   5.875   1.598   4.889 -0.8968 -0.5611  0.8110
13979TIP3    H263353   5.821   1.734   4.850  1.8655 -0.1187 -1.8823
13980TIP3   OH263354   6.201   4.952   3.249 -0.1312  0.4959 -0.0509
13980TIP3    H163355   6.162   4.937   3.163  1.9091  2.3074 -1.4029
13980TIP3    H263356   6.160   4.887   3.306 -1.3030 -0.9940 -2.4441
13981TIP3   OH263357   2.688   2.386   4.232  0.6565  0.7963  0.0400
13981TIP3    H163358   2.731   2.340   4.305 -0.4037 -0.7699 -0.2855
13981TIP3    H263359   2.597   2.395   4.260 -0.1978 -1.4041 -1.7505
13982TIP3   OH263360   5.566   4.615   5.237 -0.0057 -0.5416  0.4190
13982TIP3    H163361   5.586   4.651   5.150 -2.1547 -1.1242 -0.3806
13982TIP3    H263362   5.504   4.677   5.275 -0.7081 -1.3753  0.6610
13983TIP3   OH263363   3.759   2.686   2.139  0.0308 -0.0170  0.4883
13983TIP3    H163364   3.672   2.653   2.164 -0.2107  0.7204  0.6507
13983TIP3    H263365   3.820   2.619   2.171 -0.4864 -0.6204  0.2274
13984TIP3   OH263366   5.859   5.855   5.368 -0.1629 -0.5301 -0.0246
13984TIP3    H163367   5.786   5.864   5.306 -0.1805  0.6301  0.1331
13984TIP3    H263368   5.834   5.784   5.426 -0.8241 -0.6439 -0.4446
13985TIP3   OH263369   6.566   5.283   4.983 -0.3212 -0.2457  0.0634
13985TIP3    H163370   6.477   5.250   4.976  0.0191 -1.4448  0.9801
13985TIP3    H263371   6.587   5.275   5.077  0.9878 -0.6601 -0.2405
13986TIP3   OH263372   3.175   6.195  12.225 -0.0163  0.2743 -0.2134
13986TIP3    H163373   3.091   6.151  12.212 -0.4621  1.0916 -0.1482
13986TIP3    H263374   3.239   6.133  12.189 -0.4150 -1.2577  1.5517
13987TIP3   OH263375   0.009   0.821   5.178 -0.1856 -0.3007  0.3266
13987TIP3    H163376   0.082   0.774   5.220  0.6649  0.9443  0.2774
13987TIP3    H263377  -0.062   0.816   5.242  0.5683  0.1522  1.2159
13988TIP3   OH263378   2.981   4.381   1.408  0.0851 -0.1563  0.0273
13988TIP3    H163379   2.963   4.471   1.381 -2.4064  0.0761  2.0675
13988TIP3    H263380   2.970   4.329   1.329  1.2144  1.2507 -1.1090
13989TIP3   OH263381   4.769   1.197  11.782  0.4133  0.0739 -0.2093
13989TIP3    H163382   4.693   1.255  11.786  1.6810  1.7508  1.4991
13989TIP3    H263383   4.842   1.251  11.813  2.3555 -1.4341 -1.8756
13990TIP3   OH263384   1.616   5.353   1.412  1.1785  0.2322 -0.0343
13990TIP3    H163385   1.545   5.371   1.350  0.2502  1.2547  1.2839
13990TIP3    H263386   1.686   5.317   1.358 -0.2257 -0.5356 -1.4198
13991TIP3   OH263387   5.739   0.968   1.821 -0.0796  0.0411  0.0845
13991TIP3    H163388   5.690   0.886   1.832 -3.0845  1.7823  0.7412
13991TIP3    H263389   5.679   1.025   1.774  2.0176  1.8588 -0.5372
13992TIP3   OH263390   0.117   0.250  11.304 -0.0306 -0.2162 -0.4932
13992TIP3    H163391   0.089   0.319  11.245 -0.0148  0.5795  0.4130
13992TIP3    H263392   0.083   0.275  11.390  1.3031 -0.4992  0.1614
13993TIP3   OH263393   5.684   0.388   1.034 -0.0186  0.5854 -0.1899
13993TIP3    H163394   5.737   0.441   0.974  0.2345 -0.8288 -1.2816
13993TIP3    H263395   5.746   0.327   1.073 -0.5249  0.1982  0.0156
13994TIP3   OH263396   6.335   0.621  17.050 -0.7122  0.3697 -0.1897
13994TIP3    H163397   6.365   0.559  17.116 -0.8509  0.9347  0.4096
13994TIP3    H263398   6.253   0.657  17.085 -1.7747 -0.6640 -1.5044
13995TIP3   OH263399   4.088   0.888  12.986  0.2554 -0.0194  0.0128
13995TIP3    H163400   4.034   0.965  13.007  1.7694  1.3613 -1.0020
13995TIP3    H263401   4.058   0.861  12.900  0.5834  0.2266 -0.1809
13996TIP3   OH263402   0.136   1.589  11.939 -0.2949 -0.0117 -0.4623
13996TIP3    H163403   0.065   1.619  11.883  0.4081 -0.4875 -1.6275
13996TIP3    H263404   0.103   1.508  11.979 -0.2505 -0.4793 -1.3545
13997TIP3   OH263405   5.189   5.364  15.117  0.5343  0.0657  0.4140
13997TIP3    H163406   5.143   5.355  15.201  0.4120  0.9904  0.4498
13997TIP3    H263407   5.254   5.432  15.132  0.7451 -0.0036 -0.1515
13998TIP3   OH263408   2.039   6.478  15.282  0.0538  0.0456  0.1025
13998TIP3    H163409   2.114   6.491  15.341 -0.0927 -1.0590  0.5395
13998TIP3    H263410   1.977   6.425  15.333 -1.2502  1.3315 -0.0806
13999TIP3   OH263411   1.401   3.853   3.421  0.1577 -0.4046 -0.3938
13999TIP3    H163412   1.342   3.899   3.481  0.8933 -0.6537  0.5473
13999TIP3    H263413   1.457   3.801   3.478  1.2428 -0.2222 -1.2616
14000TIP3   OH263414   2.145   3.628  14.109 -0.0261 -0.2507  0.4176
14000TIP3    H163415   2.218   3.635  14.170  0.7353 -2.6138 -0.1076
14000TIP3    H263416   2.186   3.626  14.023 -0.9223  0.7068 -0.0637
14001TIP3   OH263417   0.627   0.791  16.897  0.4873 -0.2871  0.4480
14001TIP3    H163418   0.639   0.816  16.989 -0.8153 -0.9237  0.8137
14001TIP3    H263419   0.596   0.871  16.854 -4.7518 -1.2279  1.8316
14002TIP3   OH263420   6.533   4.489   4.322  0.3195  0.2951  0.0470
14002TIP3    H163421   6.605   4.482   4.386 -0.5612  1.7214  1.2611
14002TIP3    H263422   6.561   4.560   4.263  0.8281 -0.5685 -0.7740
14003TIP3   OH263423   4.831   0.109  15.930 -0.2102 -0.2011  0.1680
14003TIP3    H163424   4.923   0.115  15.955 -0.7195  0.9166  1.9517
14003TIP3    H263425   4.832   0.094  15.835  1.7980 -1.1323  0.2991
14004TIP3   OH263426   5.809   1.169  14.682  0.1391  0.1457 -0.3285
14004TIP3    H163427   5.893   1.163  14.726  1.1985 -3.6461 -2.4780
14004TIP3    H263428   5.771   1.082  14.688 -1.7692  0.6630 -2.8463
14005TIP3   OH263429   5.742   3.274  15.161  0.0246 -0.2266  0.2458
14005TIP3    H163430   5.724   3.314  15.076  0.1304 -0.2705  0.2038
14005TIP3    H263431   5.658   3.235  15.187 -0.7201  1.8304  1.2559
14006TIP3   OH263432   1.425   3.802  13.347 -0.0105 -0.3870  0.4586
14006TIP3    H163433   1.406   3.824  13.256  1.2495 -0.7005  0.1014
14006TIP3    H263434   1.514   3.768  13.345  0.1218 -0.1707  1.8463
14007TIP3   OH263435   2.992   1.750  15.743 -0.2142 -0.5701  0.0146
14007TIP3    H163436   3.032   1.718  15.662 -1.5664 -0.9083 -0.5591
14007TIP3    H263437   3.066   1.771  15.800  0.8888  1.7473 -2.0520
14008TIP3   OH263438   6.468   5.333   1.071  0.0679 -0.6014  0.1375
14008TIP3    H163439   6.415   5.400   1.027  1.7887  1.4976  1.0626
14008TIP3    H263440   6.548   5.327   1.018  0.2399 -1.3799  0.4718
14009TIP3   OH263441   3.766   0.260   3.886  0.2086  0.2400 -0.5450
14009TIP3    H163442   3.855   0.284   3.908  0.3136  2.0705 -2.5972
14009TIP3    H263443   3.775   0.192   3.819  0.0421 -0.1977 -0.1263
14010TIP3   OH263444   4.735   0.805  16.188 -0.1433  0.0800  0.3819
14010TIP3    H163445   4.774   0.805  16.100  0.0776  0.6043  0.4814
14010TIP3    H263446   4.647   0.840  16.175 -0.0788  0.2428  0.3843
14011TIP3   OH263447   1.717   1.079  13.228 -0.1337  0.0785  0.2239
14011TIP3    H163448   1.783   1.086  13.159 -0.6767  0.8991 -0.2189
14011TIP3    H263449   1.668   0.999  13.206 -0.6027  0.5836 -0.6078
14012TIP3   OH263450   2.517   1.307   1.875 -0.0511  0.3064  0.6007
14012TIP3    H163451   2.482   1.395   1.862  0.6117  0.4112 -0.5101
14012TIP3    H263452   2.447   1.249   1.845  0.8723  0.5234 -2.2303
14013TIP3   OH263453   2.239   3.642   1.276  0.4016  0.5913  0.3804
14013TIP3    H163454   2.325   3.659   1.236  0.2823  0.1471 -0.0761
14013TIP3    H263455   2.213   3.557   1.242 -0.6935  1.1807 -0.3342
14014TIP3   OH263456   5.101   2.458   1.594  0.9367  0.2505 -0.0680
14014TIP3    H163457   5.124   2.549   1.576  0.9539  0.1342 -0.6329
14014TIP3    H263458   5.115   2.412   1.512  1.7701 -0.4400  0.4445
14015TIP3   OH263459   6.486   5.983   5.540  0.2996  0.0940  0.5262
14015TIP3    H163460   6.517   5.971   5.450 -4.4277 -1.8247 -1.1439
14015TIP3    H263461   6.456   6.074   5.543 -0.2162 -0.0416 -0.1439
14016TIP3   OH263462   0.716   1.010  13.030  0.0177  1.0665 -0.3668
14016TIP3    H163463   0.710   1.017  13.125  1.0023 -0.6174 -0.1402
14016TIP3    H263464   0.672   0.927  13.009  1.9418  0.1699 -1.0828
14017TIP3   OH263465   6.042   5.253  14.820 -0.2363 -0.3827 -0.0951
14017TIP3    H163466   6.122   5.225  14.864 -0.6131 -1.2271  0.0685
14017TIP3    H263467   5.975   5.192  14.850 -1.3819  1.3997  1.2411
14018TIP3   OH263468   3.663   0.824   4.659 -0.7122  0.2961 -0.0987
14018TIP3    H163469   3.608   0.746   4.664 -0.7461  0.3162 -0.1632
14018TIP3    H263470   3.604   0.894   4.634 -0.2996 -0.0845 -2.4000
14019TIP3   OH263471   2.445   1.776   5.093  0.1504  0.2365  0.0209
14019TIP3    H163472   2.370   1.717   5.098 -2.5691  3.4906  1.5796
14019TIP3    H263473   2.456   1.808   5.183  2.2855  1.2120 -0.5264
14020TIP3   OH263474   5.207   5.857   4.698  0.2796  0.0338  0.4516
14020TIP3    H163475   5.254   5.811   4.767  0.2559  0.6801  0.9149
14020TIP3    H263476   5.131   5.803   4.680 -0.0929  0.2060  1.4453
14021TIP3   OH263477   2.885   3.813   5.769  0.3266  0.3616 -0.2946
14021TIP3    H163478   2.857   3.770   5.688 -0.8219  1.4859 -0.5245
14021TIP3    H263479   2.890   3.906   5.746  1.0217  0.5723  0.6549
14022TIP3   OH263480   4.893   2.908   4.288  0.3684  0.1656 -0.1505
14022TIP3    H163481   4.827   2.957   4.337  0.3735  0.2206 -0.1982
14022TIP3    H263482   4.903   2.957   4.206 -1.1315 -1.0267 -1.1041
14023TIP3   OH263483   2.689   6.550  15.612  0.4107 -0.2580 -0.4022
14023TIP3    H163484   2.707   6.523  15.702  0.8166 -1.0663 -0.7081
14023TIP3    H263485   2.731   6.635  15.603 -2.8468  1.7439  1.2986
14024TIP3   OH263486   2.881   2.883   1.629  0.5579  0.4369  0.0104
14024TIP3    H163487   2.796   2.923   1.610  0.0506 -0.8873 -0.6369
14024TIP3    H263488   2.889   2.891   1.724 -0.6798 -0.0987  0.1915
14025TIP3   OH263489   6.081   2.960   2.821  0.4344 -0.0791  0.1635
14025TIP3    H163490   6.071   3.020   2.895  0.0276 -0.9195  0.8071
14025TIP3    H263491   5.994   2.922   2.810  0.9946 -1.5860  0.6821
14026TIP3   OH263492   4.771   6.237  12.256 -0.2007 -0.3428  0.2864
14026TIP3    H163493   4.826   6.193  12.321 -0.1812 -0.4500  0.1963
14026TIP3    H263494   4.830   6.260  12.185 -0.3530 -0.8429 -0.0046
14027TIP3   OH263495   4.947   5.409   3.467 -0.0038 -0.3820 -0.3084
14027TIP3    H163496   4.925   5.374   3.381 -1.0104 -2.5698  0.7663
14027TIP3    H263497   4.886   5.482   3.480 -0.6747 -0.8253 -0.9284
14028TIP3   OH263498   5.800   5.630  16.430  0.5096 -0.6626  0.0308
14028TIP3    H163499   5.879   5.578  16.434  1.1957  0.3567  0.1504
14028TIP3    H263500   5.769   5.635  16.521  0.1343 -1.3006 -0.0555
14029TIP3   OH263501   2.375   4.650  14.787 -0.0843  0.1960 -0.1538
14029TIP3    H163502   2.347   4.583  14.725  0.0792 -2.0776  2.0733
14029TIP3    H263503   2.379   4.605  14.872  1.7684  2.5905  1.1737
14030TIP3   OH263504   2.316   2.620  13.246  0.0987 -0.3882 -0.8506
14030TIP3    H163505   2.287   2.608  13.336  0.0346 -1.6023 -1.0201
14030TIP3    H263506   2.235   2.621  13.195  0.2292 -1.8559 -1.1161
14031TIP3   OH263507   5.834   6.395  15.513 -0.0922  0.1051 -0.2066
14031TIP3    H163508   5.801   6.384  15.424 -0.8692 -1.1817  0.2150
14031TIP3    H263509   5.826   6.308  15.553 -0.3084  0.7808  1.2987
14032TIP3   OH263510   2.862   3.922   2.869 -0.2796 -0.4231  0.0656
14032TIP3    H163511   2.939   3.948   2.919  0.2554 -1.1595 -0.3410
14032TIP3    H263512   2.859   3.983   2.795  0.2185 -0.6972 -0.1889
14033TIP3   OH263513   3.951   6.134  16.446 -0.4205  0.7946 -0.6579
14033TIP3    H163514   4.024   6.159  16.503  0.0660 -1.1622 -0.3462
14033TIP3    H263515   3.878   6.121  16.506 -0.4649  0.7434 -0.7243
14034TIP3   OH263516   0.238   2.766  11.776  0.5872 -0.1459  0.2276
14034TIP3    H163517   0.271   2.826  11.842 -0.5977  1.7050 -0.7851
14034TIP3    H263518   0.183   2.704  11.825 -1.1106  1.8025  0.9164
14035TIP3   OH263519   4.607   6.305  10.648 -0.3103  0.6164  0.1167
14035TIP3    H163520   4.665   6.229  10.638  0.9261  1.4817  0.4602
14035TIP3    H263521   4.561   6.289  10.730  0.3665  0.4966  0.4797
14036TIP3   OH263522   2.969   4.279   3.205  0.1259  0.2089 -0.1790
14036TIP3    H163523   2.918   4.300   3.284  1.2235  1.0602  0.3349
14036TIP3    H263524   2.987   4.363   3.164  0.4349 -0.1409 -0.7882
14037TIP3   OH263525   1.904   4.407   5.325 -0.1272 -0.0313 -0.0263
14037TIP3    H163526   1.952   4.476   5.371 -0.7242  0.5584 -0.2754
14037TIP3    H263527   1.970   4.340   5.307  0.7146  0.9600 -0.7750
14038TIP3   OH263528   2.808   0.351   0.788 -0.6004  0.9151  0.4788
14038TIP3    H163529   2.857   0.380   0.865  0.9545 -0.4005  0.0455
14038TIP3    H263530   2.868   0.364   0.715 -1.4232  0.5806 -0.2769
14039TIP3   OH263531   2.452   5.961   5.339 -0.1002  0.3102 -0.3450
14039TIP3    H163532   2.426   5.999   5.256  0.6698 -1.0416 -1.2406
14039TIP3    H263533   2.538   5.922   5.322 -0.2601 -0.6509  0.8831
14040TIP3   OH263534   2.486   0.416  11.783  0.0399 -0.0040 -0.1128
14040TIP3    H163535   2.580   0.401  11.778  0.1368  0.6114 -0.2569
14040TIP3    H263536   2.448   0.330  11.798  0.7724 -0.0021  2.1367
14041TIP3   OH263537   4.342   5.087  14.721 -0.4909  0.3282 -0.3082
14041TIP3    H163538   4.328   5.149  14.649 -0.1306  1.6411  0.7138
14041TIP3    H263539   4.401   5.133  14.781 -0.8081 -0.7140  0.8468
14042TIP3   OH263540   1.024   4.472   3.745  0.0927  0.0139  0.1466
14042TIP3    H163541   0.945   4.526   3.746 -0.1944 -0.4106  0.9688
14042TIP3    H263542   1.096   4.536   3.748 -0.1195  0.5043 -2.5450
14043TIP3   OH263543   0.593   4.766  16.431 -0.4178  0.4756  0.6588
14043TIP3    H163544   0.589   4.724  16.517 -0.3738 -1.1309 -0.0952
14043TIP3    H263545   0.685   4.786  16.418 -0.6406  2.5525  1.7851
14044TIP3   OH263546   4.511   3.867  13.026  0.6802  0.4369 -0.5313
14044TIP3    H163547   4.591   3.860  12.973  0.8610 -0.8245 -0.1169
14044TIP3    H263548   4.502   3.781  13.068 -0.3472  0.8927  0.2206
14045TIP3   OH263549   0.818   5.893  14.882 -0.1250  0.0878 -0.2379
14045TIP3    H163550   0.759   5.967  14.863 -1.3451 -1.0984 -1.2577
14045TIP3    H263551   0.867   5.921  14.960 -1.5324  1.4116  0.2222
14046TIP3   OH263552   3.969   1.762   0.253 -0.0909 -0.0708  1.0880
14046TIP3    H163553   3.933   1.821   0.319  0.3078  0.3576  0.9314
14046TIP3    H263554   3.893   1.729   0.207 -0.3144  0.5222  1.0167
14047TIP3   OH263555   4.356   4.957   2.106  0.1905  0.2252  0.2034
14047TIP3    H163556   4.343   5.009   2.027  0.7394  1.8243  1.1113
14047TIP3    H263557   4.445   4.923   2.098  0.5166  0.9901  0.4344
14048TIP3   OH263558   6.578   4.459  10.423 -0.0867  0.6968  0.0177
14048TIP3    H163559   6.654   4.415  10.386 -0.3841 -0.8153  1.1391
14048TIP3    H263560   6.555   4.408  10.500 -2.2555  1.1045 -0.2974
14049TIP3   OH263561   4.371   3.248  12.251 -0.2150 -0.7722  0.5364
14049TIP3    H163562   4.380   3.307  12.176 -1.9370 -2.5464 -1.1857
14049TIP3    H263563   4.402   3.163  12.219 -1.9321 -1.8047  1.4649
14050TIP3   OH263564   3.752   3.479   0.839  0.6026  0.0306  0.0957
14050TIP3    H163565   3.782   3.435   0.759  0.3611  1.6741 -0.9344
14050TIP3    H263566   3.690   3.545   0.808 -1.6619 -1.1138  1.8829
14051TIP3   OH263567   4.641   1.386  14.186 -0.0230 -0.2123 -0.3714
14051TIP3    H163568   4.657   1.338  14.267 -2.5311  1.2505  1.1260
14051TIP3    H263569   4.635   1.318  14.118  1.7368 -1.5013  0.6768
14052TIP3   OH263570   2.089   5.366   6.470  0.0557 -0.0992  0.0249
14052TIP3    H163571   2.001   5.402   6.467 -0.4615 -0.9681  2.5827
14052TIP3    H263572   2.078   5.277   6.504  2.0189  0.2938  1.9240
14053TIP3   OH263573   1.887   1.939  13.531 -0.1145  1.1361 -0.3366
14053TIP3    H163574   1.944   1.909  13.460 -2.6685 -0.6205 -1.8173
14053TIP3    H263575   1.876   1.862  13.587 -0.6571  1.5855  0.1920
14054TIP3   OH263576   5.029   3.890   1.103 -0.0969  0.0228  0.6619
14054TIP3    H163577   4.942   3.850   1.093  0.2711 -0.6838  0.2289
14054TIP3    H263578   5.037   3.949   1.027 -0.0386 -0.2131  0.4845
14055TIP3   OH263579   6.679   4.387  11.780  0.0721 -0.0599  0.0462
14055TIP3    H163580   6.666   4.339  11.699 -2.0079 -0.5451  0.6038
14055TIP3    H263581   6.768   4.365  11.807  0.2000 -1.2302 -1.2266
14056TIP3   OH263582   2.906   0.620   3.030  0.2949  0.2813 -0.3599
14056TIP3    H163583   2.893   0.707   2.991  0.7733 -0.0253 -1.2482
14056TIP3    H263584   2.822   0.597   3.068 -0.2938  0.4843 -1.4882
14057TIP3   OH263585   5.812   2.785  14.571 -0.4488 -0.4158  0.0363
14057TIP3    H163586   5.851   2.738  14.498 -1.6979 -0.9904 -0.2966
14057TIP3    H263587   5.864   2.759  14.647 -0.3632 -1.3837 -0.3419
14058TIP3   OH263588   0.508   3.080   4.635 -0.2206  0.2037  0.3705
14058TIP3    H163589   0.458   3.090   4.716 -1.6428  0.8345 -0.5472
14058TIP3    H263590   0.525   2.987   4.627 -1.6377 -0.0802  0.5054
14059TIP3   OH263591   5.532   5.037  17.175  0.4413  0.0857  0.5755
14059TIP3    H163592   5.546   5.119  17.223 -1.1189  2.8487 -3.1705
14059TIP3    H263593   5.617   5.017  17.137  0.6585  0.3326  0.9218
14060TIP3   OH263594   0.427   1.314   5.100 -0.1840 -0.5803  0.3554
14060TIP3    H163595   0.437   1.320   5.005 -0.2151  0.5465  0.4042
14060TIP3    H263596   0.382   1.231   5.114 -1.3973 -0.1522 -0.7312
14061TIP3   OH263597   3.606   5.899  12.166 -0.6129 -0.1479 -0.2387
14061TIP3    H163598   3.645   5.830  12.220  1.7367  1.2431 -0.0157
14061TIP3    H263599   3.672   5.969  12.166 -2.5033  1.7232 -1.2064
14062TIP3   OH263600   6.329   2.116   3.454 -0.2200 -0.1510  0.8578
14062TIP3    H163601   6.249   2.066   3.474 -0.0305 -0.7081  0.2602
14062TIP3    H263602   6.304   2.172   3.381  0.2873 -1.2834 -0.2106
14063TIP3   OH263603   5.775   1.957   0.380  0.2374 -0.1221  0.1396
14063TIP3    H163604   5.687   1.967   0.346  0.2801  0.3267  0.1508
14063TIP3    H263605   5.825   1.918   0.309 -0.4307 -2.3311  0.8119
14064TIP3   OH263606   6.418   5.468   5.479  0.4769  1.0343  0.0300
14064TIP3    H163607   6.364   5.547   5.476  0.2105  0.8735  0.4308
14064TIP3    H263608   6.431   5.443   5.387 -1.7106  0.0118 -0.0492
14065TIP3   OH263609   1.113   1.545   1.385 -0.2471 -0.1185  0.3257
14065TIP3    H163610   1.114   1.517   1.477 -2.4190 -2.2071 -0.1609
14065TIP3    H263611   1.054   1.621   1.384 -0.7250 -0.4753  0.6068
14066TIP3   OH263612   2.812   2.243   6.368 -0.8086 -0.2911 -0.2584
14066TIP3    H163613   2.798   2.213   6.458  0.7388 -0.4446 -0.0474
14066TIP3    H263614   2.903   2.273   6.366 -1.3339  1.3825 -1.3145
14067TIP3   OH263615   6.356   3.205  16.519 -0.0317  0.0510  0.0745
14067TIP3    H163616   6.367   3.164  16.604  0.4305  0.9597  0.4661
14067TIP3    H263617   6.411   3.283  16.522 -0.5402  0.4657 -0.8068
14068TIP3   OH263618   5.568   0.057  17.207  0.4595 -0.0746  0.1309
14068TIP3    H163619   5.650   0.106  17.215  0.2379  0.2993  0.1740
14068TIP3    H263620   5.538   0.045  17.297  0.3540 -0.0074  0.1062
14069TIP3   OH263621   5.572   1.621  14.405 -0.0066 -0.1308 -0.0749
14069TIP3    H163622   5.644   1.608  14.466  1.2014 -0.2100 -1.4596
14069TIP3    H263623   5.613   1.616  14.318 -1.7980 -1.0254 -0.9324
14070TIP3   OH263624   5.839   2.377  12.775 -0.5780 -0.0759 -0.2448
14070TIP3    H163625   5.751   2.370  12.737 -0.3955 -0.5577 -0.5938
14070TIP3    H263626   5.830   2.336  12.861 -0.8314  0.3986 -0.0447
14071TIP3   OH263627   5.854   3.585   4.735 -0.9226  0.0870 -0.1885
14071TIP3    H163628   5.874   3.515   4.797 -2.3038  0.9606  1.3269
14071TIP3    H263629   5.937   3.631   4.722 -0.8372  0.7281  2.1509
14072TIP3   OH263630   6.033   5.375  16.144  0.2404 -0.4132  0.5422
14072TIP3    H163631   6.041   5.384  16.239 -0.0378 -0.6727  0.5914
14072TIP3    H263632   5.976   5.447  16.117  0.1498 -0.4656  0.5968
14073TIP3   OH263633   2.625   5.678   6.354  0.1613 -0.2141  0.1596
14073TIP3    H163634   2.703   5.625   6.339  0.0432 -0.2562 -0.3000
14073TIP3    H263635   2.612   5.675   6.449  0.8207 -0.0563  0.2581
14074TIP3   OH263636   6.511   2.577   1.065 -0.0363 -0.0240  0.2669
14074TIP3    H163637   6.461   2.518   1.008  1.0161 -0.4319 -0.2581
14074TIP3    H263638   6.540   2.647   1.006  0.3147  0.0165  0.4878
14075TIP3   OH263639   2.512   2.607  16.524 -0.0717  0.1252  0.2064
14075TIP3    H163640   2.549   2.536  16.578  0.8294 -1.4005 -2.2747
14075TIP3    H263641   2.573   2.680  16.536  1.7431 -1.1354 -0.9120
14076TIP3   OH263642   5.692   2.608   0.882 -0.5985 -0.0368 -0.1940
14076TIP3    H163643   5.626   2.661   0.927 -1.5980  0.2348 -1.8764
14076TIP3    H263644   5.681   2.520   0.917  0.5716  0.6289  2.0885
14077TIP3   OH263645   2.541   4.778  17.113 -0.8521  0.6875 -0.1096
14077TIP3    H163646   2.545   4.828  17.195  0.1877  1.1698 -0.4298
14077TIP3    H263647   2.477   4.709  17.129 -0.5869  0.7168  1.1398
14078TIP3   OH263648   4.791   1.161   2.152  0.2548  0.0708 -0.0274
14078TIP3    H163649   4.801   1.224   2.224 -1.1457  1.2771 -0.8133
14078TIP3    H263650   4.865   1.178   2.094  2.4249 -2.1395  1.9179
14079TIP3   OH263651   0.234   0.159  14.096 -0.3096  0.3959  0.3567
14079TIP3    H163652   0.275   0.239  14.063  0.3911 -0.4180 -0.8386
14079TIP3    H263653   0.269   0.148  14.184  1.2849  0.2695 -0.2605
14080TIP3   OH263654   3.359   1.605  11.625 -0.1088  0.1911  0.7626
14080TIP3    H163655   3.362   1.654  11.707  0.0150  0.1025  0.8115
14080TIP3    H263656   3.415   1.656  11.565 -1.1730  0.9206  0.3688
14081TIP3   OH263657   5.032   2.406  15.073 -0.3475 -0.3651 -0.5132
14081TIP3    H163658   5.097   2.475  15.077  1.0834 -1.7002  0.5772
14081TIP3    H263659   4.960   2.443  15.022  0.2296  1.9987  0.2862
14082TIP3   OH263660   4.026   2.777   2.019 -0.0706 -0.3180  0.4121
14082TIP3    H163661   4.014   2.682   2.024 -0.7412 -0.1909  1.4226
14082TIP3    H263662   4.097   2.796   2.081 -1.3330  0.0559  1.8048
14083TIP3   OH263663   2.054   1.377  13.070  0.1487 -0.0476  0.1387
14083TIP3    H163664   2.113   1.303  13.087 -0.4364 -0.9904 -1.6486
14083TIP3    H263665   2.004   1.386  13.150 -1.7100 -3.4910 -0.4139
14084TIP3   OH263666   3.834   6.720  14.364 -0.4965 -0.0603 -0.3011
14084TIP3    H163667   3.885   6.799  14.380  0.4290 -0.2781 -1.9665
14084TIP3    H263668   3.779   6.742  14.289 -3.6511  0.4826  1.9961
14085TIP3   OH263669   0.364   1.855  16.522 -0.0768 -0.5810  0.0568
14085TIP3    H163670   0.392   1.945  16.503 -0.1383 -0.7685 -1.0213
14085TIP3    H263671   0.290   1.840  16.463  1.1763 -1.9918 -1.2431
14086TIP3   OH263672   6.351   5.067  13.932 -0.0927 -0.4000  0.3226
14086TIP3    H163673   6.397   5.111  14.003  2.5520 -2.2231 -0.1089
14086TIP3    H263674   6.333   4.979  13.967  1.4565 -1.4050 -1.2117
14087TIP3   OH263675   6.047   6.357  12.345 -0.0111  0.1904 -0.3763
14087TIP3    H163676   6.093   6.418  12.288  2.0068 -2.8854 -2.3594
14087TIP3    H263677   5.955   6.369  12.324  0.5074  0.8588 -2.5495
14088TIP3   OH263678   6.679   1.790  17.072  0.4603  0.3683  0.4475
14088TIP3    H163679   6.706   1.779  16.981  1.8603 -1.7727  1.0681
14088TIP3    H263680   6.759   1.783  17.123 -0.5189 -0.2190  1.9793
14089TIP3   OH263681   3.420   6.354  13.887  0.1341 -0.3407  0.0049
14089TIP3    H163682   3.393   6.367  13.796 -0.6596 -0.7341  0.1732
14089TIP3    H263683   3.435   6.259  13.895 -0.8081 -0.4646  0.5317
14090TIP3   OH263684   2.595   0.469  12.111  0.4476 -0.3834  0.2423
14090TIP3    H163685   2.655   0.408  12.068  1.6815  1.0449 -0.1571
14090TIP3    H263686   2.560   0.522  12.039 -1.2605 -1.1169  0.4815
14091TIP3   OH263687   3.711   0.884   3.557  0.2374 -0.1299  0.4058
14091TIP3    H163688   3.619   0.879   3.530 -0.0356  0.1993  1.2262
14091TIP3    H263689   3.722   0.973   3.589  0.7498 -0.2676  0.6269
14092TIP3   OH263690   5.419   3.707  17.215  0.3343  0.3225 -0.0477
14092TIP3    H163691   5.438   3.763  17.139 -0.3250 -0.2578 -0.6456
14092TIP3    H263692   5.503   3.698  17.259  0.6187  1.1048 -0.4096
14093TIP3   OH263693   0.450   3.273   3.340 -0.1281 -0.4789  0.2002
14093TIP3    H163694   0.523   3.213   3.325 -0.2850 -0.5871 -0.1338
14093TIP3    H263695   0.424   3.301   3.252  0.3589  0.5772  0.3774
14094TIP3   OH263696   4.935   1.811   5.809  0.8568  0.4041 -0.4023
14094TIP3    H163697   4.953   1.717   5.803  1.6773  0.5867 -1.0104
14094TIP3    H263698   4.920   1.827   5.902 -0.3818 -0.5100 -0.4213
14095TIP3   OH263699   3.538   0.535  13.051  0.4452 -0.2966  0.3658
14095TIP3    H163700   3.617   0.506  13.095  0.7342 -0.1183 -0.0248
14095TIP3    H263701   3.533   0.629  13.069 -0.7299 -0.6318  2.0063
14096TIP3   OH263702   2.230   0.078  13.971 -0.3773 -0.2274  0.4859
14096TIP3    H163703   2.203   0.138  14.041 -0.6711 -0.0519  0.2246
14096TIP3    H263704   2.163   0.009  13.972  1.5547 -2.2765  2.8519
14097TIP3   OH263705   6.166   2.570  13.723  0.1962 -0.1831  0.5031
14097TIP3    H163706   6.221   2.609  13.791 -0.6402 -0.1148  1.1598
14097TIP3    H263707   6.079   2.561  13.764 -0.0711 -1.0918 -0.2162
14098TIP3   OH263708   3.230   5.607  15.390 -0.5796 -0.2981  0.7204
14098TIP3    H163709   3.195   5.598  15.479 -1.8350 -0.9212  0.1898
14098TIP3    H263710   3.278   5.526  15.374 -1.4603 -0.7705  0.3818
14099TIP3   OH263711   3.490   1.534  13.161 -0.5969  0.5424  0.3428
14099TIP3    H163712   3.400   1.515  13.137  0.2239 -0.7398 -2.0968
14099TIP3    H263713   3.496   1.629  13.160 -2.1862  0.6938  1.8128
14100TIP3   OH263714   3.548   2.184  11.766 -0.1098  0.0161  0.1394
14100TIP3    H163715   3.599   2.174  11.847 -0.5150 -0.2221  0.3678
14100TIP3    H263716   3.614   2.200  11.699  0.2604 -0.1405  0.4572
14101TIP3   OH263717   4.978   5.820   5.977  0.0202 -0.8896  0.6042
14101TIP3    H163718   4.998   5.782   6.063 -0.9926  0.1697  1.3409
14101TIP3    H263719   4.901   5.875   5.993  0.6664  0.4520 -0.6728
14102TIP3   OH263720   2.839   1.071   4.081 -0.1328 -0.3851 -0.4085
14102TIP3    H163721   2.839   1.124   4.161  1.2328  1.1591 -1.3605
14102TIP3    H263722   2.890   0.994   4.103  0.1643 -0.0165  0.2340
14103TIP3   OH263723   2.732   5.676  11.298  0.2013  0.2602 -0.4494
14103TIP3    H163724   2.645   5.664  11.335  0.5108 -0.5752  0.0378
14103TIP3    H263725   2.784   5.710  11.370  0.7271 -1.0621 -0.1711
14104TIP3   OH263726   1.915   6.030   0.350 -0.0143  0.0025  0.5850
14104TIP3    H163727   1.889   6.117   0.319 -0.3488 -0.2960  0.0115
14104TIP3    H263728   1.949   6.045   0.438  0.0651  0.7354  0.4374
14105TIP3   OH263729   0.423   1.931   2.266 -0.1733 -0.0939  0.1285
14105TIP3    H163730   0.487   1.987   2.310 -2.0000  1.9130  0.4292
14105TIP3    H263731   0.427   1.957   2.174  0.3690 -0.9506 -0.1029
14106TIP3   OH263732   4.573   0.995  12.940 -0.2715  0.1397  0.0040
14106TIP3    H163733   4.538   1.069  12.988  0.3902  1.3113 -1.2563
14106TIP3    H263734   4.500   0.964  12.885 -0.2369  0.5571 -0.2770
14107TIP3   OH263735   3.699   0.227  14.957 -0.0889  0.0886  0.2710
14107TIP3    H163736   3.761   0.251  14.889  0.4522 -1.9297 -0.0088
14107TIP3    H263737   3.623   0.284  14.942  0.7124  0.8805 -0.9105
14108TIP3   OH263738   5.227   6.327   4.732  0.0316 -0.2173 -0.3359
14108TIP3    H163739   5.196   6.263   4.668 -1.0625 -0.9975  0.9159
14108TIP3    H263740   5.148   6.350   4.782  0.3664  2.2240 -0.8149
14109TIP3   OH263741   3.447   1.041  11.794 -0.0261 -1.1483 -0.2198
14109TIP3    H163742   3.463   0.960  11.747 -1.4897 -2.1750  0.9792
14109TIP3    H263743   3.535   1.076  11.813  0.7394 -3.6143  1.2198
14110TIP3   OH263744   1.955   2.708  16.495  0.2990  0.9002  0.8196
14110TIP3    H163745   1.978   2.780  16.437  1.8557 -0.6456 -0.5967
14110TIP3    H263746   2.040   2.670  16.520 -0.4749 -0.2631  1.7782
14111TIP3   OH263747   2.532   5.912   3.244  0.2403 -0.0359  0.4232
14111TIP3    H163748   2.510   5.985   3.302  0.5536 -0.5667  1.2188
14111TIP3    H263749   2.527   5.834   3.300  0.5561 -0.5547 -0.2599
14112TIP3   OH263750   6.148   2.279  13.353  0.1942 -0.0834 -0.1122
14112TIP3    H163751   6.100   2.245  13.429 -1.0500  1.0170 -0.3622
14112TIP3    H263752   6.172   2.368  13.378  1.4751 -0.3707 -0.2873
14113TIP3   OH263753   3.508   1.572   5.334  0.1822 -0.4037 -0.0694
14113TIP3    H163754   3.457   1.537   5.408 -1.5460  2.0047  0.0024
14113TIP3    H263755   3.563   1.639   5.374  0.4833 -0.2588 -0.7286
14114TIP3   OH263756   3.187   0.605   3.446 -0.0894 -0.0405  0.0043
14114TIP3    H163757   3.207   0.532   3.505  1.2856 -0.1690 -0.5891
14114TIP3    H263758   3.144   0.669   3.502 -1.4428 -1.3433  0.5038
14115TIP3   OH263759   5.404   6.371   5.962 -0.1094  0.4145  0.4492
14115TIP3    H163760   5.330   6.368   5.902 -0.0676 -0.2979  0.4182
14115TIP3    H263761   5.416   6.464   5.982 -0.9630  0.5435  0.3975
14116TIP3   OH263762   5.497   1.169   2.038 -0.7048  0.3681  0.5003
14116TIP3    H163763   5.413   1.195   2.076 -0.4931  1.8715  0.0093
14116TIP3    H263764   5.557   1.167   2.113 -1.2255 -1.0728  0.9121
14117TIP3   OH263765   6.501   4.472  16.796  0.1817  0.4066 -0.7788
14117TIP3    H163766   6.531   4.547  16.847 -0.1129  0.3578 -0.5289
14117TIP3    H263767   6.566   4.462  16.726  2.5923 -1.6912  1.5523
14118TIP3   OH263768   3.978   2.572   2.646  0.4648  0.0854 -0.0828
14118TIP3    H163769   3.995   2.640   2.712 -1.2095 -0.0282  0.4976
14118TIP3    H263770   3.904   2.606   2.596  0.7445 -0.5364 -0.9317
14119TIP3   OH263771   2.874   1.865  13.585 -0.5476  0.2190  0.3335
14119TIP3    H163772   2.907   1.924  13.652 -0.0395  0.0653  0.2193
14119TIP3    H263773   2.947   1.806  13.566 -0.5214  0.5499 -0.6808
14120TIP3   OH263774   1.677   2.303  12.706  0.2293 -0.0153 -0.2898
14120TIP3    H163775   1.583   2.319  12.712  0.2184 -0.0182 -0.4505
14120TIP3    H263776   1.696   2.302  12.612  0.7957  2.4560 -0.2714
14121TIP3   OH263777   3.865   5.702  13.632 -0.4946  0.0496  0.4838
14121TIP3    H163778   3.891   5.792  13.612  0.6112 -0.1990  0.7469
14121TIP3    H263779   3.933   5.647  13.594 -0.5421 -0.6181  1.3127
14122TIP3   OH263780   1.469   1.741  12.277 -0.0699  0.5218 -0.2556
14122TIP3    H163781   1.393   1.787  12.313  0.0942 -0.0635  0.8767
14122TIP3    H263782   1.432   1.673  12.221 -0.7886 -3.0206  3.9220
14123TIP3   OH263783   0.565   4.222   4.457 -0.4236  0.7176  0.8804
14123TIP3    H163784   0.639   4.272   4.423 -0.0400  0.3310  1.1475
14123TIP3    H263785   0.490   4.253   4.405  0.0830  0.4246 -0.0447
14124TIP3   OH263786   3.967   0.693   3.391  0.7802 -0.5574 -0.1717
14124TIP3    H163787   3.912   0.769   3.374  0.6794 -0.4521  0.5853
14124TIP3    H263788   3.929   0.622   3.339 -0.7111 -0.7626  1.1310
14125TIP3   OH263789   1.869   4.851   3.247  0.9594  0.2739 -0.2188
14125TIP3    H163790   1.876   4.908   3.323  1.5671  0.4133 -0.3772
14125TIP3    H263791   1.874   4.909   3.171  1.3830  0.0374 -0.3775
14126TIP3   OH263792   5.401   1.201  13.268 -0.0637  0.4603  0.4892
14126TIP3    H163793   5.462   1.211  13.342 -0.9192 -2.5141  1.7625
14126TIP3    H263794   5.331   1.145  13.303 -1.8186  1.0447 -1.8829
14127TIP3   OH263795   3.125   1.019  16.495 -0.5407  0.0467 -0.1961
14127TIP3    H163796   3.135   1.031  16.401  2.7736  0.3463  0.0514
14127TIP3    H263797   3.108   0.925  16.506 -0.5989 -0.0506 -1.0940
14128TIP3   OH263798   0.302   4.310   3.741  0.0939 -0.4244 -0.1736
14128TIP3    H163799   0.303   4.333   3.648  1.7914  0.2437 -0.0295
14128TIP3    H263800   0.260   4.384   3.784  0.7215 -0.0149 -0.2592
14129TIP3   OH263801   1.905   3.050   1.407  0.3596  0.0254 -0.1312
14129TIP3    H163802   1.960   3.042   1.329  1.4173 -1.1291  0.6934
14129TIP3    H263803   1.961   3.019   1.479 -0.7363  0.6417  1.0217
14130TIP3   OH263804   2.364   4.821   3.699 -0.0976 -0.5529 -0.1564
14130TIP3    H163805   2.340   4.772   3.778 -0.7150  1.5199  1.0171
14130TIP3    H263806   2.372   4.754   3.631  0.2390 -2.3994  1.5831
14131TIP3   OH263807   0.253   2.242   0.666 -0.1881 -0.0355 -0.0033
14131TIP3    H163808   0.219   2.159   0.632 -1.8300 -0.5819  2.6625
14131TIP3    H263809   0.203   2.309   0.621 -1.5755 -0.6731  0.5475
14132TIP3   OH263810   4.775   2.658  11.018  0.4888  0.1096  0.1390
14132TIP3    H163811   4.707   2.591  11.028  1.3420 -0.5686  1.7931
14132TIP3    H263812   4.727   2.736  10.988 -1.0065 -0.4008  1.0392
14133TIP3   OH263813   4.948   2.455  11.168  0.4137 -0.0829 -0.0875
14133TIP3    H163814   4.954   2.409  11.085  0.0133  0.3297 -0.3536
14133TIP3    H263815   4.905   2.538  11.146  0.2124 -0.0130  0.5432
14134TIP3   OH263816   3.679   3.962   3.366  0.1395  0.7717 -0.1329
14134TIP3    H163817   3.678   3.955   3.461 -1.0525 -0.2403 -0.1884
14134TIP3    H263818   3.659   3.873   3.335 -0.0427  1.1990 -1.3095
14135TIP3   OH263819   5.637   5.640  14.235 -0.1606 -0.0875  0.3253
14135TIP3    H163820   5.660   5.550  14.213 -0.4959 -0.5992  1.9496
14135TIP3    H263821   5.565   5.661  14.176 -0.1446 -0.9199 -0.0020
14136TIP3   OH263822   4.353   0.696   2.718  0.3575 -0.0630  0.3653
14136TIP3    H163823   4.287   0.638   2.757  0.9078 -1.8742 -1.2134
14136TIP3    H263824   4.412   0.637   2.671  0.9763  1.7709 -1.3209
14137TIP3   OH263825   5.522   5.867  11.120  0.0081  0.7461  0.2295
14137TIP3    H163826   5.436   5.894  11.086  0.0712  1.2983  0.5006
14137TIP3    H263827   5.541   5.930  11.190 -0.3701 -0.7026  1.6895
14138TIP3   OH263828   1.777   2.847  16.217  0.1998  0.2745 -0.8222
14138TIP3    H163829   1.849   2.874  16.273 -0.6538 -1.9166  1.5797
14138TIP3    H263830   1.809   2.769  16.172 -1.4392 -2.8108  2.8056
14139TIP3   OH263831   2.187   6.648  14.330  0.5038  0.0417  0.8948
14139TIP3    H163832   2.255   6.587  14.301  0.6444  0.8069 -0.5004
14139TIP3    H263833   2.235   6.718  14.373  0.6197  0.5776 -0.0821
14140TIP3   OH263834   4.186   5.711  11.098  0.3721 -0.7650 -0.0229
14140TIP3    H163835   4.256   5.671  11.148 -1.3895 -3.0180  0.8444
14140TIP3    H263836   4.227   5.742  11.018  2.6351 -0.3046  1.2524
14141TIP3   OH263837   0.919   6.407   4.396 -0.2179  0.2675 -0.1330
14141TIP3    H163838   1.002   6.450   4.416 -0.3600  1.0664 -1.1408
14141TIP3    H263839   0.852   6.465   4.433 -0.3252 -0.8438  1.4982
14142TIP3   OH263840   2.144   4.896  16.181 -0.5089  0.1205  0.1020
14142TIP3    H163841   2.162   4.948  16.102 -0.0779 -0.4211 -0.1662
14142TIP3    H263842   2.050   4.905  16.195 -0.2109  2.3396  1.0350
14143TIP3   OH263843   3.195   4.086  17.014 -0.6579  0.5260  0.2348
14143TIP3    H163844   3.195   4.174  17.052  1.8001  0.4415  0.5495
14143TIP3    H263845   3.199   4.101  16.919  0.7834  0.8007  0.3154
14144TIP3   OH263846   4.952   5.254  12.243  0.5347 -0.2271  0.0606
14144TIP3    H163847   4.916   5.329  12.290 -0.2945 -0.3315 -0.3668
14144TIP3    H263848   4.938   5.180  12.302  1.7679  0.0093  0.6727
14145TIP3   OH263849   4.511   2.538  14.335  0.3594  0.1887  0.2999
14145TIP3    H163850   4.584   2.524  14.275 -1.7710  0.6408 -2.6074
14145TIP3    H263851   4.531   2.622  14.378  0.4907  1.5664 -2.2597
14146TIP3   OH263852   2.229   2.935   5.942  0.3411  0.8180 -0.4062
14146TIP3    H163853   2.184   2.951   6.025 -0.2300  1.3342 -0.8103
14146TIP3    H263854   2.234   3.020   5.900 -3.3736  0.0426 -2.8999
14147TIP3   OH263855   3.773   1.740  16.617 -0.1778  0.2073  0.5686
14147TIP3    H163856   3.802   1.808  16.557  1.7210 -1.7678 -0.8843
14147TIP3    H263857   3.684   1.717  16.588  0.0834  0.4393 -0.4141
14148TIP3   OH263858   5.409   6.278   4.071  0.0553 -0.6389  0.1389
14148TIP3    H163859   5.354   6.240   4.003  1.4046  1.0320 -2.0017
14148TIP3    H263860   5.389   6.226   4.149 -1.5824 -2.6337 -1.4806
14149TIP3   OH263861   3.844   0.335   5.430 -0.6044 -0.0494 -0.3138
14149TIP3    H163862   3.772   0.356   5.490  0.2160 -0.4355  0.8355
14149TIP3    H263863   3.914   0.303   5.487  0.2302 -0.3498 -1.4819
14150TIP3   OH263864   0.101   4.476   4.932 -0.3280 -0.2427  0.2157
14150TIP3    H163865   0.078   4.538   4.863 -0.3608 -0.8403 -0.3303
14150TIP3    H263866   0.092   4.390   4.890  2.0554 -0.5647  0.2176
14151TIP3   OH263867   0.764   3.804   3.165 -0.0315 -0.0930  0.0318
14151TIP3    H163868   0.775   3.893   3.130 -1.5078  0.0572 -0.1291
14151TIP3    H263869   0.841   3.790   3.220 -0.5384  1.9195  1.3725
14152TIP3   OH263870   5.256   6.085   4.238  0.4661  0.0018  0.5417
14152TIP3    H163871   5.269   6.135   4.318  1.5756 -0.2471  0.5340
14152TIP3    H263872   5.244   5.995   4.268 -0.0609  0.0483  0.4762
14153TIP3   OH263873   4.391   6.561  11.642  0.1687 -0.7968 -0.3051
14153TIP3    H163874   4.302   6.549  11.677  0.3664 -1.3076  0.0333
14153TIP3    H263875   4.382   6.632  11.579 -0.2573 -0.0670  0.5620
14154TIP3   OH263876   0.453   3.458  11.601  0.1906 -0.2556  0.0167
14154TIP3    H163877   0.442   3.550  11.576  0.6650 -0.1524  0.1878
14154TIP3    H263878   0.516   3.460  11.672  0.6749 -0.7735 -0.3912
14155TIP3   OH263879   5.218   6.028  15.949  0.3776  0.0866  0.0083
14155TIP3    H163880   5.254   6.052  15.863  2.4199  1.8822  1.2625
14155TIP3    H263881   5.270   5.953  15.976 -0.4212 -0.6253 -0.3735
14156TIP3   OH263882   0.866   3.648   3.442 -0.2467  0.1976  0.2254
14156TIP3    H163883   0.932   3.713   3.418 -0.3710  0.8780  1.6503
14156TIP3    H263884   0.891   3.570   3.392  0.0659  1.2239 -1.3037
14157TIP3   OH263885   0.470   4.181   3.976 -0.7363  0.5003 -0.4046
14157TIP3    H163886   0.559   4.154   3.955 -0.8597 -0.1851 -0.0735
14157TIP3    H263887   0.441   4.232   3.900  0.2355  1.4743 -0.1455
14158TIP3   OH263888   6.478   0.820   2.442  0.3619 -0.6635  0.0878
14158TIP3    H163889   6.480   0.750   2.377  2.7491 -0.2984 -0.3101
14158TIP3    H263890   6.566   0.822   2.479  0.4515  2.2411 -0.0271
14159TIP3   OH263891   4.642   0.179  16.729 -0.5836 -0.1485  0.2991
14159TIP3    H163892   4.572   0.179  16.795 -0.0370 -2.3438  0.9415
14159TIP3    H263893   4.598   0.204  16.648 -1.2984  2.4994  1.3833
14160TIP3   OH263894   0.252   4.419  12.970  0.0429 -0.1725 -0.2570
14160TIP3    H163895   0.319   4.482  12.997  1.3957 -2.4995  2.3898
14160TIP3    H263896   0.183   4.428  13.036 -0.9128  0.1743 -1.2755
14161TIP3   OH263897   0.869   1.162   4.911  0.0029  0.2051 -0.5358
14161TIP3    H163898   0.945   1.179   4.967 -0.4813  1.3320 -0.1843
14161TIP3    H263899   0.846   1.249   4.877  0.4189 -0.4686 -2.6822
14162TIP3   OH263900   0.172   5.271   5.587 -0.3547  0.1182 -0.1870
14162TIP3    H163901   0.127   5.255   5.670 -2.0776  1.1048 -0.8888
14162TIP3    H263902   0.200   5.362   5.592 -0.2078  0.0976 -0.5755
14163TIP3   OH263903   0.747   6.709  11.577 -0.0253  0.4544  0.2200
14163TIP3    H163904   0.696   6.771  11.524 -0.3199  1.7993  2.0032
14163TIP3    H263905   0.682   6.667  11.633  0.4953  0.3060  0.7097
14164TIP3   OH263906   2.859   3.093   2.993  0.5620  0.0003 -0.4420
14164TIP3    H163907   2.821   3.021   2.942 -0.0010  0.0887 -0.1585
14164TIP3    H263908   2.936   3.054   3.035  0.4263 -0.3621 -0.5206
14165TIP3   OH263909   4.457   6.509   2.667 -0.2858  0.3837  0.1595
14165TIP3    H163910   4.452   6.425   2.621  0.9405  0.3620  0.0200
14165TIP3    H263911   4.382   6.558   2.634 -0.8318 -0.5278 -0.0145
14166TIP3   OH263912   0.895   5.098   4.240  0.8165 -0.8475 -0.4709
14166TIP3    H163913   0.948   5.026   4.204  2.3938  0.1752 -0.2977
14166TIP3    H263914   0.960   5.162   4.270 -0.5490  0.4132 -0.1362
14167TIP3   OH263915   5.340   6.179   5.762  0.0888 -0.2048 -0.3521
14167TIP3    H163916   5.416   6.136   5.801 -0.2035  0.7988  1.4223
14167TIP3    H263917   5.266   6.124   5.788  0.0256 -0.2475 -0.6216
14168TIP3   OH263918   0.705   2.415   3.190  0.0864 -0.1927  0.2930
14168TIP3    H163919   0.755   2.356   3.245 -1.2392 -1.8130 -0.1581
14168TIP3    H263920   0.627   2.437   3.242 -0.0637  0.1094 -0.0484
14169TIP3   OH263921   2.548   5.221   1.645 -0.5113 -0.1307  0.0094
14169TIP3    H163922   2.481   5.242   1.710 -0.2165  0.6948  0.0654
14169TIP3    H263923   2.631   5.227   1.693 -0.3094  0.2187 -0.3755
14170TIP3   OH263924   6.492   0.643  11.484 -0.1966 -0.0145 -0.7326
14170TIP3    H163925   6.447   0.559  11.481 -0.2993  0.0580 -3.3234
14170TIP3    H263926   6.423   0.707  11.503 -0.0810 -0.4687  1.4759
14171TIP3   OH263927   5.067   1.965   2.476  0.3068  0.3039 -0.5347
14171TIP3    H163928   5.003   2.012   2.530 -0.0289  0.7745 -1.3180
14171TIP3    H263929   5.100   1.895   2.532 -0.5439  0.3557  0.0394
14172TIP3   OH263930   6.499   4.361  14.841  0.6092  0.8221 -0.1774
14172TIP3    H163931   6.527   4.271  14.858  1.3968  1.2119  0.6606
14172TIP3    H263932   6.410   4.352  14.807  1.5629 -0.4394 -2.6053
14173TIP3   OH263933   1.481   3.733  16.640  0.2014  0.0495 -0.3257
14173TIP3    H163934   1.528   3.693  16.567 -1.9573 -1.3760 -1.0420
14173TIP3    H263935   1.414   3.787  16.598 -0.4418 -0.0114  0.5990
14174TIP3   OH263936   3.090   4.651  13.632 -0.1934  0.4155 -0.1133
14174TIP3    H163937   3.149   4.604  13.574  1.2480  0.5717  1.1694
14174TIP3    H263938   3.022   4.588  13.654  0.8653 -0.5770  0.3574
14175TIP3   OH263939   2.536   0.580   4.416 -0.5047  0.2410 -0.0194
14175TIP3    H163940   2.497   0.576   4.504  0.0796  0.6107  0.2655
14175TIP3    H263941   2.630   0.592   4.433  0.3374 -4.0345 -0.5798
14176TIP3   OH263942   1.336   2.117   2.950 -0.4942  0.2127  0.0952
14176TIP3    H163943   1.349   2.024   2.933  1.7764  0.6196 -0.6638
14176TIP3    H263944   1.411   2.142   3.003 -0.3338  1.8910 -0.8672
14177TIP3   OH263945   2.101   2.203  15.315 -0.6233 -0.1676  0.2000
14177TIP3    H163946   2.079   2.297  15.316  0.0803 -0.0020  0.3442
14177TIP3    H263947   2.168   2.193  15.382  0.5837 -0.4549 -1.0117
14178TIP3   OH263948   5.449   0.713  15.980 -1.1211  0.9437 -0.1854
14178TIP3    H163949   5.443   0.756  15.895 -2.9734  1.6001  0.2388
14178TIP3    H263950   5.360   0.684  15.999 -0.7531  0.8278  1.5378
14179TIP3   OH263951   4.906   4.456   1.694  0.4373 -0.2701  0.1711
14179TIP3    H163952   4.975   4.393   1.712  0.3193 -0.8591 -1.3207
14179TIP3    H263953   4.825   4.409   1.715  0.3482 -0.6420 -0.9599
14180TIP3   OH263954   4.641   5.135   2.776  0.5492  0.2550  0.6067
14180TIP3    H163955   4.589   5.215   2.786 -0.4222 -0.1249 -1.0836
14180TIP3    H263956   4.724   5.166   2.737 -0.4830  0.3175 -1.7106
14181TIP3   OH263957   1.333   5.554   3.476 -0.7109 -0.3657 -0.3257
14181TIP3    H163958   1.345   5.615   3.548 -1.2598 -0.4333 -0.1757
14181TIP3    H263959   1.336   5.467   3.517  0.0944 -0.4529 -0.5404
14182TIP3   OH263960   4.068   5.640   4.950  0.4557 -0.5963 -0.3323
14182TIP3    H163961   4.100   5.626   4.861 -0.9168  0.3380 -1.0133
14182TIP3    H263962   3.976   5.663   4.939  0.1070 -1.0524  1.3877
14183TIP3   OH263963   5.491   2.665  14.180 -0.1009 -0.2802 -0.0530
14183TIP3    H163964   5.498   2.741  14.122  1.3775  0.5594  1.1457
14183TIP3    H263965   5.579   2.651  14.213 -0.9839 -0.2079  2.5947
14184TIP3   OH263966   4.765   6.037   4.645  0.0142 -0.0066  0.5813
14184TIP3    H163967   4.831   6.089   4.690 -1.6470  2.4703  0.3886
14184TIP3    H263968   4.702   6.014   4.714  0.1140 -0.7269  0.4379
14185TIP3   OH263969   2.982   4.813   4.875  0.6061  0.5052  0.0879
14185TIP3    H163970   3.013   4.851   4.793  1.7431 -0.8739 -0.1600
14185TIP3    H263971   3.052   4.753   4.901 -1.0918 -1.4396  0.4288
14186TIP3   OH263972   3.071   2.502   1.113  0.1586 -0.3585 -0.6621
14186TIP3    H163973   3.133   2.547   1.170 -0.5266  0.2895 -0.4058
14186TIP3    H263974   3.061   2.415   1.151  0.8573 -0.4442 -0.6718
14187TIP3   OH263975   3.196   1.667   1.329  0.7976 -0.7914 -0.3742
14187TIP3    H163976   3.290   1.682   1.336  0.6747 -0.6310  1.4770
14187TIP3    H263977   3.185   1.623   1.245  1.8782  3.6784 -3.1914
14188TIP3   OH263978   5.048   6.574  13.860  0.2116  0.3165  0.5101
14188TIP3    H163979   4.960   6.611  13.862 -0.5961 -1.3873 -0.5739
14188TIP3    H263980   5.107   6.648  13.877 -1.3980  1.5816  0.7440
14189TIP3   OH263981   4.004   4.278   2.556 -0.0185  0.3557 -0.3739
14189TIP3    H163982   3.942   4.250   2.624  0.4712 -0.7954 -0.3924
14189TIP3    H263983   4.068   4.332   2.603 -1.6000  2.4824 -0.5339
14190TIP3   OH263984   0.108   3.253   6.445 -0.6091 -0.1878  0.7301
14190TIP3    H163985   0.134   3.344   6.431 -0.1873 -0.6245 -1.8534
14190TIP3    H263986   0.101   3.244   6.540  1.0093  2.0786  1.1438
14191TIP3   OH263987   1.570   2.139  12.991 -0.4066 -0.1020 -0.2396
14191TIP3    H163988   1.630   2.065  12.999 -0.1765  0.1925  0.8879
14191TIP3    H263989   1.544   2.138  12.899  0.9400 -0.5320 -0.6475
14192TIP3   OH263990   1.254   4.548  15.295 -0.3129  0.3151  0.3529
14192TIP3    H163991   1.257   4.453  15.299 -0.3963  0.3463  1.2694
14192TIP3    H263992   1.318   4.577  15.360 -1.0979  0.8815  0.8948
14193TIP3   OH263993   0.953   3.097  16.990 -0.0863  0.2893 -0.4548
14193TIP3    H163994   0.926   3.177  16.947 -2.3955  1.2869  2.4485
14193TIP3    H263995   1.025   3.123  17.048 -0.0163  0.0059 -0.4119
14194TIP3   OH263996   0.890   5.478  13.833  0.3985 -0.0397  0.1219
14194TIP3    H163997   0.807   5.525  13.844 -0.1464 -1.0723  0.6202
14194TIP3    H263998   0.956   5.547  13.830 -0.2336  0.7373  2.0631
14195TIP3   OH263999   3.064   1.693   5.158  0.0302  0.2235 -0.1345
14195TIP3    H164000   3.064   1.730   5.070 -1.0776 -0.7138 -0.5618
14195TIP3    H264001   3.152   1.657   5.170  0.5290  1.3177 -0.4174
14196TIP3   OH264002   4.509   3.325   2.881 -0.0102 -0.5608  0.3718
14196TIP3    H164003   4.425   3.313   2.837  1.3627 -0.9162 -2.3834
14196TIP3    H264004   4.530   3.239   2.918 -0.7245 -0.5208  0.8975
14197TIP3   OH264005   6.636   2.893   1.183  0.1091  0.6427 -0.0516
14197TIP3    H164006   6.720   2.904   1.139  0.6327 -0.5288  0.6180
14197TIP3    H264007   6.571   2.914   1.115  0.9108  2.0993 -0.4294
14198TIP3   OH264008   5.527   4.893   0.702 -0.9043  0.1084  0.6616
14198TIP3    H164009   5.596   4.906   0.637 -1.9113 -1.8442 -0.9110
14198TIP3    H264010   5.559   4.938   0.780  1.2009  0.9829 -0.6174
14199TIP3   OH264011   6.027   5.277  12.713 -0.2255  0.3445  0.3379
14199TIP3    H164012   5.977   5.213  12.662 -1.0650  1.6087 -0.4974
14199TIP3    H264013   6.085   5.317  12.648  0.4839  0.2443  0.9085
14200TIP3   OH264014   3.825   6.198  15.874  0.0916  0.2368  0.1887
14200TIP3    H164015   3.799   6.288  15.854  1.1544  0.2809 -1.1770
14200TIP3    H264016   3.836   6.196  15.969 -0.3230  1.4402  0.2747
14201TIP3   OH264017   1.269   5.118  10.394  0.0896 -0.3208 -0.0159
14201TIP3    H164018   1.268   5.031  10.354 -0.3925  0.2741 -1.3461
14201TIP3    H264019   1.362   5.135  10.413  0.0168 -1.8586  1.9835
14202TIP3   OH264020   4.176   6.533  13.290 -0.5362 -0.1836  0.3290
14202TIP3    H164021   4.135   6.478  13.357  1.5516 -3.5334 -0.9444
14202TIP3    H264022   4.252   6.571  13.333  0.1637 -1.4149  0.1979
14203TIP3   OH264023   5.557   3.971   4.929  0.5209  0.3907 -0.1273
14203TIP3    H164024   5.467   3.953   4.958 -0.5946  0.2197 -3.3584
14203TIP3    H264025   5.609   3.964   5.009 -2.0461 -1.4140  1.5446
14204TIP3   OH264026   2.275   2.000   2.049  0.1296 -0.9557 -0.2014
14204TIP3    H164027   2.256   1.907   2.042  2.0206 -1.2521 -2.1090
14204TIP3    H264028   2.201   2.043   2.004  0.1078 -1.6323 -0.8253
14205TIP3   OH264029   6.686   0.297  15.307 -0.1679 -0.3679  0.0389
14205TIP3    H164030   6.715   0.336  15.225 -3.3495  2.6906  0.1438
14205TIP3    H264031   6.729   0.350  15.375 -0.9094 -0.0700  0.2791
14206TIP3   OH264032   5.927   2.278  16.962 -0.3592  0.1722 -0.7070
14206TIP3    H164033   5.996   2.322  16.912  0.0808 -0.3327 -0.5568
14206TIP3    H264034   5.898   2.343  17.026 -1.0070  0.8665 -1.6705
14207TIP3   OH264035   1.283   5.679  15.535  0.2504 -0.2884  0.6938
14207TIP3    H164036   1.232   5.669  15.615 -1.3494 -0.8296 -0.3359
14207TIP3    H264037   1.282   5.773  15.517 -2.5297 -0.4488 -0.5542
14208TIP3   OH264038   3.772   1.740   3.876  0.1261 -0.3661 -0.7477
14208TIP3    H164039   3.784   1.646   3.890  1.2264 -0.1322 -0.0207
14208TIP3    H264040   3.723   1.746   3.794 -1.0852 -1.6098 -0.1463
14209TIP3   OH264041   4.255   4.908   4.148 -0.7210 -0.0960  0.2963
14209TIP3    H164042   4.343   4.946   4.145 -0.6797 -0.0920  1.2370
14209TIP3    H264043   4.255   4.852   4.225 -1.5492 -0.0889  0.3126
14210TIP3   OH264044   3.413   4.883  14.533  0.2012 -0.5057  0.0247
14210TIP3    H164045   3.419   4.788  14.528 -0.9080 -0.5831 -0.1118
14210TIP3    H264046   3.374   4.900  14.619  1.0943 -0.1307  0.3658
14211TIP3   OH264047   5.186   2.774   0.216  0.0930  0.8484 -0.4309
14211TIP3    H164048   5.182   2.734   0.129  0.9248  0.9134 -0.5058
14211TIP3    H264049   5.115   2.733   0.264  1.9374 -2.1012  0.0614
14212TIP3   OH264050   3.068   6.637  13.688 -0.8632 -0.4335 -0.6204
14212TIP3    H164051   3.080   6.699  13.615 -1.2199 -1.6108 -1.7070
14212TIP3    H264052   3.110   6.557  13.658  2.1515  0.0181  1.9194
14213TIP3   OH264053   2.353   2.827  16.793  0.0630 -0.4645  1.2945
14213TIP3    H164054   2.300   2.844  16.870  1.0207 -0.2415  1.9308
14213TIP3    H264055   2.341   2.734  16.776 -0.7715 -0.3525  1.2240
14214TIP3   OH264056   2.952   0.841  11.425 -0.5064 -0.2944  0.7943
14214TIP3    H164057   2.881   0.885  11.377 -0.3160 -0.8378 -0.0034
14214TIP3    H264058   2.994   0.785  11.360 -0.3089 -1.1428  1.6242
14215TIP3   OH264059   0.307   0.981   3.249 -0.1980 -0.1355 -0.6551
14215TIP3    H164060   0.341   1.034   3.177 -0.5520  0.9441 -0.0484
14215TIP3    H264061   0.226   1.025   3.275 -0.4791 -0.9546 -0.0945
14216TIP3   OH264062   0.052   3.418   3.912  0.2131 -0.0861  0.1164
14216TIP3    H164063   0.037   3.325   3.896 -0.4660 -0.2508  1.5948
14216TIP3    H264064  -0.029   3.461   3.884 -0.0036 -0.0996  0.7100
14217TIP3   OH264065   1.092   1.283  14.942 -0.1913 -0.2153  0.4181
14217TIP3    H164066   1.062   1.247  15.026  0.2350 -0.4228  0.4876
14217TIP3    H264067   1.187   1.293  14.954 -0.1733  0.0281  0.0623
14218TIP3   OH264068   2.239   1.827  16.588 -0.4983  0.1031  1.0034
14218TIP3    H164069   2.249   1.891  16.517 -0.1115 -1.1918 -0.1678
14218TIP3    H264070   2.155   1.848  16.628 -1.3030  0.1421 -0.6302
14219TIP3   OH264071   1.796   0.880  12.949  0.6853  0.0844  0.0725
14219TIP3    H164072   1.758   0.879  12.862 -0.3988  0.5120  0.5252
14219TIP3    H264073   1.723   0.857  13.007  1.2220  0.4838  0.9241
14220TIP3   OH264074   1.243   0.102   3.387 -0.5550 -0.5740 -0.0133
14220TIP3    H164075   1.192   0.022   3.400 -0.7181 -0.4288  0.2238
14220TIP3    H264076   1.330   0.070   3.361 -0.8220 -0.8141 -0.6316
14221TIP3   OH264077   1.529   3.348   0.196 -0.4843 -0.0622 -0.3094
14221TIP3    H164078   1.485   3.270   0.230  1.3453 -1.0896 -0.1616
14221TIP3    H264079   1.482   3.421   0.236 -1.9917 -1.0857 -0.1317
14222TIP3   OH264080   4.623   4.833   2.160  0.1415  0.3520  0.2619
14222TIP3    H164081   4.605   4.742   2.138 -1.3514  0.6190  0.2060
14222TIP3    H264082   4.652   4.872   2.077 -0.0467  0.1115  0.0793
14223TIP3   OH264083   5.383   5.821  15.953  0.2242 -0.4232  0.3397
14223TIP3    H164084   5.369   5.777  16.037 -0.3419 -0.7833  0.0605
14223TIP3    H264085   5.478   5.818  15.941  0.7225  2.4126  2.4405
14224TIP3   OH264086   1.914   3.293   2.490  0.0522 -0.2246 -0.1299
14224TIP3    H164087   1.826   3.281   2.526  1.0687 -0.5381  2.4223
14224TIP3    H264088   1.935   3.207   2.452 -0.1160 -0.6971  0.8022
14225TIP3   OH264089   3.092   6.675  16.659  0.3489  0.0984  0.4353
14225TIP3    H164090   3.054   6.759  16.632  0.2262  0.2393  1.0339
14225TIP3    H264091   3.090   6.621  16.580 -2.1209 -0.2893  0.6938
14226TIP3   OH264092   4.229   2.679   0.226 -0.7011 -0.6532 -0.3801
14226TIP3    H164093   4.233   2.592   0.264 -1.2475 -0.6621 -0.3312
14226TIP3    H264094   4.235   2.738   0.301  3.1530 -0.5272 -0.6225
14227TIP3   OH264095   4.673   6.733   5.743 -0.2617  0.0164  0.3160
14227TIP3    H164096   4.629   6.766   5.821 -0.7526  0.3451 -0.0876
14227TIP3    H264097   4.708   6.812   5.701 -2.2894  0.2192 -1.1793
14228TIP3   OH264098   4.422   2.850  15.955 -0.1824 -0.6776 -0.3341
14228TIP3    H164099   4.411   2.881  15.865  0.4312 -0.5564 -0.3740
14228TIP3    H264100   4.338   2.867  15.996  0.6436  2.9647  0.2006
14229TIP3   OH264101   3.644   4.001   3.626 -0.2245 -0.1269 -0.5297
14229TIP3    H164102   3.585   3.973   3.697  0.1832 -0.6636 -0.3936
14229TIP3    H264103   3.652   4.096   3.637  0.7988 -0.3504  0.9070
14230TIP3   OH264104   4.770   4.482  17.063 -0.5868 -0.2638 -0.1146
14230TIP3    H164105   4.820   4.554  17.027  0.3382 -1.2884 -0.9602
14230TIP3    H264106   4.767   4.498  17.157  0.1464  0.5351 -0.2259
14231TIP3   OH264107   6.148   5.757   0.618 -0.1165  0.3929 -0.0821
14231TIP3    H164108   6.113   5.793   0.537  0.7395 -0.7680 -1.0038
14231TIP3    H264109   6.198   5.829   0.658  0.7341  0.5441 -1.3694
14232TIP3   OH264110   1.646   3.034  15.053 -0.2712 -0.0904 -0.1056
14232TIP3    H164111   1.667   2.948  15.016 -0.7427  0.7299 -2.5275
14232TIP3    H264112   1.693   3.038  15.135  2.1077 -1.5687 -1.2951
14233TIP3   OH264113   0.993   5.733   3.637  0.1591 -0.4731 -0.1217
14233TIP3    H164114   0.912   5.685   3.650  0.1503 -0.6708 -0.8464
14233TIP3    H264115   1.009   5.728   3.542  1.3507 -1.0040  0.0768
14234TIP3   OH264116   6.553   4.700  11.806  0.2655 -0.2286  0.1451
14234TIP3    H164117   6.494   4.701  11.731 -0.8545 -1.0013  0.9832
14234TIP3    H264118   6.549   4.610  11.839  2.4112 -0.4903 -0.1337
14235TIP3   OH264119   5.414   3.886   5.868  0.6604  0.5888 -0.2869
14235TIP3    H164120   5.442   3.915   5.955 -1.5070  2.7085 -0.1881
14235TIP3    H264121   5.446   3.954   5.809  0.6459  0.0474 -0.9273
14236TIP3   OH264122   0.368   3.845  10.880 -0.0695 -1.0189 -0.0061
14236TIP3    H164123   0.380   3.906  10.953 -0.2234 -0.9826 -0.0104
14236TIP3    H264124   0.307   3.890  10.821 -0.9990 -1.6113  0.4840
14237TIP3   OH264125   0.297   3.419   1.072 -0.1619 -0.1109  0.3522
14237TIP3    H164126   0.337   3.389   1.154 -0.5811  0.6386  0.8475
14237TIP3    H264127   0.248   3.497   1.097  1.9841  1.8516 -1.0888
14238TIP3   OH264128   5.773   6.250   4.067  0.5685 -0.8382 -0.0046
14238TIP3    H164129   5.681   6.265   4.048  0.9194 -1.0798 -2.1072
14238TIP3    H264130   5.812   6.226   3.983  3.0360  1.5873  0.2883
14239TIP3   OH264131   2.876   2.025  12.833  0.2615  0.6375  0.4579
14239TIP3    H164132   2.909   2.013  12.922  2.8954 -0.0911 -0.5091
14239TIP3    H264133   2.849   2.116  12.830  1.0476  0.9472  1.7540
14240TIP3   OH264134   1.826   0.321   1.689 -0.3792  0.4607 -0.3541
14240TIP3    H164135   1.755   0.301   1.750  1.2425  1.2055  1.8700
14240TIP3    H264136   1.865   0.236   1.668  0.2067  0.3377  1.1493
14241TIP3   OH264137   1.810   5.753  15.076 -0.1498 -0.3046  0.3030
14241TIP3    H164138   1.861   5.756  14.995 -0.4485 -0.6122  0.0984
14241TIP3    H264139   1.808   5.660  15.099  1.4372 -0.0560  1.6369
14242TIP3   OH264140   6.306   0.140  17.057 -0.2033 -0.0551  0.1450
14242TIP3    H164141   6.221   0.168  17.089 -0.6939 -0.6421 -0.6164
14242TIP3    H264142   6.314   0.179  16.970  0.6958  0.7181  0.5465
14243TIP3   OH264143   6.521   3.249  14.699  0.4868 -0.0053  0.4725
14243TIP3    H164144   6.496   3.291  14.781 -2.4198 -0.1884 -0.2381
14243TIP3    H264145   6.507   3.317  14.632  3.0071  0.2145  0.0492
14244TIP3   OH264146   5.900   2.382   1.397 -0.1309  0.0087  0.7880
14244TIP3    H164147   5.928   2.309   1.342 -1.7496  0.4095 -0.6459
14244TIP3    H264148   5.869   2.341   1.478  0.0816 -0.7852  0.4766
14245TIP3   OH264149   4.281   2.999  10.714 -0.1972 -0.2360  0.0775
14245TIP3    H164150   4.224   3.047  10.654 -1.3449 -0.1928  1.1679
14245TIP3    H264151   4.368   3.038  10.700 -0.8335  1.2064 -0.0563
14246TIP3   OH264152   3.151   4.181  14.352  0.0047 -0.1379  0.3317
14246TIP3    H164153   3.080   4.119  14.369 -0.0499 -0.1433  0.0845
14246TIP3    H264154   3.217   4.130  14.304  0.0496 -0.0596  0.3095
14247TIP3   OH264155   5.656   5.701   1.495  0.4830  0.1706  0.3658
14247TIP3    H164156   5.666   5.649   1.574 -1.3246  1.7681  1.7366
14247TIP3    H264157   5.627   5.787   1.526 -0.7509  0.7228 -2.0423
14248TIP3   OH264158   0.913   1.952  14.790  0.2781  0.6282 -0.0007
14248TIP3    H164159   0.895   1.880  14.851  1.6579  0.1381 -0.1355
14248TIP3    H264160   0.877   1.922  14.706 -0.7967  0.9084  0.3432
14249TIP3   OH264161   3.522   0.524  11.477 -0.2008  0.1582 -0.4000
14249TIP3    H164162   3.598   0.469  11.496  1.1010  0.9129 -2.8995
14249TIP3    H264163   3.478   0.480  11.403 -0.0345  1.5819 -1.3926
14250TIP3   OH264164   2.688   2.281  11.956 -0.1474  0.1525 -0.3029
14250TIP3    H164165   2.731   2.332  12.024 -0.9643  0.1409  0.2443
14250TIP3    H264166   2.740   2.297  11.877  0.0802  1.1826  0.0374
14251TIP3   OH264167   0.432   3.552  12.873 -0.2352 -0.6351  0.5032
14251TIP3    H164168   0.429   3.587  12.962  0.8380  0.9247 -0.0290
14251TIP3    H264169   0.405   3.460  12.883 -0.8653 -0.3117  2.3071
14252TIP3   OH264170   0.436   2.462   5.509 -0.2260  0.3322 -0.5035
14252TIP3    H164171   0.394   2.447   5.594 -1.3626 -0.9137 -1.2394
14252TIP3    H264172   0.387   2.534   5.470  1.8289  2.6171  0.8138
14253TIP3   OH264173   1.864   3.382   5.611  0.2503  0.0654  0.5386
14253TIP3    H164174   1.798   3.372   5.680 -0.7836 -1.8243 -0.6612
14253TIP3    H264175   1.849   3.309   5.552  0.2866  2.2620 -2.4019
14254TIP3   OH264176   4.300   6.332  12.935  0.1264  0.0718 -0.0922
14254TIP3    H164177   4.386   6.291  12.945 -0.5540 -1.9849 -1.8408
14254TIP3    H264178   4.262   6.329  13.023  1.7383  0.8908  0.6858
14255TIP3   OH264179   3.347   1.275   5.139  0.8668  0.3788  0.2831
14255TIP3    H164180   3.307   1.249   5.222  1.2033  0.4978  0.4831
14255TIP3    H264181   3.440   1.254   5.149  0.6605 -1.1952 -0.6885
14256TIP3   OH264182   4.556   0.282   0.865  0.1120  0.1637 -0.2075
14256TIP3    H164183   4.486   0.284   0.800  0.3390 -0.3031 -0.4756
14256TIP3    H264184   4.519   0.234   0.939  0.3521 -0.6615 -0.6082
14257TIP3   OH264185   2.857   2.760  16.760 -0.2939  0.3217 -0.7849
14257TIP3    H164186   2.848   2.849  16.795  0.3193 -0.1849  0.7912
14257TIP3    H264187   2.914   2.716  16.824  0.0007 -0.9979 -1.9177
14258TIP3   OH264188   1.585   5.835   5.844  0.2455 -0.0173  0.0786
14258TIP3    H164189   1.520   5.855   5.912 -0.8791  0.9151 -1.2339
14258TIP3    H264190   1.551   5.757   5.800  0.0697  0.3967 -0.5293
14259TIP3   OH264191   4.867   4.998  13.074 -0.2105  0.5134 -0.0181
14259TIP3    H164192   4.778   4.962  13.067  0.4088 -2.3899  3.6790
14259TIP3    H264193   4.901   4.996  12.985 -3.0358 -0.5470 -1.2010
14260TIP3   OH264194   1.614   4.383  11.544  0.5617  0.1827 -0.0654
14260TIP3    H164195   1.655   4.428  11.470 -0.2784 -1.1957 -1.4407
14260TIP3    H264196   1.588   4.298  11.509 -0.5885 -0.2142  1.6137
14261TIP3   OH264197   4.602   1.378   2.832  0.3143  0.2384  0.5180
14261TIP3    H164198   4.570   1.454   2.783 -1.0549 -0.4720  0.2623
14261TIP3    H264199   4.609   1.409   2.922 -1.1679  0.4361  0.5911
14262TIP3   OH264200   5.963   1.505   2.467  0.0083  0.0453 -0.2910
14262TIP3    H164201   5.972   1.600   2.460  1.9693 -0.0750 -0.0423
14262TIP3    H264202   6.033   1.479   2.527 -0.2861 -1.6009 -0.6127
14263TIP3   OH264203   6.770   4.541  12.140 -0.1371 -0.3867  0.1373
14263TIP3    H164204   6.754   4.551  12.234  0.6809  1.7645  0.0867
14263TIP3    H264205   6.749   4.449  12.123 -3.3444 -0.1322  1.7952
14264TIP3   OH264206   4.285   4.563  11.701  0.2758  0.5945 -0.4321
14264TIP3    H164207   4.198   4.570  11.741  0.4967 -2.0785  0.7609
14264TIP3    H264208   4.345   4.598  11.767  0.3731 -0.9927  0.3657
14265TIP3   OH264209   3.716   0.975   1.293 -0.3836  0.1306  0.1041
14265TIP3    H164210   3.668   0.910   1.241 -2.6994  2.0504 -0.3002
14265TIP3    H264211   3.677   0.970   1.380 -0.6819  1.0644  0.0296
14266TIP3   OH264212   3.680   0.629  16.422  0.1944  0.2080 -0.1061
14266TIP3    H164213   3.738   0.705  16.422  0.5588 -0.0640  0.3439
14266TIP3    H264214   3.592   0.666  16.416  0.1161  0.8951  3.2862
14267TIP3   OH264215   1.420   6.072   4.834  0.6340 -0.8206 -0.4881
14267TIP3    H164216   1.411   6.029   4.919  1.0351 -0.3097 -0.1801
14267TIP3    H264217   1.336   6.117   4.822  1.7533  2.1084  1.3564
14268TIP3   OH264218   3.750   2.664   3.196  0.0055 -0.2009  0.4190
14268TIP3    H164219   3.746   2.633   3.286  2.2476  3.2671  1.9119
14268TIP3    H264220   3.840   2.647   3.168  0.2410  1.5032  0.0117
14269TIP3   OH264221   2.756   2.591   6.607 -0.7549  0.1860  0.3943
14269TIP3    H164222   2.745   2.646   6.685 -1.0323 -0.4167  0.7958
14269TIP3    H264223   2.691   2.624   6.545 -1.4278 -0.1529  0.9068
14270TIP3   OH264224   4.344   6.681   1.998  0.6901 -0.0740  0.2266
14270TIP3    H164225   4.433   6.713   2.013  0.1297  1.2844  0.7960
14270TIP3    H264226   4.344   6.656   1.905  0.9626  2.4425 -0.5358
14271TIP3   OH264227   3.451   2.976  12.965 -0.0785  0.5611  0.6781
14271TIP3    H164228   3.432   3.045  13.028 -0.3364  0.1540  1.0506
14271TIP3    H264229   3.381   2.912  12.977 -0.3223  0.6345 -0.2542
14272TIP3   OH264230   1.239   6.438  14.224 -0.0217 -0.1039 -0.1003
14272TIP3    H164231   1.202   6.499  14.160  0.0073 -0.7577 -0.7551
14272TIP3    H264232   1.322   6.409  14.185  0.6335  0.4600  0.8252
14273TIP3   OH264233   4.503   4.528  11.130 -0.3713 -0.3627  1.0085
14273TIP3    H164234   4.498   4.535  11.034  0.0424  2.0633  1.0940
14273TIP3    H264235   4.493   4.435  11.148 -2.0762 -0.7228 -1.3019
14274TIP3   OH264236   5.964   6.770  12.301  0.1760  0.2636  0.1871
14274TIP3    H164237   6.038   6.830  12.315  1.3143 -0.8090 -0.9832
14274TIP3    H264238   5.948   6.731  12.387 -0.3127  1.8890  0.8750
14275TIP3   OH264239   6.233   0.965  11.867  0.4150  0.3295  0.8388
14275TIP3    H164240   6.311   0.992  11.819 -0.6659  0.5201 -0.8878
14275TIP3    H264241   6.232   0.870  11.861 -0.9580  0.4177 -1.7108
14276TIP3   OH264242   0.758   6.053   1.392  0.1744 -0.5167  0.1912
14276TIP3    H164243   0.779   6.124   1.332 -1.6190  1.6982  1.9688
14276TIP3    H264244   0.715   5.987   1.338  0.0994  0.6474 -1.2278
14277TIP3   OH264245   4.496   0.136   5.888 -0.0553 -0.1701 -0.3496
14277TIP3    H164246   4.483   0.109   5.979 -0.4031 -0.3888 -0.4624
14277TIP3    H264247   4.471   0.228   5.886  3.9433  1.1544  0.7068
14278TIP3   OH264248   4.126   0.486   4.142  0.0750 -0.1937 -0.0562
14278TIP3    H164249   4.063   0.459   4.209 -0.4115  0.4495 -0.2432
14278TIP3    H264250   4.095   0.445   4.062  0.5230 -0.7708  0.0625
14279TIP3   OH264251   0.323   3.354  11.090 -0.7577 -0.5502  0.1338
14279TIP3    H164252   0.306   3.292  11.019 -1.2928  1.1855 -1.3206
14279TIP3    H264253   0.261   3.330  11.158 -0.2584 -2.2348  0.0556
14280TIP3   OH264254   4.874   5.651   5.766  0.2831 -0.2438 -0.1638
14280TIP3    H164255   4.941   5.696   5.818 -1.3758  0.7506  1.2580
14280TIP3    H264256   4.858   5.709   5.692 -1.5649  1.4897  1.4555
14281TIP3   OH264257   3.450   2.739  16.533  0.2831  1.0549 -0.0117
14281TIP3    H164258   3.502   2.683  16.475 -0.1021  0.0261  0.6228
14281TIP3    H264259   3.513   2.771  16.598  0.1397 -0.2337  0.7880
14282TIP3   OH264260   2.427   2.969   4.597  0.3107  0.2529  0.3521
14282TIP3    H164261   2.396   2.888   4.637 -1.2480  0.1406 -0.9814
14282TIP3    H264262   2.371   3.037   4.636 -3.6523 -0.2011 -3.7954
14283TIP3   OH264263   1.531   2.278  16.174 -0.1879 -0.2207  0.2972
14283TIP3    H164264   1.484   2.194  16.177 -1.7012  0.5457 -0.5867
14283TIP3    H264265   1.581   2.274  16.092 -0.6497 -0.0768  0.0039
14284TIP3   OH264266   1.344   6.519   4.138  0.7053 -0.0245 -0.3536
14284TIP3    H164267   1.392   6.520   4.055  1.2633 -0.0781 -0.0398
14284TIP3    H264268   1.413   6.524   4.205  0.2378  0.6417  0.0969
14285TIP3   OH264269   1.069   1.274   2.561 -0.3933  0.0870 -0.3437
14285TIP3    H164270   1.013   1.281   2.484  0.5771  0.0944 -1.0628
14285TIP3    H264271   1.143   1.221   2.533 -0.2833 -0.3671  0.7419
14286TIP3   OH264272   6.264   0.371  12.548  0.0903 -0.2118  0.3881
14286TIP3    H164273   6.242   0.316  12.623 -0.0383 -3.1195 -1.6311
14286TIP3    H264274   6.186   0.426  12.535 -0.8155 -1.3040  1.0115
14287TIP3   OH264275   6.118   5.138  13.158  0.2528  0.1776  0.6325
14287TIP3    H164276   6.173   5.162  13.084 -0.2028 -0.1116  0.1992
14287TIP3    H264277   6.047   5.202  13.158  0.1683  0.0838  0.7261
14288TIP3   OH264278   2.561   5.132  14.211  0.2130 -0.5188  0.2890
14288TIP3    H164279   2.487   5.098  14.161  0.0741 -0.5121  0.4868
14288TIP3    H264280   2.555   5.227  14.201 -0.5962 -0.4419  1.4038
14289TIP3   OH264281   5.667   1.847   4.704 -0.3284 -0.5539  0.4852
14289TIP3    H164282   5.572   1.859   4.714 -0.6821 -0.1803 -2.3812
14289TIP3    H264283   5.677   1.754   4.681  0.0628 -0.6743  1.1112
14290TIP3   OH264284   5.764   3.706   6.158  0.4304 -0.3534 -0.2577
14290TIP3    H164285   5.742   3.774   6.221 -0.5117 -1.1636  0.3221
14290TIP3    H264286   5.734   3.625   6.199  1.5472 -1.1267 -0.9189
14291TIP3   OH264287   3.961   5.747  12.481  0.0309 -0.3625  0.5589
14291TIP3    H164288   3.969   5.651  12.482 -3.0816 -0.8110 -1.5923
14291TIP3    H264289   3.900   5.765  12.553  0.5088  0.0191  0.8731
14292TIP3   OH264290   1.893   3.204   5.030  0.4127  0.0618  0.1679
14292TIP3    H164291   1.920   3.148   4.957  1.8960 -0.1777  0.8734
14292TIP3    H264292   1.960   3.273   5.033 -0.4345  0.8928  0.4082
14293TIP3   OH264293   2.186   5.679  16.952 -0.4055  0.6253 -0.1432
14293TIP3    H164294   2.191   5.766  16.912  1.6855  0.4367 -0.3938
14293TIP3    H264295   2.246   5.625  16.900  2.4884  0.3631  3.1391
14294TIP3   OH264296   3.665   5.644  14.493  0.0337  0.2634  0.3926
14294TIP3    H164297   3.671   5.573  14.429  1.9585  0.0342  0.7640
14294TIP3    H264298   3.575   5.676  14.485 -0.5869 -1.5513 -0.4867
14295TIP3   OH264299   0.626   4.136   3.077 -0.9057 -0.2451  0.0984
14295TIP3    H164300   0.700   4.191   3.051 -0.3347 -1.6311 -1.3289
14295TIP3    H264301   0.627   4.139   3.173 -0.7012  1.9313  0.0732
14296TIP3   OH264302   5.008   0.573   1.567  0.3267  0.1889 -0.1946
14296TIP3    H164303   5.093   0.575   1.522  0.1665  0.0183 -0.5052
14296TIP3    H264304   4.947   0.538   1.502 -0.0246  0.5050 -0.0418
14297TIP3   OH264305   4.393   3.132   1.662 -0.5184  0.6621  0.1515
14297TIP3    H164306   4.402   3.080   1.742  0.7537  0.7925  0.1097
14297TIP3    H264307   4.347   3.211   1.690  2.7734  2.2506  1.5249
14298TIP3   OH264308   3.051   1.646   1.818  0.6334 -0.0569 -0.8286
14298TIP3    H164309   3.009   1.572   1.862 -1.8852  2.0245  0.5546
14298TIP3    H264310   3.041   1.628   1.725 -0.3619 -1.2221 -0.5227
14299TIP3   OH264311   2.032   2.044  13.926 -0.3875  0.1898  0.3149
14299TIP3    H164312   2.072   1.961  13.900  0.6825  0.1349  2.0056
14299TIP3    H264313   2.092   2.080  13.991 -0.2291  2.8388 -1.1425
14300TIP3   OH264314   1.688   4.260  11.173  0.0821 -0.2693 -0.1233
14300TIP3    H164315   1.637   4.189  11.212  1.4034  0.9187  4.4726
14300TIP3    H264316   1.775   4.221  11.159 -0.1466 -0.4557 -1.0413
14301TIP3   OH264317   3.382   5.428   5.874  0.4466 -0.3986 -0.0141
14301TIP3    H164318   3.319   5.363   5.842  0.1734 -0.1105 -0.0738
14301TIP3    H264319   3.329   5.507   5.888  0.8423 -0.0804 -0.2996
14302TIP3   OH264320   4.475   1.400  12.701  1.1920  0.6716 -0.5729
14302TIP3    H164321   4.382   1.407  12.680  1.2148  1.5640 -0.4513
14302TIP3    H264322   4.501   1.314  12.669  0.2558  0.2898 -0.3400
14303TIP3   OH264323   5.079   2.043   0.130 -0.1665  0.3201 -0.3311
14303TIP3    H164324   5.010   1.978   0.132  0.7899 -0.7145  0.4320
14303TIP3    H264325   5.140   2.012   0.064  0.1849  0.5638 -0.1273
14304TIP3   OH264326   6.316   5.414   1.565 -0.2093 -0.3622  0.0901
14304TIP3    H164327   6.338   5.503   1.536  0.4324 -0.2615  0.8474
14304TIP3    H264328   6.257   5.427   1.639 -0.1603 -0.5646  0.1642
14305TIP3   OH264329   0.629   2.472  16.782  0.4646  0.1168  0.2286
14305TIP3    H164330   0.584   2.470  16.698 -1.2385 -0.1512  1.0942
14305TIP3    H264331   0.631   2.380  16.810 -0.7559  0.3840  1.3258
14306TIP3   OH264332   1.184   4.743   5.253  0.2913 -0.3107  0.1820
14306TIP3    H164333   1.132   4.665   5.233  0.7582 -0.7742  0.7155
14306TIP3    H264334   1.211   4.731   5.344  1.4135 -0.1409 -0.1100
14307TIP3   OH264335   2.466   1.266   1.486 -0.2181 -0.4935 -0.6473
14307TIP3    H164336   2.551   1.224   1.479 -0.0070 -0.0733 -0.6099
14307TIP3    H264337   2.458   1.291   1.578 -0.3013 -0.3673 -0.6872
14308TIP3   OH264338   6.052   4.551  15.380  0.1694  0.3698  0.6334
14308TIP3    H164339   6.108   4.583  15.309  0.1242  1.6916  1.1694
14308TIP3    H264340   6.045   4.625  15.441 -1.1388 -0.1924  1.2053
14309TIP3   OH264341   3.777   1.573   5.605  0.4890 -0.1119  0.2205
14309TIP3    H164342   3.842   1.506   5.585 -1.5032 -1.4019 -2.6312
14309TIP3    H264343   3.821   1.656   5.587  1.9366 -0.8177  0.3893
14310TIP3   OH264344   6.377   5.107   1.731 -0.7490 -0.6229  0.3175
14310TIP3    H164345   6.292   5.116   1.775 -0.1572  0.5589  1.2984
14310TIP3    H264346   6.430   5.179   1.767  1.1821 -2.2805  0.9555
14311TIP3   OH264347   2.725   3.319   2.319 -0.2593 -0.2769  0.3915
14311TIP3    H164348   2.662   3.279   2.380 -1.9599  0.7589 -0.6097
14311TIP3    H264349   2.807   3.321   2.368 -0.9216 -1.8644  1.6777
14312TIP3   OH264350   1.963   6.444  14.613  0.1708  0.7184  0.7275
14312TIP3    H164351   1.904   6.380  14.653 -0.1639  0.1871 -0.5487
14312TIP3    H264352   1.904   6.510  14.575  0.4518  0.8799  0.5724
14313TIP3   OH264353   1.026   1.602   1.089 -0.5108  0.4594 -0.3673
14313TIP3    H164354   0.966   1.648   1.031 -0.2224  1.6901  0.2563
14313TIP3    H264355   1.112   1.615   1.049 -0.6698 -1.6717 -1.4941
14314TIP3   OH264356   5.243   4.477   3.595 -0.0283  0.1799  0.2658
14314TIP3    H164357   5.244   4.467   3.500  0.5804  2.5302 -0.0511
14314TIP3    H264358   5.150   4.485   3.617 -0.3244 -2.2856  0.1899
14315TIP3   OH264359   6.122   6.142  15.108 -0.3082  0.2116 -0.2227
14315TIP3    H164360   6.109   6.183  15.022  0.0273  2.0873  0.5659
14315TIP3    H264361   6.206   6.177  15.138 -0.8575  0.3200  1.2546
14316TIP3   OH264362   5.408   3.122   4.543  0.2534  0.0047 -0.1194
14316TIP3    H164363   5.317   3.135   4.573  0.5559  0.8837  0.4684
14316TIP3    H264364   5.423   3.195   4.483 -0.3389 -1.7350 -2.5010
14317TIP3   OH264365   3.780   5.233  12.188 -0.7410 -0.0066 -0.4097
14317TIP3    H164366   3.821   5.297  12.246 -0.7589  0.8373 -1.2993
14317TIP3    H264367   3.699   5.208  12.233 -0.8717  0.8083 -0.1774
14318TIP3   OH264368   5.515   2.339  12.816  0.4222 -0.0168 -0.4901
14318TIP3    H164369   5.543   2.252  12.790  1.1001  0.2882 -0.7968
14318TIP3    H264370   5.440   2.324  12.874  0.9499 -0.8181 -0.0073
14319TIP3   OH264371   1.857   3.034  11.237  0.4502  0.3611 -0.0441
14319TIP3    H164372   1.853   2.970  11.308  0.8796 -0.3625 -0.6704
14319TIP3    H264373   1.809   2.994  11.165  1.6707  0.2511 -0.8248
14320TIP3   OH264374   5.763   3.263   6.581  0.2099 -0.3251 -0.2498
14320TIP3    H164375   5.805   3.297   6.660  0.2363 -1.0259  0.0528
14320TIP3    H264376   5.808   3.306   6.509  2.6693 -2.2588 -0.0260
14321TIP3   OH264377   1.759   3.526   3.920  0.3188  0.0574 -0.4406
14321TIP3    H164378   1.824   3.489   3.979 -1.2266 -0.8963  0.7611
14321TIP3    H264379   1.806   3.594   3.871  1.5827  1.2484  2.2276
14322TIP3   OH264380   5.659   2.874  13.839  0.2442 -0.3868 -0.3820
14322TIP3    H164381   5.605   2.911  13.769  1.2343  0.1276 -0.9130
14322TIP3    H264382   5.745   2.861  13.798  0.5376 -1.1316  0.4421
14323TIP3   OH264383   3.897   4.815  14.834  0.5202 -0.3302  0.0449
14323TIP3    H164384   3.880   4.829  14.927  0.6713 -3.0671  0.5708
14323TIP3    H264385   3.953   4.738  14.832  1.2962  0.2254 -2.3033
14324TIP3   OH264386   3.467   6.557  15.522 -0.4561 -0.4135  0.2698
14324TIP3    H164387   3.432   6.597  15.442  1.5753  0.3179 -0.3077
14324TIP3    H264388   3.509   6.476  15.492  0.8307  0.1591  0.4785
14325TIP3   OH264389   6.056   1.510   3.842 -0.4008 -0.1919  0.1280
14325TIP3    H164390   5.962   1.505   3.822 -0.6583  1.2633  0.8458
14325TIP3    H264391   6.063   1.479   3.933 -0.4399  1.2054  0.6337
14326TIP3   OH264392   0.974   1.728   4.024  0.1830 -0.4167  0.6626
14326TIP3    H164393   0.916   1.671   3.972  1.6309 -0.9895 -0.3784
14326TIP3    H264394   1.036   1.668   4.064  0.1688  0.2119  1.6563
14327TIP3   OH264395   0.411   4.355   4.811  0.2767  0.4577  0.0887
14327TIP3    H164396   0.331   4.305   4.794 -1.0011  2.8713 -1.5176
14327TIP3    H264397   0.425   4.406   4.731  2.6238  1.2067  0.8856
14328TIP3   OH264398   1.099   1.880  10.406 -0.1308 -0.2731  0.7126
14328TIP3    H164399   1.039   1.828  10.353  0.7953 -0.8097  0.1741
14328TIP3    H264400   1.052   1.896  10.488 -1.5156  0.4231 -0.1856
14329TIP3   OH264401   5.240   6.262   1.182  0.4266 -0.0544  0.1948
14329TIP3    H164402   5.195   6.179   1.165  0.0112  0.2828 -0.4557
14329TIP3    H264403   5.258   6.262   1.276  1.0737 -1.1864  0.0836
14330TIP3   OH264404   5.272   5.245  15.681  0.0035 -0.3651 -0.3159
14330TIP3    H164405   5.349   5.298  15.700 -0.5854 -0.0659  1.4516
14330TIP3    H264406   5.300   5.155  15.699  0.0735 -0.2982 -0.0818
14331TIP3   OH264407   2.005   6.575  15.805 -0.1357 -0.4528 -0.1628
14331TIP3    H164408   1.979   6.556  15.895 -1.2771  1.3326 -0.0666
14331TIP3    H264409   2.044   6.662  15.809 -1.1639  0.1065 -1.5352
14332TIP3   OH264410   4.414   1.193   2.539 -0.0610  0.2495 -0.0408
14332TIP3    H164411   4.491   1.249   2.543  0.1901 -0.0430 -0.5663
14332TIP3    H264412   4.424   1.146   2.456  0.6590 -1.8510  1.1502
14333TIP3   OH264413   0.139   5.744  13.666  0.1495  0.3313 -0.1103
14333TIP3    H164414   0.053   5.769  13.632 -0.9264  0.3741  2.4229
14333TIP3    H264415   0.122   5.712  13.755  2.6881 -0.1962  0.2775
14334TIP3   OH264416   0.693   0.287   3.900  0.1798 -0.5903  0.1683
14334TIP3    H164417   0.634   0.362   3.897  0.2144 -0.4294  2.1562
14334TIP3    H264418   0.646   0.218   3.854 -1.6750 -0.5000  1.7799
14335TIP3   OH264419   0.748   3.401  14.669  0.5342  0.2045  0.2594
14335TIP3    H164420   0.702   3.443  14.596  0.6358 -0.7249 -0.3597
14335TIP3    H264421   0.687   3.334  14.701  0.1765  1.1221  1.5532
14336TIP3   OH264422   6.694   1.892   0.791  0.5724 -0.1576 -0.0614
14336TIP3    H164423   6.716   1.899   0.699 -1.7985 -2.4236 -0.9245
14336TIP3    H264424   6.667   1.801   0.803  0.0080  0.2648  2.6805
14337TIP3   OH264425   3.983   1.477  14.025 -0.1954 -0.6519 -0.6381
14337TIP3    H164426   3.913   1.518  14.076  0.6369  2.7666 -1.9701
14337TIP3    H264427   4.048   1.452  14.090 -0.7962  0.0824  0.2767
14338TIP3   OH264428   6.604   2.100   1.787  0.3782  0.1968  0.1567
14338TIP3    H164429   6.528   2.158   1.784 -0.0584 -0.3786 -0.0409
14338TIP3    H264430   6.647   2.112   1.703  0.0235 -0.1131 -0.0723
14339TIP3   OH264431   6.735   2.787   3.452  0.1578 -0.3673  0.1200
14339TIP3    H164432   6.711   2.697   3.432  0.2379 -0.6910  1.4010
14339TIP3    H264433   6.795   2.812   3.381  0.9548 -1.6712  0.3039
14340TIP3   OH264434   0.976   4.652  12.176  0.1538 -0.3054 -0.1981
14340TIP3    H164435   0.903   4.707  12.206 -0.8675 -1.6886 -0.0530
14340TIP3    H264436   0.963   4.644  12.082  1.2391  1.0128 -0.4741
14341TIP3   OH264437   4.873   3.242  15.988 -0.2940 -0.5015  0.4658
14341TIP3    H164438   4.904   3.257  16.077 -0.2853  1.0499  0.2266
14341TIP3    H264439   4.793   3.293  15.981  0.1075  0.0118 -0.6384
14342TIP3   OH264440   3.823   5.239  14.525 -0.0789  0.0940  0.1631
14342TIP3    H164441   3.843   5.149  14.499 -1.2579  0.5578 -2.7700
14342TIP3    H264442   3.728   5.239  14.539 -0.7016  1.4256 -3.0976
14343TIP3   OH264443   1.488   4.645  14.976 -0.0616 -0.3048 -0.2789
14343TIP3    H164444   1.497   4.691  14.893 -2.6150  0.3299 -0.2798
14343TIP3    H264445   1.397   4.657  15.001  0.6119 -0.3707  2.6906
14344TIP3   OH264446   1.360   1.339   5.963  0.3393 -0.5324  0.1941
14344TIP3    H164447   1.438   1.331   6.019  0.8497  0.7173 -0.2961
14344TIP3    H264448   1.293   1.289   6.009  1.0995 -0.6262  1.2558
14345TIP3   OH264449   2.566   5.299  13.859 -0.3618  0.0912  0.0019
14345TIP3    H164450   2.634   5.236  13.884  0.4895  1.7853  2.3074
14345TIP3    H264451   2.602   5.343  13.782 -0.6252 -1.6479 -1.1606
14346TIP3   OH264452   2.490   4.121  12.602 -0.7170 -0.0006 -0.2454
14346TIP3    H164453   2.470   4.063  12.528 -0.1561  1.2272 -1.3800
14346TIP3    H264454   2.416   4.181  12.606 -0.5144  0.2396 -0.0969
14347TIP3   OH264455   3.678   1.976  10.976 -0.1005 -0.9712 -0.1797
14347TIP3    H164456   3.602   1.956  10.922 -0.3702  1.0604 -0.6114
14347TIP3    H264457   3.725   2.043  10.928  0.3784 -0.0657  1.4732
14348TIP3   OH264458   6.122   6.628  16.580 -0.1528  0.9614  0.2744
14348TIP3    H164459   6.175   6.671  16.513 -1.9415  1.2463 -1.0151
14348TIP3    H264460   6.167   6.647  16.662  2.7161 -0.3021 -0.8694
14349TIP3   OH264461   0.198   1.362  15.655  0.1159  0.1201 -0.4316
14349TIP3    H164462   0.154   1.346  15.738  1.5167  0.1911  0.3541
14349TIP3    H264463   0.255   1.438  15.671  2.0088 -1.1493 -0.7793
14350TIP3   OH264464   1.545   5.223   0.543  0.4019  0.2171 -0.4791
14350TIP3    H164465   1.640   5.218   0.546  0.3517 -1.2505  1.8287
14350TIP3    H264466   1.523   5.220   0.450  2.5545 -1.6399 -1.0222
14351TIP3   OH264467   1.879   1.780   5.845  0.2221 -0.4268 -0.1255
14351TIP3    H164468   1.834   1.716   5.901  0.9382 -0.2805  0.6403
14351TIP3    H264469   1.897   1.854   5.903 -0.0602  0.2234 -0.8520
14352TIP3   OH264470   2.471   1.051   2.047 -0.1158  0.0300  0.5342
14352TIP3    H164471   2.544   1.010   2.000 -1.1826 -0.3032 -0.9376
14352TIP3    H264472   2.498   1.142   2.059  0.0412  0.2564 -1.1941
14353TIP3   OH264473   3.431   5.365  16.760 -0.0349 -0.0285  0.8636
14353TIP3    H164474   3.345   5.336  16.730 -1.7510  4.2399  0.8798
14353TIP3    H264475   3.485   5.366  16.681 -0.9403  0.0521  0.2334
14354TIP3   OH264476   3.751   6.309  11.046 -0.2375 -0.8029 -0.2250
14354TIP3    H164477   3.757   6.244  10.976  0.0582 -0.5155 -0.4683
14354TIP3    H264478   3.788   6.388  11.008  0.7616 -0.8801  0.5575
14355TIP3   OH264479   0.132   3.644  12.636  0.4998 -0.1230  0.0846
14355TIP3    H164480   0.182   3.726  12.627  3.4364 -1.7925 -0.1792
14355TIP3    H264481   0.067   3.648  12.566  0.2897  2.1289  0.3286
14356TIP3   OH264482   1.752   3.130  13.707  0.1910  0.5935 -0.1681
14356TIP3    H164483   1.735   3.126  13.613 -0.6197  1.2721 -0.0591
14356TIP3    H264484   1.711   3.211  13.736 -0.4277 -0.0845  0.9433
14357TIP3   OH264485   0.122   2.599   6.692 -0.1799  0.0842  0.0750
14357TIP3    H164486   0.067   2.564   6.762  1.3361 -0.6395  0.9798
14357TIP3    H264487   0.154   2.521   6.646 -0.0032  0.4927 -0.5042
14358TIP3   OH264488   4.346   1.091  17.034 -0.2535  0.0804  0.0584
14358TIP3    H164489   4.427   1.141  17.018 -0.3844  0.6623  1.1424
14358TIP3    H264490   4.352   1.063  17.125 -2.2772  2.0529  0.8804
14359TIP3   OH264491   6.436   5.375  12.260 -0.1246 -0.5502  0.0900
14359TIP3    H164492   6.477   5.389  12.345  0.9770 -0.1419 -0.4850
14359TIP3    H264493   6.389   5.457  12.241  0.2276 -0.3693 -0.0088
14360TIP3   OH264494   6.647   3.400  11.453 -0.4209  0.3924 -0.0143
14360TIP3    H164495   6.565   3.438  11.485 -1.1883 -2.5429  1.8841
14360TIP3    H264496   6.630   3.381  11.361 -2.2579 -0.9757  0.5579
14361TIP3   OH264497   2.896   1.965  16.103 -0.6104  0.0823 -0.4638
14361TIP3    H164498   2.880   1.986  16.195 -0.1741 -0.1437 -0.3326
14361TIP3    H264499   2.937   2.044  16.068  2.4092 -0.9405  0.3861
14362TIP3   OH264500   0.115   4.513   3.820  0.6716  0.8490  0.2150
14362TIP3    H164501   0.164   4.577   3.768  0.2606  0.3229 -0.8675
14362TIP3    H264502   0.023   4.534   3.804  0.5100 -0.3995 -0.7219
14363TIP3   OH264503   5.812   2.951  15.763 -0.2726 -0.0770 -0.6856
14363TIP3    H164504   5.895   2.962  15.716  0.0052 -0.1539 -0.2189
14363TIP3    H264505   5.837   2.943  15.855 -0.8647  0.7482 -0.4398
14364TIP3   OH264506   3.221   1.849  11.444 -0.0112  0.4393  0.6467
14364TIP3    H164507   3.262   1.849  11.357  0.5992  0.4858  0.9333
14364TIP3    H264508   3.273   1.911  11.495 -1.8237  2.3052  0.3784
14365TIP3   OH264509   0.034   4.298   0.081 -0.2987 -0.1519  0.0394
14365TIP3    H164510   0.087   4.221   0.103  1.1076  0.9458  0.6518
14365TIP3    H264511  -0.030   4.304   0.152  1.0603  0.5207  1.2696
14366TIP3   OH264512   0.985   0.325   5.640 -0.2987  0.4384  0.3028
14366TIP3    H164513   1.063   0.373   5.612 -0.4511  0.7943  0.4814
14366TIP3    H264514   0.952   0.375   5.714  1.2969 -1.5919  2.5869
14367TIP3   OH264515   4.103   0.406  11.283 -0.3288  0.6735  0.3639
14367TIP3    H164516   4.129   0.457  11.359  0.6085  3.3600 -1.6226
14367TIP3    H264517   4.075   0.470  11.218 -4.4444 -1.6296 -0.5115
14368TIP3   OH264518   2.991   5.993   5.607  0.3444 -0.3188  0.0770
14368TIP3    H164519   3.034   5.910   5.628  0.3520  0.0529  1.6404
14368TIP3    H264520   3.055   6.040   5.553  0.8128 -0.8388  0.1669
14369TIP3   OH264521   1.152   6.720  17.267  0.0937  0.0493  1.0922
14369TIP3    H164522   1.061   6.694  17.283  0.0735 -1.1816 -0.7233
14369TIP3    H264523   1.198   6.699  17.349 -1.2065  0.6803  2.0307
14370TIP3   OH264524   4.702   1.772  14.589 -0.0869  0.0722 -0.2891
14370TIP3    H164525   4.779   1.783  14.644 -0.5569  0.9485  0.2191
14370TIP3    H264526   4.638   1.729  14.645 -0.2766  0.1841 -0.4193
14371TIP3   OH264527   2.685   3.311  17.088  0.4027 -0.1911  0.1239
14371TIP3    H164528   2.767   3.361  17.097  0.0086  0.4199  0.4200
14371TIP3    H264529   2.699   3.231  17.138  0.5544  0.2541  0.8041
14372TIP3   OH264530   3.905   3.899  16.336  0.1231 -1.2361  0.1827
14372TIP3    H164531   3.946   3.926  16.418  0.0842 -0.0126 -0.1878
14372TIP3    H264532   3.844   3.830  16.362  0.3621 -1.1038  1.1322
14373TIP3   OH264533   1.817   1.734  14.746 -0.1848 -0.2467  0.5450
14373TIP3    H164534   1.819   1.756  14.839  1.7678  1.6949  0.1274
14373TIP3    H264535   1.880   1.662  14.738 -1.9078 -1.8673  0.9794
14374TIP3   OH264536   2.241   6.765  16.111 -0.8602 -0.4250 -0.1324
14374TIP3    H164537   2.205   6.824  16.178  1.7536 -0.2280  1.2275
14374TIP3    H264538   2.210   6.678  16.136 -1.1058 -0.1689  0.4757
14375TIP3   OH264539   1.916   0.626   3.010 -0.1683 -0.1911 -0.2609
14375TIP3    H164540   1.999   0.581   3.028  0.1501  0.5806  0.2496
14375TIP3    H264541   1.861   0.605   3.085  0.2080  0.7763  0.3097
14376TIP3   OH264542   3.900   5.744   3.642 -0.3615  0.5754  0.3403
14376TIP3    H164543   3.958   5.747   3.566 -2.2743 -0.6769 -1.2905
14376TIP3    H264544   3.814   5.765   3.607 -1.3344 -0.1908  2.1457
14377TIP3   OH264545   6.464   4.943   3.341  0.0247 -0.2930  0.2855
14377TIP3    H164546   6.519   5.005   3.294  0.4630 -0.2145  0.8956
14377TIP3    H264547   6.377   4.955   3.303  0.2390  0.2336 -0.0524
14378TIP3   OH264548   3.488   4.688  17.172  0.0906  0.3560  0.0880
14378TIP3    H164549   3.513   4.664  17.261  1.4570 -0.4145 -0.4710
14378TIP3    H264550   3.569   4.679  17.121 -1.0225 -0.9709 -1.5652
14379TIP3   OH264551   2.412   5.994  13.902 -0.0379 -0.2750 -0.0387
14379TIP3    H164552   2.336   5.979  13.845  0.4160 -1.7057 -0.3090
14379TIP3    H264553   2.400   6.083  13.935 -2.0480 -0.6162  0.2593
14380TIP3   OH264554   5.381   0.075   0.207 -0.5952 -0.6852  0.6705
14380TIP3    H164555   5.440   0.001   0.195 -0.5950 -0.8907  1.8170
14380TIP3    H264556   5.299   0.047   0.165 -0.0117 -0.5345 -0.6197
14381TIP3   OH264557   6.018   0.159  15.418  0.1439  0.0483 -0.2136
14381TIP3    H164558   5.997   0.120  15.503  0.4254 -0.9548 -0.5897
14381TIP3    H264559   6.070   0.092  15.374  1.1845  1.1154 -0.6377
14382TIP3   OH264560   1.587   6.323   0.658 -0.7083 -0.4864  0.3696
14382TIP3    H164561   1.492   6.318   0.668 -0.6690 -1.3432  0.4138
14382TIP3    H264562   1.611   6.241   0.613  0.0838 -0.6064  0.9800
14383TIP3   OH264563   3.615   5.462  17.127 -0.3011  0.7408 -0.0360
14383TIP3    H164564   3.566   5.407  17.066  2.1516  0.3719 -1.8668
14383TIP3    H264565   3.585   5.551  17.108 -2.5119  0.3035  1.1906
14384TIP3   OH264566   1.160   1.641   0.069 -0.3133  0.2228 -0.4391
14384TIP3    H164567   1.177   1.584   0.144 -0.3739  0.6823 -0.0667
14384TIP3    H264568   1.161   1.730   0.106  0.8057  0.5467 -1.1765
14385TIP3   OH264569   3.561   1.232   0.524  0.1739 -0.5375  0.2723
14385TIP3    H164570   3.556   1.137   0.512 -0.6993 -0.5433  0.6538
14385TIP3    H264571   3.496   1.267   0.464  0.4272 -0.1771  0.2037
14386TIP3   OH264572   6.745   2.484   6.117 -0.1073  0.0094 -0.6465
14386TIP3    H164573   6.791   2.493   6.201 -0.1456  0.1569 -0.6412
14386TIP3    H264574   6.747   2.572   6.079  0.3059 -0.1471 -1.0037
14387TIP3   OH264575   4.938   2.907   4.982  0.4335  0.3626  0.1893
14387TIP3    H164576   4.918   2.995   4.950  1.8514  0.3719 -0.7648
14387TIP3    H264577   4.852   2.865   4.993 -0.1941  1.2278 -1.1723
14388TIP3   OH264578   3.102   0.622  13.875  0.2198 -0.1281  0.2384
14388TIP3    H164579   3.045   0.645  13.802 -0.2517 -2.8929 -0.3776
14388TIP3    H264580   3.140   0.705  13.903 -3.1478  1.6796 -0.0834
14389TIP3   OH264581   5.203   4.542  11.791 -0.3788 -0.5359  0.1885
14389TIP3    H164582   5.156   4.538  11.708  0.5704  1.6783 -0.5465
14389TIP3    H264583   5.291   4.511  11.770 -0.4858 -1.1840  0.6820
14390TIP3   OH264584   0.347   3.322   1.343  0.0619 -0.1416 -0.3435
14390TIP3    H164585   0.295   3.369   1.408  0.1301  1.3607 -1.3267
14390TIP3    H264586   0.308   3.234   1.341 -0.4759  0.0354  1.0919
14391TIP3   OH264587   6.338   2.250   1.533 -0.0221 -0.1574 -1.1033
14391TIP3    H164588   6.265   2.309   1.549 -0.9688 -1.3333 -1.0007
14391TIP3    H264589   6.413   2.309   1.520 -0.4803  1.0157  1.0949
14392TIP3   OH264590   5.383   1.959  14.448 -0.0342 -0.2459 -0.5929
14392TIP3    H164591   5.463   1.914  14.474  0.7340  1.5498  0.3313
14392TIP3    H264592   5.318   1.932  14.513  0.5870  0.4333  0.3293
14393TIP3   OH264593   6.003   6.082   3.954  0.0359 -0.2767 -0.1141
14393TIP3    H164594   5.946   6.070   4.030 -1.9948  0.4317 -1.4335
14393TIP3    H264595   6.084   6.117   3.990 -0.5665 -0.7204  1.8000
14394TIP3   OH264596   1.487   1.277  17.066  0.8213 -0.4179  0.1507
14394TIP3    H164597   1.491   1.334  16.989  2.9027 -0.0343  0.4709
14394TIP3    H264598   1.403   1.297  17.107 -0.0724 -0.2260 -1.7000
14395TIP3   OH264599   2.700   0.693   4.731  0.3921  0.3429  0.2813
14395TIP3    H164600   2.674   0.783   4.745 -0.5433  0.4584 -1.7762
14395TIP3    H264601   2.712   0.686   4.636  0.3943 -1.6978  0.3791
14396TIP3   OH264602   4.249   6.704  10.949  0.8114  0.2069  0.2783
14396TIP3    H164603   4.284   6.781  10.993 -0.1882  0.5655  0.4841
14396TIP3    H264604   4.188   6.666  11.012 -1.3232  1.2274 -1.0340
14397TIP3   OH264605   5.324   3.916  11.790  0.3521 -0.3672  0.2471
14397TIP3    H164606   5.351   3.825  11.799  0.2305 -0.3776  0.5139
14397TIP3    H264607   5.407   3.965  11.787  0.4130 -0.4441  0.5858
14398TIP3   OH264608   4.155   4.859   2.589  0.1786 -0.3744 -0.0495
14398TIP3    H164609   4.219   4.851   2.518 -0.3817 -1.3575 -0.4539
14398TIP3    H264610   4.207   4.892   2.663  0.6483  1.2881 -1.0594
14399TIP3   OH264611   0.562   4.370  10.707  0.1420  0.3383  0.2912
14399TIP3    H164612   0.507   4.447  10.723 -0.1283  0.2144 -0.0237
14399TIP3    H264613   0.502   4.296  10.711  0.0787  0.2847 -1.0942
14400TIP3   OH264614   3.908   1.411  13.482 -0.1836  0.4351  0.3635
14400TIP3    H164615   3.908   1.470  13.558  0.9742  0.8462  0.0596
14400TIP3    H264616   3.839   1.444  13.425 -0.0621  1.0195  0.5556
14401TIP3   OH264617   4.799   5.787   3.233  0.3108  0.0153 -0.1247
14401TIP3    H164618   4.741   5.834   3.293 -0.2154  0.7525 -1.1598
14401TIP3    H264619   4.775   5.821   3.146  1.1526 -0.8957 -0.7323
14402TIP3   OH264620   1.753   3.890   4.053  0.0698 -0.3247  0.0334
14402TIP3    H164621   1.805   3.831   4.108  3.7452  3.3389  0.9414
14402TIP3    H264622   1.697   3.937   4.116  0.5084  0.3128 -0.0519
14403TIP3   OH264623   4.099   3.044   4.525 -0.6257  0.2934 -0.4095
14403TIP3    H164624   4.117   2.983   4.596 -2.2384  1.1295  0.7763
14403TIP3    H264625   4.169   3.109   4.531  0.1501 -0.5017 -0.6253
14404TIP3   OH264626   2.955   3.987  16.574 -0.2882  0.0187 -0.6254
14404TIP3    H164627   3.007   3.993  16.494  0.3699 -0.6032 -0.2580
14404TIP3    H264628   2.870   4.024  16.551 -0.4206 -0.9982 -1.8930
14405TIP3   OH264629   5.043   6.688   5.438 -0.1861 -0.2591 -0.6398
14405TIP3    H164630   5.137   6.702   5.450 -0.2535 -0.5269  0.3178
14405TIP3    H264631   5.029   6.699   5.344  0.4399  1.8424 -0.5337
14406TIP3   OH264632   6.477   6.682  16.990 -0.0565 -0.3548 -0.2435
14406TIP3    H164633   6.445   6.769  16.966  1.9157  0.3078 -0.6402
14406TIP3    H264634   6.499   6.641  16.907  1.2454 -0.3057  0.0538
14407TIP3   OH264635   2.509   2.716   1.694  0.2153 -0.2137  0.3905
14407TIP3    H164636   2.420   2.703   1.726  0.0069  0.2910  0.0269
14407TIP3    H264637   2.519   2.650   1.625  0.2112 -0.4367  0.6023
14408TIP3   OH264638   3.916   0.668   4.649 -0.6109  0.2698 -0.0457
14408TIP3    H164639   3.844   0.732   4.655 -0.7570  0.2392 -1.3101
14408TIP3    H264640   3.945   0.657   4.740 -0.7332  1.9599  0.2330
14409TIP3   OH264641   0.131   5.549  11.766 -0.1974  0.0302 -0.3059
14409TIP3    H164642   0.123   5.594  11.851 -0.8188  0.9215 -0.8135
14409TIP3    H264643   0.224   5.553  11.745 -0.0854  0.0721  0.1920
14410TIP3   OH264644   1.911   5.345   3.182 -0.3886 -0.2847  0.1592
14410TIP3    H164645   1.873   5.419   3.231  0.6396  0.7937 -0.6270
14410TIP3    H264646   1.945   5.384   3.102  0.5388 -1.5647 -0.1002
14411TIP3   OH264647   1.416   4.110  14.967 -0.1690  0.1186 -0.1532
14411TIP3    H164648   1.338   4.156  14.936  1.5762  2.1346 -1.8578
14411TIP3    H264649   1.428   4.039  14.904 -1.3710 -1.1267  0.9535
14412TIP3   OH264650   3.974   5.723   6.316 -0.1342  0.2586 -0.5227
14412TIP3    H164651   3.898   5.755   6.364 -1.3752 -1.3621 -1.2887
14412TIP3    H264652   3.999   5.643   6.362  0.8097  0.5253 -0.5692
14413TIP3   OH264653   5.849   3.613   3.166  0.2320 -0.1328  0.0198
14413TIP3    H164654   5.920   3.630   3.228  0.5526 -0.2687 -0.3066
14413TIP3    H264655   5.770   3.637   3.214  0.4521 -0.4643  0.5681
14414TIP3   OH264656   6.372   2.471  11.117  0.2390 -0.5439  0.1569
14414TIP3    H164657   6.317   2.442  11.044  1.2322 -1.9353 -0.0730
14414TIP3    H264658   6.372   2.567  11.111 -1.9589 -0.4987  0.0477
14415TIP3   OH264659   0.160   0.602  14.677  0.4251  0.3837  0.4719
14415TIP3    H164660   0.252   0.610  14.653  0.9361 -1.9516  1.4197
14415TIP3    H264661   0.132   0.519  14.640 -1.0678  0.6610  0.9037
14416TIP3   OH264662   4.431   3.226  16.949 -0.0595  0.8707  0.2554
14416TIP3    H164663   4.361   3.280  16.912  0.3164  0.5644 -0.9416
14416TIP3    H264664   4.387   3.172  17.015 -0.6086  1.9390  0.7884
14417TIP3   OH264665   3.652   3.874  14.971 -0.3797 -0.1747  0.8575
14417TIP3    H164666   3.561   3.900  14.985 -1.2331  0.2722 -3.8604
14417TIP3    H264667   3.647   3.779  14.958  0.1955 -0.4377  2.3901
14418TIP3   OH264668   6.379   1.461  16.941 -0.2805  0.4271  0.8569
14418TIP3    H164669   6.469   1.431  16.926 -0.0665  2.1284 -1.9383
14418TIP3    H264670   6.386   1.516  17.019  0.6951 -0.8921  1.7613
14419TIP3   OH264671   2.599   5.180   3.485 -0.0546 -0.2468  0.1742
14419TIP3    H164672   2.581   5.092   3.451 -1.6707  0.3956 -0.7621
14419TIP3    H264673   2.676   5.209   3.435 -0.9350 -0.2548 -1.2483
14420TIP3   OH264674   1.626   0.685  11.767 -0.0823 -1.0988  0.2078
14420TIP3    H164675   1.557   0.742  11.734 -0.7711 -0.8565  1.9671
14420TIP3    H264676   1.661   0.731  11.842  0.7099 -2.0959  0.4698
14421TIP3   OH264677   0.945   1.961   1.207 -0.1054 -0.0421  0.3576
14421TIP3    H164678   0.945   1.994   1.297  0.2959 -0.2851  0.4478
14421TIP3    H264679   1.031   1.919   1.196 -0.2655 -0.2757 -0.0427
14422TIP3   OH264680   1.481   5.245  14.450  0.5494  0.0002  0.4511
14422TIP3    H164681   1.491   5.295  14.369  1.8580  0.6360  0.9732
14422TIP3    H264682   1.436   5.305  14.510 -1.9451 -1.0377 -0.2601
14423TIP3   OH264683   5.103   3.761  13.865  0.0051  0.4296  0.5311
14423TIP3    H164684   5.171   3.825  13.846  0.7813 -0.6723 -0.5263
14423TIP3    H264685   5.111   3.745  13.959  0.8179  0.7508  0.5245
14424TIP3   OH264686   0.151   3.453  11.877 -0.2996 -0.8085  0.0754
14424TIP3    H164687   0.135   3.359  11.879 -0.5202 -0.7669  0.8560
14424TIP3    H264688   0.122   3.481  11.790 -0.3910 -1.4319 -0.0981
14425TIP3   OH264689   4.719   3.025   1.361 -0.2696  0.6429  0.5113
14425TIP3    H164690   4.624   3.016   1.350 -0.3644 -0.4434  1.9298
14425TIP3    H264691   4.731   3.111   1.402 -0.7078  0.5443  0.8527
14426TIP3   OH264692   3.437   6.088  15.962  0.0932 -0.0885 -0.0165
14426TIP3    H164693   3.481   6.171  15.982 -0.2473 -0.0003  0.3661
14426TIP3    H264694   3.466   6.028  16.030 -0.2717 -0.0654  0.1625
14427TIP3   OH264695   4.460   5.876  16.549  0.3059  0.1386  0.4705
14427TIP3    H164696   4.408   5.797  16.563 -0.7564  0.2558 -2.2518
14427TIP3    H264697   4.551   5.847  16.559 -0.0979 -1.2690  0.2427
14428TIP3   OH264698   0.057   1.859   4.964 -0.3237 -0.1122 -0.1437
14428TIP3    H164699   0.036   1.766   4.975 -0.7723  0.1380  1.3212
14428TIP3    H264700  -0.006   1.890   4.899  0.7161 -1.1060 -1.7096
14429TIP3   OH264701   4.859   0.064   2.929 -0.0858 -0.0849  0.2542
14429TIP3    H164702   4.949   0.083   2.956 -0.3230 -0.1260  1.0966
14429TIP3    H264703   4.815   0.149   2.929  0.3767  0.2200 -1.9014
14430TIP3   OH264704   6.780   3.212  11.863  0.0301 -0.0373  0.8104
14430TIP3    H164705   6.767   3.118  11.852 -1.1228 -0.0027  1.7388
14430TIP3    H264706   6.730   3.235  11.941  0.6453  1.2762  0.8453
14431TIP3   OH264707   1.629   4.335   1.959  0.3324 -0.5204 -0.0948
14431TIP3    H164708   1.658   4.426   1.957  0.1878 -0.4664  0.1569
14431TIP3    H264709   1.709   4.284   1.972  0.1917 -0.2763  2.1505
14432TIP3   OH264710   0.479   1.069   3.609  0.1117 -0.6949 -0.3814
14432TIP3    H164711   0.384   1.074   3.599  0.1859 -0.5033 -0.9847
14432TIP3    H264712   0.514   1.120   3.536  0.7099 -2.1800 -1.1672
14433TIP3   OH264713   6.606   1.471   3.170  0.3916 -0.1428 -0.2000
14433TIP3    H164714   6.620   1.391   3.120  2.8717  1.3843 -2.1998
14433TIP3    H264715   6.513   1.491   3.158  0.0720 -1.8704 -0.9512
14434TIP3   OH264716   2.513   4.609  13.566  0.0320  0.7422 -0.0515
14434TIP3    H164717   2.505   4.519  13.596 -4.1070  1.4551  1.5726
14434TIP3    H264718   2.541   4.658  13.644  2.6633  0.9492 -1.0199
14435TIP3   OH264719   2.863   2.712   5.994  1.4425 -0.2223 -0.3333
14435TIP3    H164720   2.895   2.725   5.904  2.3822  1.0095  0.1510
14435TIP3    H264721   2.936   2.667   6.038  1.1912 -0.3603 -0.0576
14436TIP3   OH264722   3.577   2.040   2.604 -0.3991 -0.1359 -0.1565
14436TIP3    H164723   3.583   2.106   2.534 -0.2691  2.3936  2.0661
14436TIP3    H264724   3.484   2.018   2.609 -0.5823  0.5656 -0.3646
14437TIP3   OH264725   5.648   3.830   0.830 -0.6520 -0.2762  0.4623
14437TIP3    H164726   5.597   3.911   0.830  0.1106  0.2198  0.0869
14437TIP3    H264727   5.739   3.859   0.839 -0.4464 -1.1626  1.4116
14438TIP3   OH264728   1.430   4.883   5.695  0.3444  0.2378  0.1737
14438TIP3    H164729   1.438   4.851   5.605 -2.0988 -0.2526  0.0517
14438TIP3    H264730   1.427   4.978   5.687 -0.4726  0.1811 -0.3666
14439TIP3   OH264731   2.754   4.163   1.915  0.4799 -0.0546 -0.4117
14439TIP3    H164732   2.689   4.192   1.851  0.6763  1.2119 -0.0575
14439TIP3    H264733   2.741   4.068   1.921 -1.0011  0.1117 -0.7070
14440TIP3   OH264734   3.680   6.304  13.234 -0.4631  0.5091  0.0821
14440TIP3    H164735   3.713   6.236  13.174 -0.2569  0.2938  0.4359
14440TIP3    H264736   3.744   6.375  13.227  1.5169 -0.8454  2.5804
14441TIP3   OH264737   1.802   5.289  16.128  0.4727 -0.1809  0.2617
14441TIP3    H164738   1.896   5.278  16.110  0.4895  0.9951 -0.4785
14441TIP3    H264739   1.798   5.343  16.206  0.3994 -0.7172  0.6362
14442TIP3   OH264740   6.059   3.211  11.730 -0.4414 -0.7177  0.0919
14442TIP3    H164741   6.052   3.289  11.785  1.1745  1.0326 -1.9952
14442TIP3    H264742   6.119   3.153  11.778 -0.9196 -0.2724  1.2426
14443TIP3   OH264743   0.914   2.949  13.956 -0.2124  0.7923 -0.0384
14443TIP3    H164744   0.833   2.951  14.008 -1.2511 -2.7090 -1.2463
14443TIP3    H264745   0.886   2.971  13.867  0.4392  0.9629 -0.2064
14444TIP3   OH264746   6.165   1.516   4.823  0.6943 -0.3497 -0.3137
14444TIP3    H164747   6.251   1.554   4.810 -0.8349  4.6217  1.7854
14444TIP3    H264748   6.119   1.531   4.740  0.3386  2.1494  0.2548
14445TIP3   OH264749   6.740   4.442  17.012 -0.2715  0.6774  0.2726
14445TIP3    H164750   6.701   4.366  16.969 -1.6997  1.4580  0.1271
14445TIP3    H264751   6.785   4.489  16.942 -1.5933  1.3221 -0.1692
14446TIP3   OH264752   6.164   2.267  12.296  0.6399  0.3818  0.5252
14446TIP3    H164753   6.068   2.264  12.296  0.5924 -1.2475  2.7218
14446TIP3    H264754   6.190   2.176  12.283  1.8366  0.6260  1.0585
14447TIP3   OH264755   1.730   4.798   0.652  0.3994 -0.1218  0.3485
14447TIP3    H164756   1.736   4.741   0.575  0.7532 -0.9365  0.9647
14447TIP3    H264757   1.763   4.744   0.724  0.1177  0.6484  1.0645
14448TIP3   OH264758   4.032   1.496   3.895  0.1163 -0.0647  0.6436
14448TIP3    H164759   3.956   1.512   3.950 -0.8528  0.3820 -0.7924
14448TIP3    H264760   4.068   1.413   3.928 -1.6574 -0.8866  0.6221
14449TIP3   OH264761   2.734   0.108   4.391  0.4920 -0.2177 -0.3617
14449TIP3    H164762   2.830   0.110   4.389  0.5170 -1.3979 -0.8816
14449TIP3    H264763   2.711   0.021   4.359 -0.7657  0.1197 -0.4156
14450TIP3   OH264764   5.180   6.423  16.785  0.0730  0.3817  0.6817
14450TIP3    H164765   5.256   6.373  16.814  1.4269  2.0208  0.1208
14450TIP3    H264766   5.217   6.493  16.732 -2.0800 -1.1448 -3.2211
14451TIP3   OH264767   4.204   3.683   1.882  0.2821 -0.2286 -0.1589
14451TIP3    H164768   4.231   3.596   1.912 -0.5873 -0.8405 -1.1057
14451TIP3    H264769   4.190   3.673   1.788  1.7570  1.3567 -0.6025
14452TIP3   OH264770   4.426   5.555   2.010  0.1513 -0.4278 -0.5188
14452TIP3    H164771   4.419   5.470   2.054  1.0524 -0.7154 -0.9269
14452TIP3    H264772   4.520   5.573   2.005  0.1689 -0.9025 -3.2812
14453TIP3   OH264773   1.820   2.598   5.791  0.0442  0.2655  0.0585
14453TIP3    H164774   1.870   2.675   5.819  0.6951  0.2549 -0.9934
14453TIP3    H264775   1.862   2.572   5.709 -0.9154 -0.5068 -0.1989
14454TIP3   OH264776   1.223   2.876  14.838  0.5930  0.0690 -0.6196
14454TIP3    H164777   1.303   2.893  14.788  1.3325  0.5456  0.6653
14454TIP3    H264778   1.159   2.938  14.803  1.6225  1.6594  0.2051
14455TIP3   OH264779   6.249   1.346   0.008  0.3166  0.5200 -0.1014
14455TIP3    H164780   6.329   1.389   0.040  0.5876  1.9246 -2.3870
14455TIP3    H264781   6.205   1.414  -0.043 -1.2062 -0.8776 -0.7298
14456TIP3   OH264782   1.815   5.972   1.120 -0.2007  0.0161 -0.6701
14456TIP3    H164783   1.859   5.993   1.203  0.6683  0.0785 -1.1432
14456TIP3    H264784   1.813   6.054   1.072  1.3260 -0.4754 -1.6461
14457TIP3   OH264785   5.794   4.477  15.012  0.8390 -0.2915  0.4395
14457TIP3    H164786   5.776   4.556  14.961  2.3271 -1.3589 -1.8822
14457TIP3    H264787   5.873   4.439  14.973  0.3580 -2.7963  1.6433
14458TIP3   OH264788   6.145   0.666  14.918  0.1631 -0.0788 -0.2979
14458TIP3    H164789   6.072   0.645  14.859  0.3680 -1.1340 -0.1870
14458TIP3    H264790   6.140   0.761  14.928  0.3498  0.1828 -2.3220
14459TIP3   OH264791   5.832   2.878   3.576 -0.1517 -0.4004 -0.0159
14459TIP3    H164792   5.740   2.852   3.567 -0.5017  0.8117 -0.1427
14459TIP3    H264793   5.873   2.853   3.494 -1.3463  2.7421 -1.7711
14460TIP3   OH264794   3.777   0.671   3.717 -0.3245 -0.2293 -0.2807
14460TIP3    H164795   3.873   0.668   3.712 -0.3793 -1.4358 -0.8620
14460TIP3    H264796   3.752   0.741   3.656  0.2539  1.6228  1.4658
14461TIP3   OH264797   2.761   1.240   0.227  0.1974 -0.4281  0.3709
14461TIP3    H164798   2.691   1.176   0.238  0.9308 -1.1375  1.0036
14461TIP3    H264799   2.782   1.270   0.315  0.5105 -0.0161  0.1655
14462TIP3   OH264800   4.627   1.762   3.991 -0.1172 -0.1351 -0.3158
14462TIP3    H164801   4.555   1.711   3.953 -0.1687 -0.2367 -0.0786
14462TIP3    H264802   4.677   1.792   3.915  0.6346 -1.5741 -0.4334
14463TIP3   OH264803   6.757   5.083  14.458 -0.0866  0.4179  0.1235
14463TIP3    H164804   6.840   5.127  14.476  0.6138 -0.5628 -0.5715
14463TIP3    H264805   6.690   5.148  14.478  0.8803  1.5425 -0.1932
14464TIP3   OH264806   6.352   4.620   3.724  0.0563 -0.2731  0.5432
14464TIP3    H164807   6.283   4.612   3.790  1.0703 -0.2769  1.6378
14464TIP3    H264808   6.324   4.694   3.669 -1.5056 -1.1744  0.0737
14465TIP3   OH264809   5.379   5.514  11.345 -0.6307  0.1767  0.1772
14465TIP3    H164810   5.391   5.545  11.255 -1.4171 -1.6245 -0.6109
14465TIP3    H264811   5.465   5.520  11.385  0.1631 -0.7714 -1.3160
14466TIP3   OH264812   2.006   4.910  12.271  0.1916 -0.6141  0.0719
14466TIP3    H164813   1.959   4.851  12.212  1.0082 -0.0150 -1.2355
14466TIP3    H264814   2.059   4.852  12.326  0.1049 -1.1476 -0.4015
14467TIP3   OH264815   1.876   4.258  16.990 -0.1692 -0.1207  0.1387
14467TIP3    H164816   1.883   4.169  16.955 -2.4862 -0.2123 -0.2674
14467TIP3    H264817   1.878   4.246  17.085  0.4274 -0.5133  0.0802
14468TIP3   OH264818   2.144   5.890   3.165 -0.0808  0.8482 -0.5306
14468TIP3    H164819   2.239   5.906   3.166  0.3855 -1.5427  1.0949
14468TIP3    H264820   2.116   5.906   3.255 -1.4715  2.4688 -1.1990
14469TIP3   OH264821   1.128   6.760  13.825 -0.7449 -0.6668  0.1314
14469TIP3    H164822   1.103   6.709  13.748 -0.8284 -0.3972 -0.0216
14469TIP3    H264823   1.166   6.841  13.789  1.9117 -1.7301  0.2885
14470TIP3   OH264824   5.618   5.276   1.681 -0.3961 -0.6712 -0.3518
14470TIP3    H164825   5.647   5.366   1.692  1.9617 -1.3198 -0.6604
14470TIP3    H264826   5.525   5.277   1.703 -0.3677  1.7727 -0.1475
14471TIP3   OH264827   5.929   1.653  11.476 -0.1036  0.0315 -0.1350
14471TIP3    H164828   5.969   1.593  11.539 -0.5171 -2.4571 -2.0860
14471TIP3    H264829   5.844   1.615  11.457 -0.6411  1.5857 -1.0411
14472TIP3   OH264830   1.129   6.000   1.786  0.1695  0.0656  0.3220
14472TIP3    H164831   1.034   6.012   1.783  0.0828 -0.7146 -0.1665
14472TIP3    H264832   1.147   5.973   1.876 -0.0688  0.2149  0.4162
14473TIP3   OH264833   0.423   3.609  13.831 -0.0500 -0.0700  0.2686
14473TIP3    H164834   0.414   3.513  13.835 -0.9871  0.0365  1.2905
14473TIP3    H264835   0.469   3.632  13.912  0.0255  0.3656  0.1030
14474TIP3   OH264836   5.199   3.575   2.008  0.0152 -0.5158 -0.3455
14474TIP3    H164837   5.148   3.656   2.000 -1.5590 -1.3431  0.7971
14474TIP3    H264838   5.288   3.604   2.023 -0.9003  1.0992  2.7292
14475TIP3   OH264839   2.240   5.426   0.094 -0.0074 -0.6826 -0.1029
14475TIP3    H164840   2.211   5.469   0.014  2.1967 -0.6591 -0.9637
14475TIP3    H264841   2.313   5.480   0.125  0.5022 -1.8210  0.7756
14476TIP3   OH264842   3.702   2.676  15.276  0.5356 -0.1219  0.3150
14476TIP3    H164843   3.742   2.676  15.364 -0.2539 -1.5022  0.7018
14476TIP3    H264844   3.612   2.704  15.291  0.6854  0.6757 -0.2270
14477TIP3   OH264845   5.618   5.876  16.745 -0.4322  0.0559  0.1115
14477TIP3    H164846   5.564   5.904  16.671  0.2860  1.5538  0.1069
14477TIP3    H264847   5.669   5.802  16.712 -2.6099 -1.5869  0.1975
14478TIP3   OH264848   3.747   2.757  16.064  0.6745 -0.0054 -0.2537
14478TIP3    H164849   3.658   2.756  16.099  0.7734 -0.8397 -0.0081
14478TIP3    H264850   3.753   2.840  16.016 -0.4784 -0.2764 -0.9005
14479TIP3   OH264851   1.828   4.469  14.411  0.3319  0.4349 -0.1187
14479TIP3    H164852   1.905   4.486  14.358  1.3287 -0.9471  0.8144
14479TIP3    H264853   1.860   4.416  14.484 -1.7396 -1.5157 -0.5083
14480TIP3   OH264854   2.824   2.565  11.493  0.0880  0.1712 -0.5884
14480TIP3    H164855   2.867   2.638  11.538 -1.1527  0.5641 -0.0144
14480TIP3    H264856   2.893   2.499  11.484  0.8947  0.9106  0.0202
14481TIP3   OH264857   0.647   3.402   2.260 -0.0568  0.3549 -0.2439
14481TIP3    H164858   0.639   3.449   2.343 -1.5274  1.5359 -0.9988
14481TIP3    H264859   0.734   3.426   2.228  0.9509 -0.9375  1.3892
14482TIP3   OH264860   1.663   0.552  16.682 -0.3250  0.3943 -0.2474
14482TIP3    H164861   1.576   0.580  16.713 -0.3214 -0.3787  0.5038
14482TIP3    H264862   1.644   0.490  16.612 -0.4176 -0.5488  0.5894
14483TIP3   OH264863   5.561   1.001  10.770  0.2341  0.1866  0.5332
14483TIP3    H164864   5.499   0.953  10.715  0.4805  0.2070  0.2310
14483TIP3    H264865   5.644   0.995  10.723  0.2072  1.1496  0.3505
14484TIP3   OH264866   1.131   0.019  16.487  0.3945 -0.0613  0.0517
14484TIP3    H164867   1.072   0.001  16.413 -0.3628  1.5808  0.2081
14484TIP3    H264868   1.096  -0.033  16.559 -0.7034  0.6480  0.0516
14485TIP3   OH264869   5.957   5.803   1.148  0.3325  0.8667  0.5964
14485TIP3    H164870   6.019   5.767   1.084  0.1024  1.4717  0.0064
14485TIP3    H264871   6.012   5.844   1.214  0.5881 -0.3338  1.1484
14486TIP3   OH264872   5.710   1.684  10.511 -0.3546  0.5189  0.0795
14486TIP3    H164873   5.746   1.621  10.574 -3.4474  1.2002  2.7396
14486TIP3    H264874   5.687   1.631  10.435  1.8406 -0.6110  0.0999
14487TIP3   OH264875   0.525   0.566  10.608  0.1068  0.4234  0.0800
14487TIP3    H164876   0.473   0.485  10.606 -1.0929  1.1536 -2.6586
14487TIP3    H264877   0.613   0.536  10.632  0.0092 -1.9740 -2.0443
14488TIP3   OH264878   4.425   2.160   1.204  0.2483 -0.0069 -0.1831
14488TIP3    H164879   4.450   2.068   1.209  0.1663  0.0235  1.0492
14488TIP3    H264880   4.432   2.192   1.294 -0.9321  0.8705 -0.3724
14489TIP3   OH264881   4.691   4.528   1.163 -0.1477 -0.2578 -0.1986
14489TIP3    H164882   4.711   4.481   1.244  0.4081 -1.6724 -1.1179
14489TIP3    H264883   4.719   4.618   1.179  2.7323 -1.1417  0.1704
14490TIP3   OH264884   0.540   2.244  16.278  0.1223  0.3279  0.9739
14490TIP3    H164885   0.629   2.268  16.253 -0.2714  1.3798  0.5363
14490TIP3    H264886   0.524   2.291  16.360 -0.4069  1.0100  0.4836
14491TIP3   OH264887   2.549   2.995   1.646  0.3679  0.2900 -0.7510
14491TIP3    H164888   2.546   2.911   1.691 -0.0487  0.5807 -0.2250
14491TIP3    H264889   2.515   2.977   1.558 -3.4294  0.6169  0.4918
14492TIP3   OH264890   4.320   3.364   6.166 -0.3617  0.2185  0.0465
14492TIP3    H164891   4.276   3.371   6.082  0.1784 -2.0665 -0.4994
14492TIP3    H264892   4.373   3.444   6.173 -0.8455  0.6981 -1.5202
14493TIP3   OH264893   4.590   4.258   2.621  0.6735 -0.5990 -0.4339
14493TIP3    H164894   4.606   4.304   2.703 -1.9100  1.8551 -1.1738
14493TIP3    H264895   4.665   4.279   2.566 -0.1092  2.4060 -0.5230
14494TIP3   OH264896   1.238   0.657  17.108 -0.5914  0.1883 -0.0726
14494TIP3    H164897   1.210   0.617  17.190  0.6548  1.4660  1.0339
14494TIP3    H264898   1.195   0.743  17.106 -0.0742  0.4472 -0.4059
14495TIP3   OH264899   5.600   0.156  13.295 -0.3168  0.0763  0.3407
14495TIP3    H164900   5.678   0.138  13.243 -0.2464  0.3335  0.3560
14495TIP3    H264901   5.633   0.193  13.377 -0.3743 -1.2429  0.9852
14496TIP3   OH264902   3.583   3.719   3.520 -0.2314  0.2273 -0.7461
14496TIP3    H164903   3.585   3.780   3.594 -1.7385 -1.7404  1.0210
14496TIP3    H264904   3.501   3.739   3.475 -0.4062 -0.0594 -0.5546
14497TIP3   OH264905   1.708   0.834  10.691  0.3357  0.1029 -0.3744
14497TIP3    H164906   1.781   0.862  10.746  1.6743  1.2179 -2.5939
14497TIP3    H264907   1.749   0.805  10.610 -1.6956  1.0096 -1.7992
14498TIP3   OH264908   0.741   0.565   4.353  0.3683  0.0412 -0.8015
14498TIP3    H164909   0.822   0.556   4.403  0.4093  0.8922 -0.7087
14498TIP3    H264910   0.762   0.629   4.285 -1.2442  3.1624  1.4294
14499TIP3   OH264911   3.501   1.101   4.792 -0.2138  0.3191  0.2848
14499TIP3    H164912   3.589   1.138   4.781 -0.7607  1.6961  0.2805
14499TIP3    H264913   3.487   1.049   4.713  0.4197  0.4649  0.0647
14500TIP3   OH264914   2.971   1.917   2.564 -0.0401 -0.3215 -0.4569
14500TIP3    H164915   2.977   1.949   2.654  0.5661 -1.4797 -0.0624
14500TIP3    H264916   2.887   1.871   2.561  0.0635 -0.5191 -0.3904
14501TIP3   OH264917   4.963   2.867  16.111  0.1066 -0.1084 -0.7929
14501TIP3    H164918   5.059   2.875  16.108  0.0496  0.3053 -1.8542
14501TIP3    H264919   4.947   2.784  16.156  0.9621 -0.1241 -0.5032
14502TIP3   OH264920   6.244   4.792  13.973 -0.3464  0.0749 -0.2011
14502TIP3    H164921   6.150   4.784  13.960 -0.5918  0.5391  1.1126
14502TIP3    H264922   6.283   4.741  13.902 -1.6024 -1.1081 -0.0669
14503TIP3   OH264923   4.877   6.270   3.906  1.2754  0.3390 -0.1543
14503TIP3    H164924   4.945   6.268   3.973 -1.0922  0.2365  2.4314
14503TIP3    H264925   4.918   6.315   3.832  4.4412 -0.6877  0.8006
14504TIP3   OH264926   1.126   6.727   1.224  0.1008 -0.3644 -0.3350
14504TIP3    H164927   1.183   6.781   1.169 -0.5589  1.0384  0.3191
14504TIP3    H264928   1.124   6.772   1.309 -1.3474 -0.8054 -0.1043
14505TIP3   OH264929   6.265   1.933  13.768  0.5539  0.5996 -0.2664
14505TIP3    H164930   6.277   1.988  13.845  0.4016  1.7804 -1.0739
14505TIP3    H264931   6.349   1.886  13.759  0.5081  0.2993  0.7074
14506TIP3   OH264932   1.715   5.454  15.059 -0.1523 -0.2337 -0.0340
14506TIP3    H164933   1.675   5.452  14.972 -0.2005 -1.3451  0.0051
14506TIP3    H264934   1.809   5.442  15.042 -0.1081  0.0187  0.0333
14507TIP3   OH264935   1.172   3.043   2.153  0.3147 -0.2524 -0.0293
14507TIP3    H164936   1.086   3.086   2.150  0.0605 -0.6185  1.2985
14507TIP3    H264937   1.152   2.950   2.137  0.1265 -0.7014  2.3835
14508TIP3   OH264938   2.188   3.223  14.753 -0.1266  0.5257 -0.0021
14508TIP3    H164939   2.128   3.181  14.815 -1.5383  0.1602 -1.5223
14508TIP3    H264940   2.269   3.174  14.760 -0.5442 -0.0560  0.9272
14509TIP3   OH264941   3.986   4.772   1.788 -0.0266 -0.2671 -0.5752
14509TIP3    H164942   3.941   4.691   1.812 -0.7033  0.4944  0.8446
14509TIP3    H264943   4.073   4.764   1.827 -0.1172 -0.2811 -0.3753
14510TIP3   OH264944   3.953   5.360  12.356  0.1016  0.0351 -0.5054
14510TIP3    H164945   4.023   5.308  12.316  0.5643 -0.3990  0.7943
14510TIP3    H264946   3.984   5.376  12.445 -0.4907  1.6981 -0.5638
14511TIP3   OH264947   0.910   6.553   5.446  0.0422  0.6802 -0.1062
14511TIP3    H164948   0.946   6.622   5.391 -0.2799  0.5770 -0.4476
14511TIP3    H264949   0.891   6.481   5.385 -1.9068  1.1804 -0.1375
14512TIP3   OH264950   5.413   5.016   4.739 -0.0540 -0.3103  0.2309
14512TIP3    H164951   5.418   5.083   4.808  0.9110 -0.3831  0.2450
14512TIP3    H264952   5.415   4.933   4.787 -0.5919 -0.3615  0.1739
14513TIP3   OH264953   1.943   4.070  14.720  0.2732 -0.2575 -0.3041
14513TIP3    H164954   1.867   4.127  14.711 -0.4121 -1.1536 -0.2987
14513TIP3    H264955   1.917   3.988  14.679  1.2846 -0.5327 -0.4111
14514TIP3   OH264956   1.504   1.109   5.541  0.5951 -0.7591 -0.5728
14514TIP3    H164957   1.573   1.106   5.475  0.6299  2.8388 -0.8932
14514TIP3    H264958   1.484   1.202   5.551 -1.4890 -1.3696  2.3784
14515TIP3   OH264959   5.543   0.637   0.158  0.3429  0.0245  0.4660
14515TIP3    H164960   5.615   0.691   0.126 -0.4016  0.8096  0.0868
14515TIP3    H264961   5.526   0.575   0.087 -2.0577  2.4715 -1.3422
14516TIP3   OH264962   5.215   0.462   0.478  0.5843 -0.0041 -0.1099
14516TIP3    H164963   5.197   0.442   0.386  0.6542 -0.2125 -0.0778
14516TIP3    H264964   5.309   0.446   0.488  0.7584  0.8807 -0.2255
14517TIP3   OH264965   0.094   1.658  10.831 -0.2653  0.1195  0.3923
14517TIP3    H164966   0.029   1.699  10.774 -0.0520  0.2702  0.2520
14517TIP3    H264967   0.177   1.670  10.784  0.0057  0.8251  1.0410
14518TIP3   OH264968   6.729   3.688   2.213  0.0234  0.1683  0.1869
14518TIP3    H164969   6.640   3.655   2.228 -0.5532  1.5455 -0.0715
14518TIP3    H264970   6.731   3.773   2.257 -0.1472  2.0790 -3.1712
14519TIP3   OH264971   5.020   0.900  12.386 -0.3267  0.3687 -0.0167
14519TIP3    H164972   4.990   0.985  12.353 -0.4703  0.3904  0.1677
14519TIP3    H264973   5.002   0.839  12.315 -0.5990  0.4223  0.0026
14520TIP3   OH264974   6.619   6.072   2.889 -0.2280  0.2514 -0.5780
14520TIP3    H164975   6.635   5.988   2.933 -1.7683  0.4953  0.5584
14520TIP3    H264976   6.664   6.137   2.944 -0.5632  0.3474 -0.4105
14521TIP3   OH264977   2.178   4.324   5.997 -0.4746 -0.3350  0.1405
14521TIP3    H164978   2.238   4.250   6.004  1.3811  1.2514  2.7131
14521TIP3    H264979   2.159   4.347   6.088 -0.9464  2.3424 -0.5741
14522TIP3   OH264980   2.987   4.128   6.563 -0.1418  0.2593 -0.1322
14522TIP3    H164981   2.901   4.098   6.592 -0.4279  1.2936  0.1351
14522TIP3    H264982   3.025   4.052   6.519 -1.7759  0.1857 -1.5482
14523TIP3   OH264983   2.401   6.377  16.633  0.1039 -0.5206  0.3395
14523TIP3    H164984   2.399   6.471  16.616  1.9000 -0.3934  0.6329
14523TIP3    H264985   2.334   6.340  16.574 -0.5669  0.9043  0.1683
14524TIP3   OH264986   2.289   2.342  14.741  0.0886  0.6690 -0.4982
14524TIP3    H164987   2.371   2.294  14.745 -0.4881 -0.4768 -1.7227
14524TIP3    H264988   2.249   2.329  14.827 -0.0959 -1.1618 -0.8316
14525TIP3   OH264989   1.214   4.655   3.799 -0.1832  0.1101  0.0747
14525TIP3    H164990   1.201   4.711   3.876  2.0434  0.8887 -0.0335
14525TIP3    H264991   1.282   4.700   3.749 -0.9065 -0.8814 -1.8796
14526TIP3   OH264992   6.287   4.363   0.597  0.1792  0.0013  0.5498
14526TIP3    H164993   6.265   4.429   0.532 -0.9738 -1.6696 -0.8461
14526TIP3    H264994   6.249   4.395   0.679 -0.7312  0.8466 -0.1912
14527TIP3   OH264995   4.033   1.697   4.571 -0.0317  0.5163  0.5842
14527TIP3    H164996   4.025   1.654   4.486 -1.4508  1.6402  0.1014
14527TIP3    H264997   4.100   1.764   4.558 -0.9157  1.3318  0.0158
14528TIP3   OH264998   6.573   0.380   4.995  0.5747 -0.5354  0.4530
14528TIP3    H164999   6.488   0.390   4.952  0.2662 -2.7748  0.4059
14528TIP3    H265000   6.621   0.318   4.939  2.5316  1.1778  0.1116
14529TIP3   OH265001   5.947   1.025  16.672  0.2608  0.4147 -0.1054
14529TIP3    H165002   5.885   1.080  16.719 -1.0010 -0.3760 -0.8084
14529TIP3    H265003   5.903   1.002  16.591  0.7728 -1.5762  0.1298
14530TIP3   OH265004   3.999   0.971   1.843 -0.3344  0.1188 -0.4548
14530TIP3    H165005   3.903   0.970   1.844 -0.3415  0.6334 -0.4269
14530TIP3    H265006   4.022   1.064   1.846  0.1670 -0.0047 -0.4229
14531TIP3   OH265007   5.489   0.456  17.253 -0.7114 -0.0434  0.5102
14531TIP3    H165008   5.404   0.455  17.209 -0.0266  2.2503 -1.0811
14531TIP3    H265009   5.552   0.441  17.183  0.2844  0.7168  1.2116
14532TIP3   OH265010   3.559   2.389  14.111  0.1827  0.0035 -0.4447
14532TIP3    H165011   3.501   2.426  14.044 -0.7549 -0.8791 -0.1515
14532TIP3    H265012   3.500   2.343  14.170  1.1527 -0.4937  0.1546
14533TIP3   OH265013   5.613   2.230   3.209 -0.1723 -0.1391  0.1219
14533TIP3    H165014   5.561   2.183   3.144  1.3548  0.8561 -1.9494
14533TIP3    H265015   5.597   2.323   3.191  1.1290  0.1666  0.4108
14534TIP3   OH265016   3.806   6.426  16.093 -0.2802 -0.0387  0.3213
14534TIP3    H165017   3.733   6.457  16.147  1.0788  0.2248  2.1198
14534TIP3    H265018   3.832   6.343  16.133  1.1384  0.4471  0.4679
14535TIP3   OH265019   4.562   4.670  14.904  0.2811 -0.2274  0.2737
14535TIP3    H165020   4.536   4.712  14.986  0.9937 -0.3265  0.5664
14535TIP3    H265021   4.528   4.728  14.836 -1.6476 -0.9305  0.5820
14536TIP3   OH265022   3.276   3.336  15.494  0.1543 -0.2337 -0.3117
14536TIP3    H165023   3.248   3.246  15.515  0.2944  0.0493  1.2388
14536TIP3    H265024   3.256   3.386  15.573  0.5406  1.0044 -0.9742
14537TIP3   OH265025   5.154   1.397  16.689 -0.4441 -0.0290 -0.3186
14537TIP3    H165026   5.097   1.326  16.717  0.7078 -0.9696 -0.2913
14537TIP3    H265027   5.138   1.405  16.595 -0.9145 -0.0008 -0.2416
14538TIP3   OH265028   4.213   1.324   5.170 -0.3939 -0.0893  0.2679
14538TIP3    H165029   4.120   1.334   5.150  0.0153 -0.0720 -1.8167
14538TIP3    H265030   4.258   1.364   5.096  1.3111  1.0455  1.8193
14539TIP3   OH265031   4.263   3.944  14.771 -0.1446 -0.6023 -0.0467
14539TIP3    H165032   4.302   3.955  14.858 -1.6227  1.2241  0.4506
14539TIP3    H265033   4.173   3.915  14.788 -0.1464 -1.2094 -1.0132
14540TIP3   OH265034   4.515   1.943  11.172  0.2374  0.4399  0.0471
14540TIP3    H165035   4.608   1.922  11.165 -0.2983 -1.9870 -0.6678
14540TIP3    H265036   4.508   2.031  11.134  2.2904  0.9517  0.6985
14541TIP3   OH265037   3.561   5.441  15.720 -0.4481  0.6809 -0.0709
14541TIP3    H165038   3.631   5.494  15.757  0.1088 -1.5106  2.3392
14541TIP3    H265039   3.590   5.350  15.734 -2.6858 -0.2885 -1.2074
14542TIP3   OH265040   5.319   4.765   6.105  0.0141  0.8600 -0.4350
14542TIP3    H165041   5.360   4.802   6.026  1.6149 -1.1279 -0.6303
14542TIP3    H265042   5.392   4.746   6.163 -0.9055 -0.1744  0.4272
14543TIP3   OH265043   2.524   6.627  12.813 -0.0269 -0.2566 -0.1007
14543TIP3    H165044   2.546   6.569  12.886 -0.1994 -1.3540 -0.9091
14543TIP3    H265045   2.574   6.593  12.739  0.7603  1.3250 -0.3381
14544TIP3   OH265046   5.729   4.051   0.116  0.1350  0.1666  0.4534
14544TIP3    H165047   5.730   3.990   0.042 -3.1711 -0.9313  1.1166
14544TIP3    H265048   5.668   4.010   0.178  0.2614  2.6511  2.3321
14545TIP3   OH265049   1.472   5.319  13.390 -0.1903 -0.1332  0.1253
14545TIP3    H165050   1.480   5.274  13.305 -1.9006  1.2777 -0.8325
14545TIP3    H265051   1.556   5.362  13.401 -1.1512  2.9786 -2.9028
14546TIP3   OH265052   5.177   0.360  14.586  0.3482 -0.3546  0.2027
14546TIP3    H165053   5.134   0.426  14.639  0.5218 -0.4177  0.4232
14546TIP3    H265054   5.131   0.279  14.605  0.1192 -0.2940 -0.0870
14547TIP3   OH265055   0.320   0.318   3.073  0.6019 -0.5968  0.0415
14547TIP3    H165056   0.340   0.308   2.980  1.3571  1.1862 -0.0256
14547TIP3    H265057   0.353   0.405   3.095  2.2271 -1.7224  2.4646
14548TIP3   OH265058   2.628   2.077   3.194  0.0503 -0.0076 -0.3413
14548TIP3    H165059   2.692   2.034   3.251 -1.5526 -2.3895 -0.1775
14548TIP3    H265060   2.552   2.090   3.250 -0.4210  0.6428 -1.1160
14549TIP3   OH265061   3.985   4.733   0.637  0.1293  0.7903  0.1799
14549TIP3    H165062   3.967   4.719   0.730 -3.5843  0.1338 -0.5077
14549TIP3    H265063   3.929   4.670   0.592  2.9213  0.0377 -2.5687
14550TIP3   OH265064   5.765   2.253   0.778  0.3158 -0.2635 -0.3720
14550TIP3    H165065   5.676   2.286   0.769  0.8271  1.6113  0.8837
14550TIP3    H265066   5.755   2.167   0.819 -0.8993  0.2474  0.4562
14551TIP3   OH265067   2.962   6.082  11.102  0.1836 -0.1872 -0.2455
14551TIP3    H165068   2.958   6.042  11.188 -0.9652  0.2771 -0.0608
14551TIP3    H265069   3.051   6.066  11.071  0.6481 -0.2255  1.0818
14552TIP3   OH265070   4.499   0.019   3.624  0.1558 -0.2155 -0.0773
14552TIP3    H165071   4.526   0.100   3.580 -2.0019  0.4596 -0.2851
14552TIP3    H265072   4.470  -0.038   3.553  2.1999 -1.4640  0.0155
14553TIP3   OH265073   5.675   6.128   5.572  0.3767 -0.4324  0.3494
14553TIP3    H165074   5.755   6.148   5.524  1.4147 -2.3338  1.1621
14553TIP3    H265075   5.693   6.044   5.615 -1.9993 -0.8409  0.7049
14554TIP3   OH265076   0.301   1.885  11.586 -0.2935 -0.0751 -0.4780
14554TIP3    H165077   0.326   1.851  11.672  0.5854  1.3039 -0.1662
14554TIP3    H265078   0.276   1.807  11.536 -2.0855 -0.7838  1.4137
14555TIP3   OH265079   3.955   4.159  14.740 -0.4303 -0.4591  0.0386
14555TIP3    H165080   3.864   4.187  14.735 -0.1762  0.4168  0.1363
14555TIP3    H265081   4.000   4.231  14.782  0.4466 -0.5673 -0.6752
14556TIP3   OH265082   2.973   4.630  15.921  0.0953 -0.3043 -0.1127
14556TIP3    H165083   2.880   4.648  15.910  0.1203 -0.2064 -0.1621
14556TIP3    H265084   2.983   4.540  15.889  0.3593  0.3368 -1.9861
14557TIP3   OH265085   2.547   5.255  14.823 -0.0258 -0.5079  0.3030
14557TIP3    H165086   2.489   5.215  14.758  0.1248 -0.7730  0.3314
14557TIP3    H265087   2.550   5.193  14.896 -2.1240  0.8538  1.6504
14558TIP3   OH265088   4.890   4.455   0.490  0.4405 -0.2061  0.3685
14558TIP3    H165089   4.964   4.501   0.530  0.8956 -0.0865 -0.5953
14558TIP3    H265090   4.915   4.442   0.399 -0.2114 -1.2675  0.3157
14559TIP3   OH265091   4.611   3.018  13.183  0.4313  0.5546  0.0327
14559TIP3    H165092   4.667   3.095  13.187 -0.5960  1.5417 -2.4152
14559TIP3    H265093   4.642   2.969  13.106 -0.1818 -0.4501  0.3986
14560TIP3   OH265094   4.963   1.525   0.864  0.4047 -0.7975 -0.2531
14560TIP3    H165095   4.977   1.563   0.777  2.2171 -2.7271 -0.8780
14560TIP3    H265096   4.987   1.595   0.925  1.2396 -0.1165 -1.3335
14561TIP3   OH265097   4.889   3.206  13.278  0.0233 -0.0863  0.4021
14561TIP3    H165098   4.932   3.276  13.327  0.2304  0.8610 -1.1048
14561TIP3    H265099   4.860   3.247  13.197 -1.5796 -1.2888  0.3174
14562TIP3   OH265100   6.408   0.484  15.621 -0.2768  0.1548  0.1881
14562TIP3    H165101   6.440   0.432  15.694  1.2085 -1.5319 -1.5441
14562TIP3    H265102   6.431   0.574  15.643  1.2502 -0.4563  1.2763
14563TIP3   OH265103   2.901   5.702  13.592 -0.1812  0.3297 -0.2854
14563TIP3    H165104   2.900   5.644  13.517  0.5930 -0.3418  0.2086
14563TIP3    H265105   2.907   5.790  13.555  0.1229  0.0082 -1.0089
14564TIP3   OH265106   5.012   0.545  15.457 -0.1711  0.0332  0.0710
14564TIP3    H165107   4.940   0.584  15.408 -1.0261 -0.5175  0.8547
14564TIP3    H265108   5.024   0.459  15.418  0.7807  0.5076 -0.7377
14565TIP3   OH265109   5.925   6.531   3.803  0.4893  0.0921 -0.1272
14565TIP3    H165110   5.968   6.540   3.718 -0.9016 -1.0359 -0.9976
14565TIP3    H265111   5.850   6.474   3.786 -1.1162  1.6141  1.3812
14566TIP3   OH265112   5.302   2.279  17.137  0.4904 -0.0819  0.9214
14566TIP3    H165113   5.290   2.184  17.140  0.0943 -0.0602  0.2979
14566TIP3    H265114   5.390   2.290  17.099  0.3939 -0.2039  0.6534
14567TIP3   OH265115   1.257   6.539   1.449 -0.2897 -0.3695 -0.6062
14567TIP3    H165116   1.330   6.524   1.389 -1.1055  2.4046 -2.4582
14567TIP3    H265117   1.214   6.617   1.415 -1.3869  0.8144  3.0981
14568TIP3   OH265118   1.270   2.171  15.748 -0.1690 -0.5482 -0.4124
14568TIP3    H165119   1.279   2.082  15.783 -1.4319 -0.4889  0.1024
14568TIP3    H265120   1.196   2.166  15.688 -0.5068  0.2471 -0.0714
14569TIP3   OH265121   1.370   4.589   1.785  0.4648  1.1936 -0.1696
14569TIP3    H165122   1.407   4.652   1.723 -0.2547  0.8983 -0.9286
14569TIP3    H265123   1.287   4.628   1.812 -0.6528  0.0159 -1.6908
14570TIP3   OH265124   5.992   0.414   4.464 -0.4203  0.1038  0.6252
14570TIP3    H165125   6.036   0.379   4.541  1.0355  2.3347  0.9024
14570TIP3    H265126   6.058   0.470   4.423 -2.1068  1.2600 -0.6162
14571TIP3   OH265127   2.085   5.578  13.043  0.1169 -0.3282  0.2906
14571TIP3    H165128   2.047   5.631  13.114 -0.9233 -0.2367 -0.3062
14571TIP3    H265129   2.124   5.503  13.087 -0.9910 -0.5553  0.9385
14572TIP3   OH265130   2.151   4.743  16.933  0.3076 -0.3392  0.2875
14572TIP3    H165131   2.235   4.741  16.979  0.8233  0.7116 -0.5742
14572TIP3    H265132   2.124   4.651  16.931  1.4613 -0.7096  0.5256
14573TIP3   OH265133   3.272   5.722   3.449  0.5781  0.5296  0.0717
14573TIP3    H165134   3.259   5.801   3.501 -3.4328  0.3704 -0.3891
14573TIP3    H265135   3.320   5.751   3.372 -0.9550  2.6098 -0.1803
14574TIP3   OH265136   5.025   0.737  12.123 -0.1875  0.2666  0.2663
14574TIP3    H165137   5.116   0.757  12.100  0.1237 -0.8588  0.4429
14574TIP3    H265138   4.982   0.719  12.040 -0.2052  0.6111  0.1994
14575TIP3   OH265139   6.551   4.036   5.824 -0.5815  0.0916  0.5146
14575TIP3    H165140   6.459   4.061   5.832 -0.6264 -0.3640  1.7065
14575TIP3    H265141   6.600   4.110   5.861 -0.3317  1.1306 -1.7572
14576TIP3   OH265142   6.484   4.210   1.219 -0.7754 -0.1424  0.2247
14576TIP3    H165143   6.579   4.205   1.207 -0.8759 -3.2585 -0.1059
14576TIP3    H265144   6.448   4.173   1.139 -2.2117 -0.4936  1.0076
14577TIP3   OH265145   4.741   1.211  15.640 -0.2510 -0.2413  0.0908
14577TIP3    H165146   4.821   1.242  15.597  0.5640 -1.1070  0.9396
14577TIP3    H265147   4.674   1.274  15.613  0.6465  0.3434 -0.8638
14578TIP3   OH265148   3.819   6.198  11.437  0.6720 -0.0474  0.1194
14578TIP3    H165149   3.891   6.177  11.377 -1.0110 -0.5260 -1.8392
14578TIP3    H265150   3.792   6.286  11.411 -0.2739 -0.3830 -0.0723
14579TIP3   OH265151   0.442   3.902  12.814  0.5410 -0.2601 -0.5569
14579TIP3    H165152   0.472   3.983  12.856 -1.1356  0.5484 -0.7954
14579TIP3    H265153   0.409   3.849  12.887  0.5118 -0.1996 -0.5255
14580TIP3   OH265154   4.192   3.523  17.211  0.2225 -0.3308 -0.1309
14580TIP3    H165155   4.288   3.528  17.206  0.3185  1.9839  2.1353
14580TIP3    H265156   4.174   3.455  17.275  0.2891 -1.3869 -1.2094
14581TIP3   OH265157   5.881   3.859  17.252  0.1796 -0.1954  0.0630
14581TIP3    H165158   5.929   3.780  17.230 -0.2406 -0.8517  1.4194
14581TIP3    H265159   5.939   3.907  17.312  0.1597  0.2220 -0.2429
14582TIP3   OH265160   3.532   4.334  15.341  0.5751 -0.1568 -0.2492
14582TIP3    H165161   3.519   4.429  15.346 -1.2885 -0.4453  1.9855
14582TIP3    H265162   3.444   4.297  15.337  1.2249 -1.8262 -0.1475
14583TIP3   OH265163   6.633   4.030   1.823 -0.1884  0.3817 -0.1729
14583TIP3    H165164   6.623   3.935   1.818 -1.2065  0.4267  0.6007
14583TIP3    H265165   6.721   4.043   1.857 -0.3783 -0.3282  0.6431
14584TIP3   OH265166   3.689   6.778  14.122 -0.0620  0.3060  0.2352
14584TIP3    H165167   3.697   6.682  14.117  2.9359  0.4988 -0.6524
14584TIP3    H265168   3.638   6.802  14.045  0.0633 -0.5293 -0.1262
14585TIP3   OH265169   6.481   5.448   3.336  0.3678  0.4684 -0.1500
14585TIP3    H165170   6.564   5.420   3.297 -0.7792  1.1295 -3.3611
14585TIP3    H265171   6.461   5.531   3.293 -2.8554 -0.5957 -0.9425
14586TIP3   OH265172   3.183   0.038  14.382 -0.1853 -0.3038  0.1774
14586TIP3    H165173   3.277   0.028  14.367 -0.2970 -1.7482  0.2702
14586TIP3    H265174   3.151   0.081  14.303  0.0968 -2.7425 -1.3964
14587TIP3   OH265175   6.673   5.752   5.416 -0.2343  0.7222  0.3458
14587TIP3    H165176   6.655   5.723   5.505  2.4139  1.4415  1.2186
14587TIP3    H265177   6.647   5.678   5.361  1.5488 -1.3032  2.0548
14588TIP3   OH265178   4.828   6.580  16.807 -0.3883  0.2714 -0.2034
14588TIP3    H165179   4.830   6.654  16.868 -1.1861 -0.9632  1.3969
14588TIP3    H265180   4.744   6.538  16.824 -0.0315 -0.8975 -1.2275
14589TIP3   OH265181   6.534   4.895  12.743  0.2643  0.3327 -0.8136
14589TIP3    H165182   6.513   4.820  12.686  0.2187  0.8948 -1.5488
14589TIP3    H265183   6.508   4.972  12.692 -0.0448  0.8398  0.0907
14590TIP3   OH265184   2.950   0.411   3.412 -0.6448 -0.0190 -0.1729
14590TIP3    H165185   3.002   0.422   3.492  1.0173 -3.2081 -0.6745
14590TIP3    H265186   3.005   0.448   3.343 -0.2845 -0.8153 -0.3237
14591TIP3   OH265187   5.012   3.230  13.834 -0.0084 -0.3651  0.1346
14591TIP3    H165188   5.066   3.245  13.756 -0.8912 -1.0895 -0.6571
14591TIP3    H265189   4.970   3.145  13.817 -3.6711  1.3967 -0.7161
14592TIP3   OH265190   2.339   5.028  11.641 -0.1438  0.2545 -0.4789
14592TIP3    H165191   2.400   5.072  11.700 -0.7454 -0.0329  0.3753
14592TIP3    H265192   2.394   4.992  11.571  0.8382 -1.1853  0.9899
14593TIP3   OH265193   0.621   1.306  14.915  0.1819  0.0889  0.4554
14593TIP3    H165194   0.565   1.238  14.876 -1.2753  0.6964  1.4097
14593TIP3    H265195   0.706   1.292  14.874 -1.2258  0.7659 -3.0595
14594TIP3   OH265196   1.431   0.709  16.803 -0.1182  0.8108 -0.0042
14594TIP3    H165197   1.337   0.708  16.785 -0.2575  0.0568  0.7264
14594TIP3    H265198   1.442   0.647  16.875  1.0298  0.3971 -0.5260
14595TIP3   OH265199   0.252   4.224  12.164 -0.5390 -0.0265 -0.6141
14595TIP3    H165200   0.330   4.279  12.176 -1.5999  1.4205 -0.0312
14595TIP3    H265201   0.276   4.140  12.202  1.0147  0.1260 -1.1857
14596TIP3   OH265202   2.620   5.260  16.277  0.4476 -0.8856  0.1319
14596TIP3    H165203   2.540   5.222  16.240 -0.0727  0.8376 -0.6479
14596TIP3    H265204   2.605   5.260  16.371 -1.8624  2.0368 -0.0768
14597TIP3   OH265205   5.369   0.398  10.610 -0.0018  0.3403  0.1474
14597TIP3    H165206   5.464   0.395  10.607  0.0119  1.0700 -1.1731
14597TIP3    H265207   5.342   0.371  10.522 -0.9721  0.9570  0.2427
14598TIP3   OH265208   5.925   2.037  12.051 -0.0569 -0.2695  0.1949
14598TIP3    H165209   5.868   2.038  12.128  0.0436  0.9358  0.2819
14598TIP3    H265210   5.909   1.952  12.010 -1.4784 -0.1941  0.5333
14599TIP3   OH265211   3.984   2.042   2.669  0.8112 -0.4223 -0.2904
14599TIP3    H165212   4.001   2.127   2.711  1.1559  0.2789 -1.7853
14599TIP3    H265213   4.071   2.008   2.648  0.6152 -0.3730 -1.1833
14600TIP3   OH265214   1.751   6.622  12.688 -0.9357 -0.1472 -0.0440
14600TIP3    H165215   1.757   6.546  12.745 -0.8981 -0.1846 -0.0980
14600TIP3    H265216   1.682   6.676  12.727  0.0481  0.5125  0.8564
14601TIP3   OH265217   0.020   6.569  14.808 -0.0368  0.4571 -0.3102
14601TIP3    H165218  -0.045   6.624  14.852 -0.4924 -0.1036 -0.2711
14601TIP3    H265219   0.060   6.519  14.879 -0.7628 -0.4407 -0.5111
14602TIP3   OH265220   3.861   1.779  13.909 -0.0985  0.5632  0.5838
14602TIP3    H165221   3.941   1.819  13.943 -0.7157  2.5336 -0.1592
14602TIP3    H265222   3.793   1.806  13.971 -0.4851  0.3733  0.2416
14603TIP3   OH265223   1.105   3.662  14.519 -0.3431 -0.2666  0.3593
14603TIP3    H165224   1.144   3.745  14.492  0.4215 -0.5546  0.5383
14603TIP3    H265225   1.178   3.613  14.558 -0.2282 -1.9109 -1.7483
14604TIP3   OH265226   2.287   6.261   1.065 -0.0926 -0.2004  0.2830
14604TIP3    H165227   2.311   6.244   1.155 -0.1075 -1.6587  0.0318
14604TIP3    H265228   2.256   6.177   1.031 -0.2540  0.3490 -1.0285
14605TIP3   OH265229   4.319   0.968  13.577  0.3512 -0.2114 -0.2968
14605TIP3    H165230   4.355   1.054  13.555 -0.7708  0.3207 -0.0990
14605TIP3    H265231   4.305   0.926  13.492 -0.4139  0.3535 -0.4584
14606TIP3   OH265232   1.543   1.119  16.480 -0.1647 -0.3885  0.6982
14606TIP3    H165233   1.549   1.067  16.400  0.1079 -0.2238  0.6107
14606TIP3    H265234   1.492   1.065  16.540  0.8803 -1.1488  0.9246
14607TIP3   OH265235   3.539   1.885   1.379 -0.7223  0.2782  0.0931
14607TIP3    H165236   3.478   1.922   1.315 -0.1152  0.9310 -0.1166
14607TIP3    H265237   3.617   1.864   1.328  1.3446  4.3695  1.0994
14608TIP3   OH265238   1.827   3.858  14.327  0.1690  0.4297 -0.3004
14608TIP3    H165239   1.744   3.827  14.364  0.2823  1.6433  1.1140
14608TIP3    H265240   1.807   3.945  14.293  0.5956  0.2342 -1.0742
14609TIP3   OH265241   2.038   3.065   3.766 -0.3522 -0.0843  0.5459
14609TIP3    H165242   2.117   3.108   3.798 -0.6070 -0.8699  2.3567
14609TIP3    H265243   1.967   3.103   3.818 -0.7516 -1.6259  1.1669
14610TIP3   OH265244   3.265   5.853  16.549  0.1041  0.4538  0.0083
14610TIP3    H165245   3.266   5.932  16.495 -1.1500  0.2135 -0.3921
14610TIP3    H265246   3.352   5.814  16.535  0.7064  1.7041  0.1569
14611TIP3   OH265247   3.571   3.156  11.669 -0.3306  0.2154  0.2815
14611TIP3    H165248   3.490   3.206  11.657  0.5791  1.3928 -1.2808
14611TIP3    H265249   3.578   3.144  11.764 -0.8244  2.6853  0.6884
14612TIP3   OH265250   3.290   0.780  11.281  0.3021 -0.0724  0.0934
14612TIP3    H165251   3.223   0.712  11.287  1.7359 -1.5562 -0.2047
14612TIP3    H265252   3.270   0.827  11.200  0.0238 -0.9382 -0.3422
14613TIP3   OH265253   6.111   2.940   4.721  0.5433 -0.6380 -0.8466
14613TIP3    H165254   6.032   2.961   4.672  1.0953 -0.3742 -1.6404
14613TIP3    H265255   6.136   2.853   4.690  0.8577 -0.4989 -0.9869
14614TIP3   OH265256   1.508   0.111  11.863 -0.2736  0.0138 -0.2722
14614TIP3    H165257   1.422   0.150  11.854  0.4286  1.3920 -1.3835
14614TIP3    H265258   1.528   0.118  11.956 -1.8194 -1.4024  0.1972
14615TIP3   OH265259   3.200   4.834  11.281 -0.3266 -0.5447 -0.3960
14615TIP3    H165260   3.121   4.884  11.299 -0.5553 -0.5569 -1.3105
14615TIP3    H265261   3.214   4.844  11.187  0.1525 -1.4305 -0.4325
14616TIP3   OH265262   4.771   5.928  10.865  0.4511  0.1121 -0.5813
14616TIP3    H165263   4.740   5.846  10.827 -0.6389  0.0323  0.4164
14616TIP3    H265264   4.733   5.996  10.810 -0.0627 -0.0227 -0.3958
14617TIP3   OH265265   0.943   4.450   0.217  0.4321  0.0473 -0.2072
14617TIP3    H165266   0.955   4.374   0.159 -3.2592 -0.1821 -0.9279
14617TIP3    H265267   0.864   4.430   0.266  0.0702  2.8893  0.5238
14618TIP3   OH265268   5.162   2.161  11.497  0.1037 -0.0634  0.3275
14618TIP3    H165269   5.235   2.199  11.447 -1.0585 -0.2163 -1.5689
14618TIP3    H265270   5.205   2.103  11.559  1.6111 -0.6768 -1.1870
14619TIP3   OH265271   4.807   6.673  14.205 -0.2253 -0.2645 -0.2128
14619TIP3    H165272   4.858   6.593  14.209  3.2887  1.8499  1.7927
14619TIP3    H265273   4.728   6.654  14.256  0.3962 -2.4490  0.0128
14620TIP3   OH265274   4.434   2.800   1.002 -0.0142 -0.0771  0.4118
14620TIP3    H165275   4.430   2.890   1.036 -1.0441 -0.9752  2.9010
14620TIP3    H265276   4.348   2.787   0.961 -0.2380 -0.2258  0.9211
14621TIP3   OH265277   6.747   5.903   3.049 -0.0669 -0.6432 -0.5439
14621TIP3    H165278   6.768   5.886   3.141  0.8216  0.5849 -0.4976
14621TIP3    H265279   6.832   5.919   3.008 -0.3660 -1.9625 -1.7678
14622TIP3   OH265280   5.952   1.936  14.479 -0.9004 -0.4505 -0.0521
14622TIP3    H165281   5.977   1.888  14.559 -0.4975 -2.2828 -1.2102
14622TIP3    H265282   5.939   1.867  14.413 -1.2366  1.0091 -1.5712
14623TIP3   OH265283   0.994   1.946   1.866 -0.0044  0.0006  0.5832
14623TIP3    H165284   1.010   2.032   1.906  1.1563  0.4175 -0.7150
14623TIP3    H265285   1.003   1.884   1.938  1.2183  0.7954  1.1465
14624TIP3   OH265286   4.801   5.421   0.356  0.0434 -0.5097 -0.2602
14624TIP3    H165287   4.851   5.492   0.315 -0.5895  0.4942  0.6573
14624TIP3    H265288   4.852   5.398   0.434 -0.3403 -0.2680  0.0629
14625TIP3   OH265289   1.837   6.021   1.396 -0.1532  0.3707  0.6176
14625TIP3    H165290   1.796   6.010   1.482 -0.0232  0.8840  0.7511
14625TIP3    H265291   1.920   6.067   1.414  1.0031 -1.5639  0.4679
14626TIP3   OH265292   4.520   4.463  14.373  0.3250 -0.3298  0.1375
14626TIP3    H165293   4.538   4.379  14.330 -0.9438 -0.2719 -0.5316
14626TIP3    H265294   4.434   4.489  14.341  0.1671  0.6416  1.2845
14627TIP3   OH265295   6.740   2.874  16.632 -0.2035  0.0623  0.4811
14627TIP3    H165296   6.685   2.876  16.711  0.7261  1.9536  1.1329
14627TIP3    H265297   6.721   2.956  16.588  0.8143 -0.0628 -0.2076
14628TIP3   OH265298   0.152   4.202  16.340  0.5817  0.1100  0.2183
14628TIP3    H165299   0.137   4.217  16.433  1.0268 -0.9319  0.4584
14628TIP3    H265300   0.064   4.193  16.303  0.3746  1.1782  0.4090
14629TIP3   OH265301   0.159   5.418   4.717 -0.2228 -0.6016 -0.0192
14629TIP3    H165302   0.121   5.396   4.802  0.5602  0.2304  0.5575
14629TIP3    H265303   0.084   5.440   4.662 -0.8106 -1.9857  0.1738
14630TIP3   OH265304   0.571   6.263  11.347 -0.1375 -0.2105 -0.2446
14630TIP3    H165305   0.657   6.288  11.381  0.2432 -0.4935 -0.9929
14630TIP3    H265306   0.553   6.178  11.387 -1.3032  1.0059  2.0714
14631TIP3   OH265307   0.404   2.814   4.411  0.0436  0.0501 -0.5586
14631TIP3    H165308   0.474   2.836   4.349 -0.5351 -0.9676 -1.6167
14631TIP3    H265309   0.445   2.754   4.473  0.3743  0.2791 -0.5545
14632TIP3   OH265310   6.403   3.060  16.751  0.3009 -0.0741 -0.4747
14632TIP3    H165311   6.443   3.089  16.833 -1.1254 -0.6635  0.4736
14632TIP3    H265312   6.458   2.987  16.722  0.9462  0.2843 -0.1823
14633TIP3   OH265313   5.514   0.877   0.857  0.1925  0.2249  1.0104
14633TIP3    H165314   5.434   0.831   0.833  0.2148  0.4139  0.5669
14633TIP3    H265315   5.578   0.852   0.791 -0.2355  2.1104 -0.1954
14634TIP3   OH265316   1.979   2.168  13.664 -0.5320  0.4013 -0.2175
14634TIP3    H165317   2.005   2.145  13.753  2.6750  1.8801 -0.6277
14634TIP3    H265318   1.968   2.083  13.620  1.3335 -0.4053  0.7429
14635TIP3   OH265319   2.763   4.671  12.436  1.0457 -0.2910 -0.1235
14635TIP3    H165320   2.711   4.681  12.515 -0.1825  1.1206 -1.0570
14635TIP3    H265321   2.706   4.626  12.374  0.1042  2.8428 -1.7579
14636TIP3   OH265322   3.202   5.239   5.755  0.8454  0.5044 -0.6422
14636TIP3    H165323   3.182   5.247   5.661 -3.4785 -1.1968 -0.1183
14636TIP3    H265324   3.226   5.148   5.767 -0.8915  0.0945  0.0989
14637TIP3   OH265325   0.235   5.244   0.033 -0.1903 -0.1929 -0.2703
14637TIP3    H165326   0.287   5.170   0.002  1.4650  1.0030 -0.5162
14637TIP3    H265327   0.256   5.250   0.126 -0.7647 -0.3735 -0.1285
14638TIP3   OH265328   2.660   5.342  13.379 -0.2720  0.0379  0.6120
14638TIP3    H165329   2.565   5.342  13.393 -0.4074 -0.0357 -0.2489
14638TIP3    H265330   2.673   5.399  13.303  0.4964  1.0336  1.4731
14639TIP3   OH265331   1.716   2.070  15.723 -0.1834  0.1555 -0.1087
14639TIP3    H165332   1.785   2.136  15.714 -1.4788  1.7616  1.1387
14639TIP3    H265333   1.737   2.025  15.805 -1.2417  1.4835  0.9281
14640TIP3   OH265334   5.579   6.246  14.655 -0.8466  0.0114 -0.1283
14640TIP3    H165335   5.664   6.283  14.678 -0.8709 -0.5028  0.8289
14640TIP3    H265336   5.599   6.172  14.597 -0.5287 -0.9530  1.1623
14641TIP3   OH265337   5.756   5.072  15.685  0.0964  0.0501  0.2041
14641TIP3    H165338   5.775   5.011  15.757  0.2402  0.2958  0.3737
14641TIP3    H265339   5.682   5.124  15.716 -0.0617 -0.0752  0.0372
14642TIP3   OH265340   2.682   4.895   1.947  0.2006  0.9699  0.2696
14642TIP3    H165341   2.696   4.985   1.973 -0.0148  1.2509 -0.5416
14642TIP3    H265342   2.604   4.867   1.995  0.3685  1.1594  0.6500
14643TIP3   OH265343   2.277   5.352   0.536  0.2198  0.1576 -0.0994
14643TIP3    H165344   2.194   5.334   0.491  1.1736 -0.3260 -1.7453
14643TIP3    H265345   2.289   5.446   0.527 -1.0276  0.5590  1.8076
14644TIP3   OH265346   4.600   3.353   4.388 -0.4504 -0.3935 -0.0014
14644TIP3    H165347   4.694   3.361   4.372 -0.4765 -1.0172 -0.4888
14644TIP3    H265348   4.563   3.432   4.350  0.1249  1.2160  2.5340
14645TIP3   OH265349   2.650   2.943   5.223 -0.2890  0.3293  0.6508
14645TIP3    H165350   2.556   2.938   5.205  0.1385  0.5859 -2.0878
14645TIP3    H265351   2.674   2.855   5.250 -0.6342 -0.9681 -2.8738
14646TIP3   OH265352   4.836   5.921   5.559 -0.3225  0.5742 -0.0508
14646TIP3    H165353   4.830   5.997   5.501 -1.0797  1.2707  0.9061
14646TIP3    H265354   4.805   5.953   5.644  2.4202  0.0664  1.2272
14647TIP3   OH265355   4.664   2.455   4.285  0.4430 -0.2980  0.1208
14647TIP3    H165356   4.574   2.475   4.261  0.7748  1.0276 -0.0710
14647TIP3    H265357   4.696   2.400   4.213  0.1685  0.2609 -0.4381
14648TIP3   OH265358   0.340   0.269   3.923  0.0599 -0.5204 -0.3108
14648TIP3    H165359   0.280   0.309   3.861  0.4762 -2.0720 -1.7922
14648TIP3    H265360   0.414   0.329   3.928 -0.7110  0.4328  0.0130
14649TIP3   OH265361   4.176   0.118  13.891 -0.2977 -0.4174 -0.1244
14649TIP3    H165362   4.115   0.047  13.911 -1.2189  0.0599 -1.1520
14649TIP3    H265363   4.240   0.079  13.833  0.1191 -0.8023  0.5815
14650TIP3   OH265364   0.246   1.477   3.452  0.1579  0.6511 -0.2191
14650TIP3    H165365   0.319   1.487   3.391 -1.5306  0.4531 -2.3832
14650TIP3    H265366   0.170   1.509   3.404 -1.7779 -2.2651  0.6125
14651TIP3   OH265367   1.577   6.480  17.144 -0.1334 -0.9078  0.9578
14651TIP3    H165368   1.583   6.430  17.063 -2.0556 -1.8781  1.3685
14651TIP3    H265369   1.490   6.520  17.142  0.8097  1.3150  1.3087
14652TIP3   OH265370   0.863   0.119  11.329  0.2943 -0.1557 -0.5313
14652TIP3    H165371   0.908   0.195  11.291  0.7807 -0.1036  0.1196
14652TIP3    H265372   0.795   0.157  11.385  0.8722 -0.1841  0.1963
14653TIP3   OH265373   4.670   5.774  12.048  0.0414  0.5176 -0.3364
14653TIP3    H165374   4.640   5.738  11.964  0.7271  2.8772 -1.7138
14653TIP3    H265375   4.595   5.764  12.107 -1.3036  0.8465 -1.9135
14654TIP3   OH265376   0.827   3.903   5.211  0.0211 -0.7526 -0.5601
14654TIP3    H165377   0.804   3.851   5.287  0.5649  1.2373  1.0552
14654TIP3    H265378   0.774   3.982   5.218  1.7224  0.5034 -0.9422
14655TIP3   OH265379   5.577   5.560  13.386 -0.4949  0.1766  0.0513
14655TIP3    H165380   5.551   5.468  13.387 -0.0585  0.0597  0.5742
14655TIP3    H265381   5.636   5.568  13.310 -0.9492  0.1471 -0.3113
14656TIP3   OH265382   0.053   4.682  11.566 -0.0143 -0.0695 -0.2512
14656TIP3    H165383   0.065   4.671  11.660 -1.6863  0.0752  0.0022
14656TIP3    H265384   0.113   4.753  11.542 -1.0713  1.3434  1.1090
14657TIP3   OH265385   1.242   0.799   0.194  0.1589  0.0538  0.1411
14657TIP3    H165386   1.181   0.858   0.240 -1.7920 -2.1061  0.5046
14657TIP3    H265387   1.284   0.750   0.264  1.0545  0.3201 -0.2008
14658TIP3   OH265388   4.394   2.005   4.852 -0.1917 -0.0332  0.4702
14658TIP3    H165389   4.402   1.968   4.940  0.0720 -2.7230 -0.6003
14658TIP3    H265390   4.475   1.979   4.807  0.5464  2.8671 -0.1137
14659TIP3   OH265391   4.523   0.991   3.539 -0.4008  0.3216  0.0305
14659TIP3    H165392   4.469   0.912   3.540  1.4702 -1.0680  1.3238
14659TIP3    H265393   4.526   1.019   3.630  1.0616  0.2773  0.0344
14660TIP3   OH265394   0.288   0.907  12.875 -0.1618 -0.1599  0.1714
14660TIP3    H165395   0.282   0.864  12.790 -2.1317 -1.1027  0.7309
14660TIP3    H265396   0.205   0.953  12.885  0.4032  0.6923  1.2065
14661TIP3   OH265397   4.879   1.082  16.912 -0.0346  0.2919  0.0395
14661TIP3    H165398   4.804   1.071  16.971  0.7702  0.3107  1.0927
14661TIP3    H265399   4.848   1.049  16.827 -1.1979  0.2160  0.4786
14662TIP3   OH265400   6.687   1.687  14.000  0.4454 -0.2877 -0.6096
14662TIP3    H165401   6.778   1.694  13.971  0.8154 -0.6470  0.4097
14662TIP3    H265402   6.684   1.606  14.051 -0.0086  0.6122  0.8732
14663TIP3   OH265403   3.368   6.718   5.486 -0.4278  0.2680  0.7217
14663TIP3    H165404   3.430   6.728   5.558 -1.1226  1.1992  1.2131
14663TIP3    H265405   3.283   6.741   5.524 -0.6352  2.0095 -0.6692
14664TIP3   OH265406   4.966   6.356   1.035 -0.2216 -0.0653 -0.3429
14664TIP3    H165407   5.046   6.352   1.087 -1.3997 -0.2761  1.5363
14664TIP3    H265408   4.986   6.418   0.965  1.9906 -1.0832 -0.6833
14665TIP3   OH265409   3.065   2.127  14.188  0.4421 -0.4767  0.0747
14665TIP3    H165410   3.054   2.191  14.258 -0.1573 -0.2765 -0.1889
14665TIP3    H265411   2.993   2.065  14.201 -1.1946  0.8940 -1.7575
14666TIP3   OH265412   6.570   5.089  11.761  0.4194  0.4747 -0.4261
14666TIP3    H165413   6.504   5.068  11.695  0.1854  0.8796 -0.3223
14666TIP3    H265414   6.645   5.121  11.711  0.1430  1.0431 -0.4839
14667TIP3   OH265415   0.945   1.582  17.043  0.5090 -0.0149 -0.5790
14667TIP3    H165416   0.978   1.499  17.075  1.6221  0.2215 -1.0661
14667TIP3    H265417   0.918   1.630  17.121  2.0146  0.0643 -0.0837
14668TIP3   OH265418   4.913   5.573  14.348  0.3906 -0.1681  0.2364
14668TIP3    H165419   4.851   5.644  14.330  1.9418  0.9622 -0.9530
14668TIP3    H265420   4.859   5.494  14.355 -0.9686  0.0283 -4.6765
14669TIP3   OH265421   3.757   1.181   4.736 -0.4046  0.3902 -0.2624
14669TIP3    H165422   3.783   1.264   4.695  0.1239  0.8477  0.9678
14669TIP3    H265423   3.810   1.115   4.691 -0.9420  0.6751 -1.3584
14670TIP3   OH265424   6.381   5.066   5.499  0.6611 -0.6583 -0.1730
14670TIP3    H165425   6.323   4.993   5.522  2.3831 -1.5171  1.7438
14670TIP3    H265426   6.322   5.133   5.466 -1.5194 -1.3420  2.0088
14671TIP3   OH265427   6.130   2.009  14.131  0.0702  0.1873  0.5324
14671TIP3    H165428   6.151   2.006  14.225  0.4687  1.6216  0.5058
14671TIP3    H265429   6.212   2.030  14.088 -0.1595 -0.2365 -0.1356
14672TIP3   OH265430   2.756   3.382   5.732  0.4337 -0.3148  0.8393
14672TIP3    H165431   2.678   3.436   5.723  0.1924 -0.7406  0.3060
14672TIP3    H265432   2.763   3.364   5.826 -1.5923 -2.4204  0.6738
14673TIP3   OH265433   2.864   3.188  14.011  0.3230 -0.2458 -0.4630
14673TIP3    H165434   2.958   3.206  14.023  0.2837  0.0120 -0.5305
14673TIP3    H265435   2.844   3.122  14.077  0.4393  0.0829 -0.0872
14674TIP3   OH265436   6.668   0.726   6.312  0.3146 -0.2550 -0.1369
14674TIP3    H165437   6.582   0.749   6.348  0.8105  1.2489  0.1607
14674TIP3    H265438   6.728   0.791   6.349  1.3614 -0.4599 -1.4010
14675TIP3   OH265439   0.561   6.294  15.100 -0.4828  0.0419 -0.7130
14675TIP3    H165440   0.612   6.375  15.091 -0.8262  0.2801 -0.5550
14675TIP3    H265441   0.604   6.245  15.170 -0.8495  0.5424 -0.1241
14676TIP3   OH265442   5.024   3.586  16.199  0.0754 -0.1986 -0.3345
14676TIP3    H165443   4.993   3.503  16.237 -0.1051  0.2502  0.5236
14676TIP3    H265444   5.000   3.652  16.264  1.9478  0.2975 -0.1006
14677TIP3   OH265445   5.571   0.515   0.397  0.0233  0.1117  0.1298
14677TIP3    H165446   5.535   0.426   0.409 -0.4843  0.2666 -0.1983
14677TIP3    H265447   5.526   0.548   0.319 -0.2304  0.8814  0.5981
14678TIP3   OH265448   4.188   4.943  12.729  0.3502  0.2485  0.3669
14678TIP3    H165449   4.259   4.881  12.712 -0.7377 -0.8851 -0.2397
14678TIP3    H265450   4.150   4.960  12.643 -0.1294  0.8196  0.6860
14679TIP3   OH265451   3.363   5.702  15.800  0.0601 -0.0893 -0.0109
14679TIP3    H165452   3.316   5.689  15.882 -2.1113 -2.0307 -1.4485
14679TIP3    H265453   3.406   5.618  15.784  0.2695  0.1928 -0.9718
14680TIP3   OH265454   4.484   3.176  14.276 -0.0694  0.1712 -0.1463
14680TIP3    H165455   4.426   3.244  14.310 -1.6379 -1.1278 -0.0546
14680TIP3    H265456   4.456   3.164  14.185 -0.1982 -0.6963 -0.0026
14681TIP3   OH265457   0.974   2.637  13.098 -0.6177  0.3967  0.2195
14681TIP3    H165458   0.992   2.660  13.190  0.5160  1.5558 -0.2575
14681TIP3    H265459   0.927   2.712  13.063 -0.4885  0.2304 -0.3182
14682TIP3   OH265460   0.202   4.696  12.192 -0.2904 -0.0618 -0.4543
14682TIP3    H165461   0.171   4.777  12.235  0.1649  0.0413 -0.3064
14682TIP3    H265462   0.123   4.645  12.177 -0.6737  0.7549 -1.2665
14683TIP3   OH265463   4.254   0.218   4.777 -0.4991 -0.1999 -0.0362
14683TIP3    H165464   4.158   0.217   4.776 -0.5570  1.7091  0.2790
14683TIP3    H265465   4.279   0.132   4.743 -2.3170 -0.6364 -0.3804
14684TIP3   OH265466   2.827   1.275   2.906 -0.6479 -0.1987  0.1592
14684TIP3    H165467   2.774   1.247   2.832 -2.2575 -1.6405  1.7659
14684TIP3    H265468   2.829   1.370   2.900 -0.7349 -0.2682 -1.6835
14685TIP3   OH265469   3.008   0.132   4.767 -0.6968  0.5050 -0.0664
14685TIP3    H165470   3.015   0.208   4.825  0.6204 -0.4685  1.1046
14685TIP3    H265471   2.932   0.084   4.800 -1.6991  1.3900 -0.9743
14686TIP3   OH265472   1.736   2.329   3.863  0.2394 -0.4693  0.2755
14686TIP3    H165473   1.770   2.327   3.953 -0.9735 -0.6037  0.7476
14686TIP3    H265474   1.791   2.393   3.818 -0.9259  1.7980  1.8778
14687TIP3   OH265475   5.969   4.302   1.622  0.3567  0.2883 -0.5163
14687TIP3    H165476   5.948   4.324   1.713 -1.2559 -0.6001 -0.6402
14687TIP3    H265477   6.062   4.276   1.624  1.1922  3.0442  0.3135
14688TIP3   OH265478   4.201   1.520   3.385 -0.3645  0.2954  0.0616
14688TIP3    H165479   4.148   1.497   3.309  0.2517  0.3796 -0.4025
14688TIP3    H265480   4.241   1.604   3.362 -0.2020  0.3362  0.4873
14689TIP3   OH265481   0.680   6.394   2.613 -0.5036  0.1453 -0.5118
14689TIP3    H165482   0.671   6.383   2.519 -1.8035  1.4268 -0.5884
14689TIP3    H265483   0.764   6.439   2.624  0.7438 -1.9926 -0.8267
14690TIP3   OH265484   3.487   3.694  15.472  0.7608 -0.5618 -0.3831
14690TIP3    H165485   3.515   3.775  15.430  1.9774 -1.0550 -0.5596
14690TIP3    H265486   3.541   3.686  15.550  1.7102 -1.9128 -1.1244
14691TIP3   OH265487   0.948   2.678   4.188  0.4231 -0.3313  0.4813
14691TIP3    H165488   0.910   2.687   4.275  0.5207 -0.6357  0.5555
14691TIP3    H265489   1.026   2.624   4.201  1.0442  0.5131  0.3803
14692TIP3   OH265490   6.721   6.739   2.787 -0.0750  0.9554  0.0978
14692TIP3    H165491   6.670   6.806   2.742  1.2904  1.6091 -0.5365
14692TIP3    H265492   6.742   6.778   2.872  0.1305  1.0400  0.0066
14693TIP3   OH265493   2.442   1.713   4.560 -0.0912 -0.5829 -0.0361
14693TIP3    H165494   2.477   1.625   4.550  2.9121  0.6119 -1.0752
14693TIP3    H265495   2.450   1.732   4.654 -1.5249 -1.6472  0.3321
14694TIP3   OH265496   3.185   6.651   1.243 -0.5206  0.1129 -0.4029
14694TIP3    H165497   3.095   6.676   1.265 -0.8370 -0.5637 -0.9137
14694TIP3    H265498   3.185   6.556   1.248  0.9937  0.1436  2.8107
14695TIP3   OH265499   4.888   4.043   0.149 -0.0364  0.0754  0.9792
14695TIP3    H165500   4.879   4.019   0.241  0.6073  0.8354  1.2413
14695TIP3    H265501   4.953   3.981   0.114  1.7281  1.4508  1.6895
14696TIP3   OH265502   2.861   3.470   1.001  0.0036 -0.1550 -0.0192
14696TIP3    H165503   2.814   3.389   1.021 -0.9340  0.3131 -0.2786
14696TIP3    H265504   2.877   3.510   1.086 -1.6920  0.5690 -0.0197
14697TIP3   OH265505   5.552   1.298   4.051 -0.7962  0.0865 -0.3711
14697TIP3    H165506   5.511   1.218   4.087 -1.1166 -0.2821 -1.5184
14697TIP3    H265507   5.637   1.269   4.018  0.1326  0.7086  1.3247
14698TIP3   OH265508   6.410   1.487   0.581 -0.0169  0.1260 -0.0601
14698TIP3    H165509   6.413   1.569   0.630 -1.0918  0.3070 -0.2911
14698TIP3    H265510   6.320   1.479   0.552  0.8537  0.7606 -3.3030
14699TIP3   OH265511   5.935   6.609  12.052 -0.2527  0.0342  0.6486
14699TIP3    H165512   5.943   6.670  11.979 -0.8176 -1.4810 -0.7345
14699TIP3    H265513   5.964   6.659  12.128  2.5541  1.0082 -0.9211
14700TIP3   OH265514   3.744   2.503  12.420  0.0269  0.5266 -0.6134
14700TIP3    H165515   3.662   2.501  12.371 -0.3749  1.4267 -0.0012
14700TIP3    H265516   3.717   2.494  12.512  0.7366 -0.7100 -0.5024
14701TIP3   OH265517   1.145   3.589   4.226  0.2029  0.0444  0.0979
14701TIP3    H165518   1.075   3.634   4.272  0.2439 -0.2805  0.4912
14701TIP3    H265519   1.130   3.607   4.134 -1.6693 -1.7799 -0.0236
14702TIP3   OH265520   5.795   2.024   4.535 -0.5479  0.6503 -0.7134
14702TIP3    H165521   5.790   2.090   4.604 -1.6734 -0.0191 -0.1103
14702TIP3    H265522   5.744   1.951   4.569 -0.2095 -0.1181 -1.8098
14703TIP3   OH265523   0.525   2.652   1.696 -0.0179 -0.4363  0.0793
14703TIP3    H165524   0.526   2.747   1.701  1.2987 -0.1233 -3.3315
14703TIP3    H265525   0.539   2.622   1.786  0.0690  2.5567  1.1495
14704TIP3   OH265526   4.735   2.563  14.201 -0.4026 -0.1573  0.3499
14704TIP3    H165527   4.782   2.632  14.248  0.2461 -1.2895  1.4409
14704TIP3    H265528   4.710   2.603  14.117 -0.8088  1.6428  1.2887
14705TIP3   OH265529   5.843   4.162  13.187 -0.3160 -0.6180 -0.7481
14705TIP3    H165530   5.861   4.162  13.093  0.9702  1.3080 -0.5642
14705TIP3    H265531   5.905   4.098  13.223  0.8442  0.3338 -0.9894
14706TIP3   OH265532   3.665   4.222  14.831  0.1577 -0.7111  0.5240
14706TIP3    H165533   3.613   4.291  14.873  0.5669 -1.1591  1.8075
14706TIP3    H265534   3.739   4.209  14.890  1.0433 -0.9956 -0.6301
14707TIP3   OH265535   2.364   5.521   4.022 -0.0778  0.5974 -0.3814
14707TIP3    H165536   2.360   5.485   4.111 -2.5353 -0.9237 -1.0085
14707TIP3    H265537   2.381   5.446   3.966 -2.2225  0.8434 -1.4651
14708TIP3   OH265538   2.920   1.456  16.245  0.2321 -0.2919 -0.7558
14708TIP3    H165539   2.949   1.545  16.225 -2.0694  0.5302 -0.6613
14708TIP3    H265540   2.966   1.401  16.181  0.3880  1.1647 -1.9372
14709TIP3   OH265541   1.061   1.594  14.418  0.1490 -0.1224 -0.0199
14709TIP3    H165542   0.975   1.611  14.457  0.2405 -0.1398  0.1888
14709TIP3    H265543   1.045   1.597  14.324 -0.2221 -0.8124  0.0148
14710TIP3   OH265544   3.166   1.290  15.189 -0.0198  0.2188  0.5914
14710TIP3    H165545   3.087   1.249  15.153  0.0191 -0.4936  1.2779
14710TIP3    H265546   3.231   1.220  15.187  0.4663  0.6701  0.4644
14711TIP3   OH265547   0.318   5.493   2.843 -0.1455  0.3823 -0.6542
14711TIP3    H165548   0.323   5.405   2.807 -1.2162 -0.0209  0.1350
14711TIP3    H265549   0.368   5.489   2.925 -2.4532 -0.2862  0.8126
14712TIP3   OH265550   3.864   3.720  15.764 -0.4296 -0.2990  0.2657
14712TIP3    H165551   3.831   3.806  15.737 -0.2782  0.1613  1.4990
14712TIP3    H265552   3.799   3.689  15.827 -1.1257 -1.6490 -1.0712
14713TIP3   OH265553   3.563   2.447   5.912 -0.0494  0.5222  0.2478
14713TIP3    H165554   3.643   2.427   5.865  0.6697  0.4872  1.4514
14713TIP3    H265555   3.536   2.364   5.951 -0.1533  0.7289  0.6238
14714TIP3   OH265556   2.910   6.246  14.381  0.0876  0.3234  0.2775
14714TIP3    H165557   2.846   6.315  14.399  0.3497  1.2365 -1.8859
14714TIP3    H265558   2.991   6.293  14.360  0.8174 -0.7320  0.6297
14715TIP3   OH265559   5.002   4.939   5.466  0.2516 -0.3858  0.0969
14715TIP3    H165560   4.968   5.029   5.466  1.2809  0.0476  1.6811
14715TIP3    H265561   4.935   4.887   5.510 -0.8387 -0.6446 -1.7719
14716TIP3   OH265562   3.322   2.924   5.280  0.6494  0.3386 -0.3588
14716TIP3    H165563   3.318   2.863   5.354 -1.8670  1.5372  0.5822
14716TIP3    H265564   3.412   2.957   5.282  1.0951 -0.8510  1.1674
14717TIP3   OH265565   5.174   1.166  13.005 -0.1190 -0.4155  0.2454
14717TIP3    H165566   5.225   1.131  12.932  1.8383  0.3503  1.1669
14717TIP3    H265567   5.187   1.104  13.076  1.0238  0.6547  1.0148
14718TIP3   OH265568   6.018   2.131   3.569 -0.7151  0.1324  0.5807
14718TIP3    H165569   5.989   2.095   3.653  0.8659  0.5173  1.3352
14718TIP3    H265570   6.011   2.059   3.508  1.6285 -1.3539  1.8840
14719TIP3   OH265571   5.088   2.792   2.042 -0.4425 -0.3650  0.3839
14719TIP3    H165572   5.074   2.729   1.972  3.0128  0.3972 -1.1890
14719TIP3    H265573   5.074   2.877   2.000 -0.2335  0.0637  1.1648
14720TIP3   OH265574   1.168   4.417  12.151  0.2143 -0.3606  0.1289
14720TIP3    H165575   1.117   4.450  12.225  0.6110  2.1019 -0.5957
14720TIP3    H265576   1.164   4.487  12.086  0.4319 -2.1656 -1.9438
14721TIP3   OH265577   6.493   0.077   3.195 -0.3182  0.3862  0.5521
14721TIP3    H165578   6.418   0.028   3.163 -0.0121  0.7308 -0.7196
14721TIP3    H265579   6.482   0.078   3.290 -1.6895  0.0762  0.4071
14722TIP3   OH265580   3.109   1.783   4.534  0.1866 -0.1481 -0.5104
14722TIP3    H165581   3.146   1.871   4.534  1.2276 -0.5705 -0.2843
14722TIP3    H265582   3.114   1.755   4.442  0.9516 -0.3983 -0.4052
14723TIP3   OH265583   5.104   1.852   1.940 -1.0440  0.3639  0.5542
14723TIP3    H165584   5.070   1.919   1.881  0.4008  0.8365  0.2273
14723TIP3    H265585   5.090   1.887   2.028  0.3526  1.4476  0.3699
14724TIP3   OH265586   6.489   3.348   5.685  0.1578 -0.2332  0.0567
14724TIP3    H165587   6.452   3.403   5.754  0.0573 -0.6595  0.3507
14724TIP3    H265588   6.437   3.368   5.607  0.8573  0.9230 -0.1334
14725TIP3   OH265589   2.904   5.549   0.254  0.2735 -0.6592  0.4261
14725TIP3    H165590   2.875   5.496   0.179 -1.3585  0.1971  0.4111
14725TIP3    H265591   2.872   5.637   0.236 -0.6204 -0.5330  2.3609
14726TIP3   OH265592   0.346   0.060  15.630 -0.3208  0.0829 -0.2441
14726TIP3    H165593   0.296   0.121  15.685  1.0551 -0.2013  1.4330
14726TIP3    H265594   0.319  -0.027  15.660 -2.8839 -0.3248 -3.1745
14727TIP3   OH265595   2.923   0.962   4.557 -0.4905  0.5522 -0.2186
14727TIP3    H165596   2.964   0.881   4.525 -2.2295 -0.6148  0.3455
14727TIP3    H265597   2.988   1.000   4.615  0.2498 -0.6398 -0.2191
14728TIP3   OH265598   6.340   6.327  15.242 -0.6582 -0.2576 -0.5042
14728TIP3    H165599   6.288   6.404  15.264  2.0578  0.8968  2.6394
14728TIP3    H265600   6.331   6.270  15.319 -0.8288 -2.1057 -1.8365
14729TIP3   OH265601   4.497   5.699   3.988 -0.5839 -0.4127  0.2495
14729TIP3    H165602   4.513   5.783   4.030 -1.1211  0.0808 -0.5085
14729TIP3    H265603   4.555   5.638   4.033  0.3319  0.4992  0.3341
14730TIP3   OH265604   4.213   4.764   1.930  0.1077  0.0471  0.7989
14730TIP3    H165605   4.264   4.690   1.964 -0.0850  0.3062  1.6684
14730TIP3    H265606   4.250   4.840   1.974  1.5041  0.7346 -1.3879
14731TIP3   OH265607   1.661   4.447  15.070 -0.5847 -0.1498 -0.7384
14731TIP3    H165608   1.582   4.495  15.044 -0.6171  1.0702  1.3191
14731TIP3    H265609   1.732   4.510  15.059 -0.3113 -0.3244 -0.0285
14732TIP3   OH265610   6.272   1.327   5.713 -0.2570  0.3862  0.5225
14732TIP3    H165611   6.272   1.308   5.807 -0.0802 -1.2339  0.2230
14732TIP3    H265612   6.341   1.271   5.677 -0.4836  0.8044 -0.6121
14733TIP3   OH265613   3.196   4.114   1.388 -0.4843  0.0831 -0.0960
14733TIP3    H165614   3.162   4.025   1.383 -1.4328  0.4974 -1.5912
14733TIP3    H265615   3.158   4.159   1.313 -1.1765  2.1590  1.3834
14734TIP3   OH265616   4.614   6.642   1.489  0.6095 -0.6869 -0.0949
14734TIP3    H165617   4.616   6.731   1.523 -0.4207 -0.4121 -0.7078
14734TIP3    H265618   4.638   6.651   1.397  0.3347 -1.0185 -0.2005
14735TIP3   OH265619   1.143   3.506   6.192 -0.6906 -0.0629  0.7098
14735TIP3    H165620   1.228   3.522   6.232 -0.8724 -0.1726  1.1587
14735TIP3    H265621   1.081   3.551   6.250 -0.7894  1.5594 -0.6107
14736TIP3   OH265622   4.665   6.278  15.751  0.3895 -0.6342  0.1355
14736TIP3    H165623   4.620   6.356  15.719  1.2008  0.9072  2.4629
14736TIP3    H265624   4.737   6.265  15.688  0.0257  0.2733 -0.4973
14737TIP3   OH265625   0.865   6.324  11.295 -0.0213  0.2545  0.3558
14737TIP3    H165626   0.829   6.401  11.251  0.4153  0.8249  0.9758
14737TIP3    H265627   0.852   6.341  11.388 -1.9080 -1.4239  0.4577
14738TIP3   OH265628   2.412   4.273  15.402  0.0614  0.0346  0.3133
14738TIP3    H165629   2.403   4.314  15.488 -1.8021  1.9808 -0.7026
14738TIP3    H265630   2.497   4.302  15.371  0.6812 -0.5468  1.4161
14739TIP3   OH265631   0.888   5.895  15.748 -0.3917 -0.1048  0.1485
14739TIP3    H165632   0.967   5.850  15.718  0.2939  0.8335  0.5309
14739TIP3    H265633   0.833   5.825  15.785  1.6912 -0.3929  3.0256
14740TIP3   OH265634   2.935   2.939   5.087  0.3173  0.6740 -0.1769
14740TIP3    H165635   2.929   2.847   5.061 -0.6178  0.8148 -0.4830
14740TIP3    H265636   3.028   2.960   5.077  0.7448 -0.5234  0.9248
14741TIP3   OH265637   3.490   6.007  12.765 -0.7036  0.0864  0.0229
14741TIP3    H165638   3.415   6.066  12.777 -1.4585 -0.7928 -0.2127
14741TIP3    H265639   3.500   6.000  12.670 -0.8093 -0.3827  0.0428
14742TIP3   OH265640   2.488   0.418   3.540 -0.9269  0.6161  1.4415
14742TIP3    H165641   2.526   0.489   3.591  0.3486 -1.0747  2.9936
14742TIP3    H265642   2.490   0.343   3.599 -2.6362 -0.6255  0.0256
14743TIP3   OH265643   3.688   4.711   4.497  0.5376  0.3720  0.6930
14743TIP3    H165644   3.618   4.646   4.501  1.4990 -0.7236  0.3218
14743TIP3    H265645   3.663   4.777   4.561  0.2754 -1.1346  2.2052
14744TIP3   OH265646   5.725   3.837   5.916  0.0301  0.3644 -0.0494
14744TIP3    H165647   5.773   3.920   5.904 -1.7706  1.3272 -0.9172
14744TIP3    H265648   5.712   3.831   6.010 -2.2201  2.5694 -0.1175
14745TIP3   OH265649   1.292   2.718  10.993  0.6490  0.1536 -0.5098
14745TIP3    H165650   1.361   2.759  10.941 -0.5036  1.7610 -0.8712
14745TIP3    H265651   1.214   2.722  10.936 -0.1305 -0.0773  0.5079
14746TIP3   OH265652   0.456   2.505   1.060 -0.0011  0.6403 -0.1394
14746TIP3    H165653   0.406   2.437   1.014  0.3634  0.4838 -0.3152
14746TIP3    H265654   0.546   2.491   1.031  0.4034 -0.0592  1.3251
14747TIP3   OH265655   1.248   3.766   4.599 -0.2402 -0.3056 -0.4860
14747TIP3    H165656   1.209   3.684   4.626 -0.3604 -0.3137 -0.6780
14747TIP3    H265657   1.173   3.824   4.583 -0.1782 -0.3493 -0.9427
14748TIP3   OH265658   6.104   6.488   2.795  0.7713 -0.1227  0.0191
14748TIP3    H165659   6.065   6.511   2.880 -2.0854  1.0647 -1.4980
14748TIP3    H265660   6.131   6.572   2.758 -1.3749 -0.1145 -1.7203
14749TIP3   OH265661   6.616   3.150   1.687 -0.4580  0.1986  0.0030
14749TIP3    H165662   6.702   3.164   1.647 -0.2647  0.1278  0.3922
14749TIP3    H265663   6.632   3.082   1.753 -0.8790 -0.0561 -0.1545
14750TIP3   OH265664   6.695   3.453   5.920  0.3653  0.1927 -0.1125
14750TIP3    H165665   6.758   3.522   5.898  0.6719  0.7461  2.2113
14750TIP3    H265666   6.612   3.483   5.884  1.1239  0.0849 -2.0845
14751TIP3   OH265667   0.166   5.138   1.156 -0.4063 -0.3754  0.2079
14751TIP3    H165668   0.231   5.078   1.193  0.2064  0.4604  0.5252
14751TIP3    H265669   0.190   5.224   1.191 -1.8891 -0.0922  0.5751
14752TIP3   OH265670   0.899   4.010  14.952 -0.8437 -0.4172 -0.2338
14752TIP3    H165671   0.979   3.968  14.984  0.4687  0.4119 -2.2717
14752TIP3    H265672   0.832   3.988  15.018  1.1801 -0.5669  1.8894
14753TIP3   OH265673   4.053   4.985   5.792 -0.3196  0.4676  0.3732
14753TIP3    H165674   4.023   5.059   5.739  1.7799  1.2721  0.2039
14753TIP3    H265675   4.070   5.023   5.878  1.9914  0.5545 -0.0506
14754TIP3   OH265676   1.845   0.168   2.998  0.2692 -0.0015 -0.0336
14754TIP3    H165677   1.801   0.151   2.915  0.3869 -1.5700  0.2049
14754TIP3    H265678   1.885   0.085   3.022  2.0473  0.9679  0.5506
14755TIP3   OH265679   6.508   4.731   1.761  0.0705 -0.2886 -0.6185
14755TIP3    H165680   6.540   4.728   1.851 -0.2260  2.1336 -0.3548
14755TIP3    H265681   6.524   4.644   1.727  1.0111 -1.0165  1.5000
14756TIP3   OH265682   4.553   1.106   2.918  0.0258 -0.0770  0.3566
14756TIP3    H165683   4.568   1.196   2.889 -2.4986  0.0136 -0.9824
14756TIP3    H265684   4.567   1.052   2.840  0.3418 -0.7178  0.8443
14757TIP3   OH265685   4.990   4.430  14.553 -0.2915 -0.8462 -0.4915
14757TIP3    H165686   5.066   4.376  14.574 -0.3503 -0.3558  1.1697
14757TIP3    H265687   4.942   4.437  14.636 -0.0220  2.1171 -0.4614
14758TIP3   OH265688   1.728   6.496   4.518 -0.2259 -0.1187  0.5136
14758TIP3    H165689   1.821   6.519   4.517  0.0973 -1.3772 -0.3862
14758TIP3    H265690   1.720   6.430   4.587 -0.0888 -1.3303 -0.5909
14759TIP3   OH265691   3.895   5.452  16.468 -0.0891  0.4820  0.2680
14759TIP3    H165692   3.882   5.381  16.531 -0.8404  1.0871  0.8048
14759TIP3    H265693   3.869   5.413  16.384 -0.5056  0.1154  0.5583
14760TIP3   OH265694   2.905   4.295  11.730 -0.6260 -0.3356 -0.1393
14760TIP3    H165695   2.832   4.268  11.786  0.2083 -2.0075  0.2039
14760TIP3    H265696   2.939   4.374  11.771 -2.1857  0.4351 -0.2697
14761TIP3   OH265697   4.741   2.243   0.286 -0.2493 -0.3497  0.2624
14761TIP3    H165698   4.825   2.238   0.241 -0.8688  0.6060 -1.0804
14761TIP3    H265699   4.738   2.165   0.342  1.7698 -0.0673  0.8216
14762TIP3   OH265700   2.217   0.474  15.835 -1.1604 -1.0677  0.2083
14762TIP3    H165701   2.247   0.564  15.838 -0.8958 -1.0968 -0.9710
14762TIP3    H265702   2.123   0.479  15.854 -1.4696 -0.3429 -1.3684
14763TIP3   OH265703   4.413   5.765   3.708 -0.1505 -0.4552 -0.6237
14763TIP3    H165704   4.443   5.724   3.789 -1.7099  0.3657  0.4086
14763TIP3    H265705   4.423   5.697   3.642  0.9477 -1.2122  0.2894
14764TIP3   OH265706   6.699   4.643   6.250  0.1516 -0.4536 -0.0427
14764TIP3    H165707   6.671   4.555   6.223  0.4674 -0.4210 -0.4856
14764TIP3    H265708   6.654   4.658   6.333 -0.2434 -0.8622 -0.1776
14765TIP3   OH265709   3.368   1.315   0.304 -0.3112 -0.2106  0.4999
14765TIP3    H165710   3.354   1.280   0.216 -1.3806 -0.5090  0.7832
14765TIP3    H265711   3.378   1.409   0.291  1.3325 -0.4356 -0.1244
14766TIP3   OH265712   3.337   0.648  12.358 -0.1793  0.2371 -0.0818
14766TIP3    H165713   3.275   0.585  12.393  0.1430  0.2988  0.6111
14766TIP3    H265714   3.357   0.616  12.270 -1.5616  0.4878 -0.5148
14767TIP3   OH265715   1.153   0.742  12.218  0.2823 -0.2253 -0.0680
14767TIP3    H165716   1.155   0.807  12.288  1.1484  0.0915 -0.3769
14767TIP3    H265717   1.061   0.737  12.192  0.3397  1.6230 -0.7498
14768TIP3   OH265718   0.115   6.422  16.747 -0.5674  0.4402  0.3033
14768TIP3    H165719   0.043   6.391  16.693 -1.0632  0.9862  0.6387
14768TIP3    H265720   0.082   6.420  16.837 -0.3136  1.0932  0.4184
14769TIP3   OH265721   2.294   4.057  13.393  1.0397 -0.0280 -0.7010
14769TIP3    H165722   2.320   4.130  13.337  2.4213 -0.6087 -0.8543
14769TIP3    H265723   2.370   3.999  13.394  1.0732 -0.0514  1.7963
14770TIP3   OH265724   0.576   3.291   4.882 -0.1199  0.2170 -0.3966
14770TIP3    H165725   0.501   3.288   4.942 -1.7102 -1.2820 -2.2978
14770TIP3    H265726   0.651   3.267   4.936 -1.1647  0.7696  1.3733
14771TIP3   OH265727   6.244   1.065   0.021  0.4638  0.1358 -0.0702
14771TIP3    H165728   6.290   1.144   0.047  1.2469 -0.0971 -0.6990
14771TIP3    H265729   6.225   1.077  -0.072  0.0150 -0.1367 -0.0167
14772TIP3   OH265730   4.721   2.371  14.670  0.5257 -0.2726 -0.2287
14772TIP3    H165731   4.752   2.381  14.580  1.9143 -0.7804  0.1678
14772TIP3    H265732   4.658   2.442  14.682  1.1977  0.5124 -1.2413
14773TIP3   OH265733   2.464   4.549   1.071  0.0230  0.1756  0.0908
14773TIP3    H165734   2.544   4.571   1.022  0.2074 -0.1585  0.2415
14773TIP3    H265735   2.491   4.550   1.163 -0.0744 -0.2444  0.1243
14774TIP3   OH265736   3.213   6.414  13.619  0.1864 -0.3425  0.2386
14774TIP3    H165737   3.162   6.337  13.641  0.8088 -0.9033 -0.2190
14774TIP3    H265738   3.298   6.379  13.591  0.8632  0.5594  1.0686
14775TIP3   OH265739   0.994   4.493  12.456  0.3589  0.3297 -0.1969
14775TIP3    H165740   1.064   4.545  12.496 -0.2614  1.5455 -0.6505
14775TIP3    H265741   0.917   4.549  12.460 -0.6165 -1.0092  0.3268
14776TIP3   OH265742   4.734   5.522   3.907  0.0498  0.2815  0.0150
14776TIP3    H165743   4.696   5.595   3.858  1.1041  0.8786  0.0595
14776TIP3    H265744   4.826   5.547   3.920 -0.3853  0.5837  3.1557
14777TIP3   OH265745   2.334   1.643   3.746 -0.5107  0.3487 -0.1834
14777TIP3    H165746   2.361   1.714   3.804 -1.4008 -0.5652  1.4510
14777TIP3    H265747   2.413   1.620   3.698 -0.3638  2.8552 -1.2829
14778TIP3   OH265748   3.275   2.763   4.399 -0.3150 -0.0659 -0.2783
14778TIP3    H165749   3.271   2.857   4.416 -0.1483 -0.2554  0.9023
14778TIP3    H265750   3.271   2.723   4.486  0.7913 -1.1053 -0.6726
14779TIP3   OH265751   6.591   1.015   2.843  0.0266 -0.6132 -0.2383
14779TIP3    H165752   6.508   1.016   2.797 -0.2677 -1.7961  0.2236
14779TIP3    H265753   6.570   0.981   2.930  1.1381 -2.0295 -0.4766
14780TIP3   OH265754   2.746   5.038  15.778 -0.2133 -0.5461  0.8597
14780TIP3    H165755   2.761   5.120  15.732 -0.2962 -0.9863  0.0378
14780TIP3    H265756   2.707   5.064  15.862  1.0234  0.3318  1.1921
14781TIP3   OH265757   1.689   5.242   5.707 -0.3379 -0.1501 -0.4718
14781TIP3    H165758   1.692   5.253   5.612  0.0026  0.0208 -0.4454
14781TIP3    H265759   1.602   5.209   5.725 -0.7166  0.6553 -0.7630
14782TIP3   OH265760   4.181   1.539  15.320 -0.5632 -0.7395  0.3236
14782TIP3    H165761   4.172   1.513  15.228  1.2331  1.3977 -0.5454
14782TIP3    H265762   4.139   1.624  15.325  1.3593  0.2516  0.8404
14783TIP3   OH265763   0.333   2.949  15.539  0.4106 -0.3347  0.1666
14783TIP3    H165764   0.389   2.907  15.605  0.1342 -0.1547  0.5175
14783TIP3    H265765   0.395   2.983  15.474  0.6586 -0.9323  0.0802
14784TIP3   OH265766   2.964   3.043  11.642  0.0398  0.1839  0.2649
14784TIP3    H165767   3.050   3.082  11.630 -0.1283  1.2581  2.1572
14784TIP3    H265768   2.982   2.951  11.663  0.5428 -0.3242 -2.1776
14785TIP3   OH265769   4.183   2.924   5.536 -0.3104 -0.7392 -0.0757
14785TIP3    H165770   4.129   2.900   5.612 -0.7795 -2.4201 -0.8966
14785TIP3    H265771   4.169   2.854   5.473  0.7719  0.1638 -1.3882
14786TIP3   OH265772   2.132   5.470   6.151  0.2729  0.1381 -0.5460
14786TIP3    H165773   2.153   5.563   6.145 -0.2024  0.1533 -3.3390
14786TIP3    H265774   2.049   5.461   6.103  0.0892 -1.6566  0.0369
14787TIP3   OH265775   1.954   4.461  13.650 -0.2590 -0.4178  0.1098
14787TIP3    H165776   1.916   4.438  13.565  0.4538  0.5118 -0.4782
14787TIP3    H265777   2.034   4.508  13.629 -0.7841  1.0750  1.2624
14788TIP3   OH265778   4.729   2.741   1.263  0.0049 -0.1170  0.3038
14788TIP3    H165779   4.796   2.810   1.261 -0.3124  0.1855 -0.1485
14788TIP3    H265780   4.749   2.691   1.342  0.9504 -0.2256  0.0134
14789TIP3   OH265781   1.635   1.736   0.471 -0.4569 -0.3443 -0.4093
14789TIP3    H165782   1.552   1.716   0.513 -0.1258 -1.7871 -0.3944
14789TIP3    H265783   1.699   1.679   0.515  0.5625  0.7873 -0.3630
14790TIP3   OH265784   0.397   4.650  12.402 -0.1727 -0.1378 -0.2095
14790TIP3    H165785   0.350   4.670  12.322 -0.7320 -0.4750  0.0302
14790TIP3    H265786   0.343   4.685  12.473 -0.2675 -0.8548  0.0908
14791TIP3   OH265787   6.333   4.980  17.030  0.1907 -0.2731  0.2418
14791TIP3    H165788   6.370   5.039  17.095  1.0132 -0.1016 -0.3696
14791TIP3    H265789   6.295   5.038  16.964  0.8150 -0.4266 -0.2562
14792TIP3   OH265790   2.421   5.413   4.293 -0.2685  0.9629  0.0971
14792TIP3    H165791   2.392   5.497   4.331 -1.4340  1.1120 -1.0608
14792TIP3    H265792   2.350   5.352   4.313  0.5126  0.2458  0.8096
14793TIP3   OH265793   5.504   0.083   2.460 -0.2056 -0.3086 -0.6396
14793TIP3    H165794   5.503   0.027   2.538 -0.4991  0.9128  0.2769
14793TIP3    H265795   5.420   0.066   2.418 -1.8003  1.7573  1.4277
14794TIP3   OH265796   2.129   0.700  16.170 -0.4008  0.1612 -0.2189
14794TIP3    H165797   2.055   0.672  16.224 -0.6754  0.8527 -0.2218
14794TIP3    H265798   2.199   0.715  16.233 -0.3326 -0.2666 -0.1899
14795TIP3   OH265799   6.222   4.293   4.484 -0.0009 -0.2102  0.5744
14795TIP3    H165800   6.259   4.268   4.399  0.2670  0.2247  0.5586
14795TIP3    H265801   6.226   4.389   4.484  0.1485 -0.2152  1.1423
14796TIP3   OH265802   1.571   1.817   5.058  0.3738  0.0134  0.0560
14796TIP3    H165803   1.555   1.764   5.136 -0.2886  1.1013  0.6714
14796TIP3    H265804   1.573   1.907   5.089  1.5556  0.3715 -0.9691
14797TIP3   OH265805   6.622   3.508  16.014 -0.0265  0.3111  0.3630
14797TIP3    H165806   6.546   3.479  16.064  0.2909  1.0272  1.2827
14797TIP3    H265807   6.644   3.594  16.051  2.2014 -0.5549  1.2310
14798TIP3   OH265808   2.377   4.853   1.186 -0.7628 -0.7050 -0.2713
14798TIP3    H165809   2.394   4.945   1.164 -1.0677 -0.5754  0.0192
14798TIP3    H265810   2.428   4.838   1.266 -0.5416 -0.8512 -0.4398
14799TIP3   OH265811   3.452   4.830  11.633  0.0114  0.4950  0.1564
14799TIP3    H165812   3.463   4.880  11.713 -0.7968  0.5127  0.2563
14799TIP3    H265813   3.504   4.877  11.568 -0.2481  1.1144  0.3970
14800TIP3   OH265814   6.124   3.449  12.698 -0.6622 -0.7490 -0.0415
14800TIP3    H165815   6.164   3.374  12.742 -0.9691 -0.4638  0.7430
14800TIP3    H265816   6.044   3.466  12.748 -0.2766  0.4906  0.1912
14801TIP3   OH265817   4.251   5.906  15.823 -0.4294  0.1181 -0.2565
14801TIP3    H165818   4.159   5.906  15.852 -0.8743  0.5176 -1.5860
14801TIP3    H265819   4.276   5.998  15.823 -0.7063  0.2124 -1.8885
14802TIP3   OH265820   2.295   2.492   5.725  0.1191  0.3020  1.1742
14802TIP3    H165821   2.325   2.583   5.726 -1.3356  0.8040  1.6433
14802TIP3    H265822   2.271   2.474   5.816  0.1228 -0.4597  1.0308
14803TIP3   OH265823   6.081   2.310   5.964 -0.6680 -0.0067 -0.0719
14803TIP3    H165824   6.175   2.308   5.986 -0.7187  0.7521  0.2462
14803TIP3    H265825   6.037   2.291   6.047 -0.8298  1.4743  0.2101
14804TIP3   OH265826   3.167   6.239  15.850 -0.1569 -0.0539  0.0966
14804TIP3    H165827   3.233   6.309  15.845 -1.5531  1.3648  0.9126
14804TIP3    H265828   3.199   6.182  15.920  0.7128  0.0480 -0.1993
14805TIP3   OH265829   5.976   3.370   0.434 -0.4109  0.1370 -0.3043
14805TIP3    H165830   6.005   3.448   0.480  0.5585 -0.6221  0.4233
14805TIP3    H265831   5.937   3.402   0.353 -1.4755  1.4603  0.6855
14806TIP3   OH265832   1.191   0.495   5.554 -0.0453  0.3115  0.4944
14806TIP3    H165833   1.266   0.440   5.574 -0.6753 -0.7589 -0.0206
14806TIP3    H265834   1.205   0.575   5.606  2.2818  0.8628 -0.8543
14807TIP3   OH265835   2.013   0.961  16.298 -0.2719 -0.0167  0.2314
14807TIP3    H165836   1.988   0.958  16.206 -1.6937 -0.4885  0.6071
14807TIP3    H265837   1.996   0.873  16.331  1.5355 -0.2477  0.6530
14808TIP3   OH265838   6.603   2.570   4.508  0.5176  0.1576 -0.1987
14808TIP3    H165839   6.614   2.478   4.533 -1.6969  0.1035  0.8157
14808TIP3    H265840   6.516   2.574   4.468  0.6877  1.7553 -0.4651
14809TIP3   OH265841   3.797   0.871  10.502 -0.5087 -0.1495 -0.2966
14809TIP3    H165842   3.871   0.930  10.489 -0.0959 -0.6504 -0.2868
14809TIP3    H265843   3.836   0.792  10.541 -1.0642 -0.3757 -0.1866
14810TIP3   OH265844   2.748   2.935  11.453  0.7308  0.0477 -0.5266
14810TIP3    H165845   2.734   2.841  11.440  2.1776  0.1565 -3.8971
14810TIP3    H265846   2.841   2.943  11.474  1.3034  0.8177 -3.0691
14811TIP3   OH265847   5.590   2.933  10.905  0.4416  0.0526  0.3585
14811TIP3    H165848   5.685   2.944  10.895  0.1001  1.1577 -2.6164
14811TIP3    H265849   5.576   2.839  10.895  1.2277 -0.2017  1.4096
14812TIP3   OH265850   2.324   3.606   5.902  0.1443  0.1974  0.1917
14812TIP3    H165851   2.249   3.603   5.842 -0.0494  0.1785  0.4346
14812TIP3    H265852   2.352   3.515   5.910 -0.8567 -0.0335  1.4141
14813TIP3   OH265853   1.223   4.366   5.038  0.4818  0.7105  0.5342
14813TIP3    H165854   1.156   4.395   4.975  0.1861 -0.2520  0.3835
14813TIP3    H265855   1.304   4.407   5.007 -0.1232  2.4748  1.1186
14814TIP3   OH265856   1.786   3.134  14.470  0.2591 -0.2607  0.2123
14814TIP3    H165857   1.791   3.189  14.392  0.3379  2.9580  2.3165
14814TIP3    H265858   1.837   3.180  14.536 -0.6413 -2.2910  2.5108
14815TIP3   OH265859   1.805   3.125   0.483 -0.6778  0.0334  0.4015
14815TIP3    H165860   1.728   3.093   0.529 -0.0777  0.8974  2.0776
14815TIP3    H265861   1.879   3.098   0.537  0.0012  1.7755  0.4111
14816TIP3   OH265862   5.870   1.439  16.769 -0.1933  0.0079 -0.1474
14816TIP3    H165863   5.964   1.455  16.777 -0.3750  1.2319 -0.2364
14816TIP3    H265864   5.831   1.526  16.778 -1.1184  0.0230 -3.3168
14817TIP3   OH265865   3.422   5.127  12.951 -0.4107 -0.6008 -0.6942
14817TIP3    H165866   3.344   5.177  12.975  0.2514  0.2978 -0.3489
14817TIP3    H265867   3.418   5.119  12.856 -0.9278 -0.5865 -0.6768
14818TIP3   OH265868   6.544   5.262   1.880 -0.2765  0.7270  0.5972
14818TIP3    H165869   6.578   5.337   1.832  0.2920  1.8635  2.6417
14818TIP3    H265870   6.483   5.300   1.944 -1.3348 -0.7546  0.5279
14819TIP3   OH265871   5.007   1.208   3.515  0.4087 -0.6181  0.4161
14819TIP3    H165872   4.924   1.162   3.515  0.4859 -0.7592  0.7709
14819TIP3    H265873   5.041   1.197   3.604 -0.2427  1.3335  0.9643
14820TIP3   OH265874   0.003   2.050   1.121 -0.0059 -0.0369 -0.5058
14820TIP3    H165875   0.063   2.085   1.186  0.5411 -2.9244  0.6930
14820TIP3    H265876  -0.019   1.962   1.153 -0.8848 -1.0245 -3.4849
14821TIP3   OH265877   6.074   3.386  11.483  0.8397 -0.0669 -0.0558
14821TIP3    H165878   6.106   3.325  11.418 -0.9176 -1.2304  0.1047
14821TIP3    H265879   6.062   3.334  11.562  1.7609  1.0529  0.8638
14822TIP3   OH265880   2.783   0.961   2.792 -0.6882 -0.2047  0.0369
14822TIP3    H165881   2.816   1.029   2.733 -0.5256  0.0932  0.4723
14822TIP3    H265882   2.803   0.993   2.880  0.0365 -1.1261  0.2302
14823TIP3   OH265883   2.570   6.566  14.887  0.4694 -0.3208  0.1743
14823TIP3    H165884   2.539   6.630  14.823  1.1931 -0.5270 -0.3901
14823TIP3    H265885   2.526   6.590  14.968  0.5942  0.7877 -0.0734
14824TIP3   OH265886   4.170   6.435   2.046  0.2157 -0.8004 -0.1071
14824TIP3    H165887   4.139   6.525   2.035  0.5931 -0.9547 -3.7695
14824TIP3    H265888   4.262   6.445   2.070  0.2916 -0.1838 -0.6079
14825TIP3   OH265889   1.731   5.171  15.455  0.1532 -0.1436  0.9414
14825TIP3    H165890   1.644   5.131  15.449 -0.3254  0.6506  2.0384
14825TIP3    H265891   1.792   5.098  15.455 -0.5332 -0.7333  0.5093
14826TIP3   OH265892   3.921   0.098  16.764  0.0824  0.2840  0.0393
14826TIP3    H165893   3.947   0.181  16.803  2.6046 -0.3672 -0.0773
14826TIP3    H265894   3.839   0.117  16.719  0.1292  2.4633  0.7594
14827TIP3   OH265895   1.570   3.522  10.219 -0.6752  0.1050 -0.3893
14827TIP3    H165896   1.648   3.563  10.181  0.4432 -1.4891  0.0812
14827TIP3    H265897   1.534   3.589  10.276 -1.6716  2.1112 -3.1516
14828TIP3   OH265898   6.649   4.686   1.380 -0.0915  0.1353  0.2899
14828TIP3    H165899   6.694   4.627   1.439  1.1807  1.2219  0.4560
14828TIP3    H265900   6.660   4.773   1.419 -1.7161  0.5234 -0.0535
14829TIP3   OH265901   3.872   2.597   1.723  0.3738 -0.4382  0.1687
14829TIP3    H165902   3.958   2.590   1.764 -0.0883 -0.1724  1.2084
14829TIP3    H265903   3.878   2.674   1.667  0.4020  0.4081  1.2989
14830TIP3   OH265904   4.701   3.108  17.028 -0.2828  0.0351  0.0241
14830TIP3    H165905   4.663   3.168  17.092  2.4835 -0.3424  2.1892
14830TIP3    H265906   4.628   3.051  17.003 -1.6191  0.5860  2.3677
14831TIP3   OH265907   2.058   4.772   3.862 -0.5350 -0.2556  0.4210
14831TIP3    H165908   1.994   4.716   3.906 -1.4517  1.9775  2.1032
14831TIP3    H265909   2.006   4.839   3.819  0.6143  1.1051  1.0877
14832TIP3   OH265910   1.405   5.176   5.669  0.0318  0.6296 -0.1852
14832TIP3    H165911   1.333   5.182   5.732 -0.1882 -0.0509 -0.3683
14832TIP3    H265912   1.363   5.160   5.585  0.3455  1.2136 -0.4603
14833TIP3   OH265913   1.504   3.599  12.170  0.4146  0.0929  0.1650
14833TIP3    H165914   1.542   3.619  12.257  2.8364  0.2313 -0.8316
14833TIP3    H265915   1.581   3.586  12.114 -1.1076 -0.6633 -1.8244
14834TIP3   OH265916   6.617   4.819   3.552 -0.4430 -0.1426  0.5947
14834TIP3    H165917   6.650   4.908   3.561 -1.5229  0.3097  0.3491
14834TIP3    H265918   6.559   4.823   3.475  0.0469 -1.2272  0.1461
14835TIP3   OH265919   1.192   3.184   0.707  0.7075 -0.1027  0.2447
14835TIP3    H165920   1.146   3.227   0.779  2.8392  0.3717  1.3908
14835TIP3    H265921   1.285   3.198   0.725  1.3395 -0.5834 -2.2443
14836TIP3   OH265922   2.371   5.855  15.704  0.2924  0.1516  0.0891
14836TIP3    H165923   2.441   5.915  15.676  2.5272 -2.4718 -0.5154
14836TIP3    H265924   2.297   5.876  15.647  0.6379  2.8139  0.4996
14837TIP3   OH265925   3.698   0.391   1.619 -1.1796  0.0229  0.2388
14837TIP3    H165926   3.708   0.300   1.646 -1.0730 -0.0055  0.1018
14837TIP3    H265927   3.619   0.392   1.565 -1.9857  0.2620  1.3874
14838TIP3   OH265928   4.148   3.706  13.783  0.3608  0.2956 -0.2543
14838TIP3    H165929   4.115   3.655  13.709 -3.3571  0.2407  1.2287
14838TIP3    H265930   4.126   3.797  13.761  2.3147  0.7307 -0.6150
14839TIP3   OH265931   4.680   6.477   2.323 -0.2908  0.5125  0.1193
14839TIP3    H165932   4.761   6.443   2.362 -1.2104  0.4280  2.0720
14839TIP3    H265933   4.704   6.563   2.288  1.5490 -1.0363 -2.9376
14840TIP3   OH265934   3.208   6.742   5.745 -0.6908  0.1421 -0.3014
14840TIP3    H165935   3.295   6.762   5.779 -0.1355  0.1137 -1.6723
14840TIP3    H265936   3.148   6.793   5.800  0.2108  0.4222  0.4352
14841TIP3   OH265937   1.109   0.230  12.782 -0.4386  0.1508  0.5734
14841TIP3    H165938   1.196   0.195  12.765 -1.5193 -2.4969  0.0739
14841TIP3    H265939   1.122   0.325  12.789  2.3636 -0.1178 -0.0084
14842TIP3   OH265940   1.046   0.704   3.965  0.9172  0.2494 -0.1928
14842TIP3    H165941   0.993   0.731   4.040  1.0605  0.7627 -0.2666
14842TIP3    H265942   1.002   0.627   3.930  0.1011  0.7893 -0.3790
14843TIP3   OH265943   5.597   0.095  16.172  0.0255  0.0647 -0.5602
14843TIP3    H165944   5.570   0.142  16.093 -0.3313  2.9995  1.1284
14843TIP3    H265945   5.553   0.142  16.243  3.9559  0.6677  1.7694
14844TIP3   OH265946   1.202   6.392  11.252  0.1596  0.1669  0.1172
14844TIP3    H165947   1.205   6.431  11.165 -0.0300 -1.2447 -0.5472
14844TIP3    H265948   1.110   6.396  11.277  0.4075  1.9508  0.9478
14845TIP3   OH265949   6.593   2.123  14.225  0.2477 -0.7407  0.0264
14845TIP3    H165950   6.679   2.152  14.195  0.0311 -0.5381 -0.4025
14845TIP3    H265951   6.581   2.037  14.186  0.9171 -1.4688  1.3497
14846TIP3   OH265952   3.256   3.370  14.754 -0.2102  0.2133  0.5897
14846TIP3    H165953   3.284   3.460  14.769 -1.1385  0.3662  1.4410
14846TIP3    H265954   3.313   3.317  14.810  0.9494  0.1631 -0.5856
14847TIP3   OH265955   5.857   0.203  17.212  0.3852 -0.2927 -0.0523
14847TIP3    H165956   5.942   0.245  17.229  0.3990 -0.6602  0.8245
14847TIP3    H265957   5.855   0.128  17.272  0.1448 -1.2649 -1.2259
14848TIP3   OH265958   5.485   5.539   4.340 -0.3883 -0.1018  0.0633
14848TIP3    H165959   5.407   5.587   4.368 -0.1343 -0.6996  1.9545
14848TIP3    H265960   5.458   5.491   4.262 -2.2655 -1.1601  1.3000
14849TIP3   OH265961   4.782   0.436  16.551  0.2262  0.2815 -0.0268
14849TIP3    H165962   4.708   0.466  16.605 -0.8408 -0.7916 -0.8292
14849TIP3    H265963   4.848   0.408  16.614 -0.4330  0.3661  0.7230
14850TIP3   OH265964   2.531   4.432  16.576 -0.1523  0.1489  0.3453
14850TIP3    H165965   2.507   4.353  16.625 -1.4921  0.3115 -0.0011
14850TIP3    H265966   2.496   4.503  16.629 -0.3649  0.4135 -0.1508
14851TIP3   OH265967   0.786   0.585   3.862 -0.0718 -0.3084 -0.4880
14851TIP3    H165968   0.800   0.506   3.809 -0.2512 -0.7648  0.1303
14851TIP3    H265969   0.768   0.654   3.799  1.1948 -0.5205 -1.1143
14852TIP3   OH265970   2.319   5.491   6.426 -0.5169  0.3242  0.6145
14852TIP3    H165971   2.250   5.428   6.447 -0.3822 -0.7992 -2.0435
14852TIP3    H265972   2.274   5.560   6.377 -0.1280  0.8251  0.9445
14853TIP3   OH265973   5.591   1.037   4.798 -0.6631 -0.4669 -0.0717
14853TIP3    H165974   5.592   0.958   4.743  0.7193 -1.7058  1.6412
14853TIP3    H265975   5.500   1.066   4.795 -1.1216 -1.8754 -1.0802
14854TIP3   OH265976   5.781   3.607  11.565  0.2626  0.5941 -0.1058
14854TIP3    H165977   5.724   3.534  11.589 -2.1824  2.3130 -0.2957
14854TIP3    H265978   5.805   3.590  11.474  0.1500 -0.2137  0.0116
14855TIP3   OH265979   0.019   3.239  16.057 -0.3398  0.3955  0.7626
14855TIP3    H165980   0.109   3.247  16.024 -1.0026  0.2593 -1.1437
14855TIP3    H265981  -0.025   3.318  16.027 -0.8694  0.4770  1.7177
14856TIP3   OH265982   3.646   4.712  16.280 -0.4577 -0.2026 -0.0714
14856TIP3    H165983   3.720   4.733  16.338 -2.2265  2.4544  1.4311
14856TIP3    H265984   3.644   4.785  16.218 -2.0349 -0.0054  0.1842
14857TIP3   OH265985   6.687   1.434  11.852  0.3031  0.3958  0.0233
14857TIP3    H165986   6.713   1.515  11.809 -1.1849  1.7037  1.4339
14857TIP3    H265987   6.616   1.400  11.797 -0.6663  1.3390  0.6340
14858TIP3   OH265988   2.956   1.577   5.535 -0.4834 -0.0626  0.0061
14858TIP3    H165989   2.905   1.581   5.454  0.1610 -2.8228 -0.6336
14858TIP3    H265990   2.898   1.537   5.599  0.5585 -2.7089 -0.5800
14859TIP3   OH265991   5.414   5.545   1.770  0.1023 -0.4373  0.1505
14859TIP3    H165992   5.396   5.456   1.740  0.3588 -0.2143 -0.6989
14859TIP3    H265993   5.331   5.591   1.760 -0.4734 -0.9360  2.0540
14860TIP3   OH265994   2.169   6.324   6.394 -0.6907  0.0241  0.5012
14860TIP3    H165995   2.076   6.301   6.395 -1.0942  1.5534  1.0554
14860TIP3    H265996   2.212   6.246   6.361 -2.1168 -0.9224  0.7614
14861TIP3   OH265997   6.619   1.740   4.000 -0.0792 -0.2012  0.3664
14861TIP3    H165998   6.566   1.776   4.070 -1.5522 -1.1785 -0.2000
14861TIP3    H265999   6.557   1.694   3.944  1.4326 -1.9427  0.0183
14862TIP3   OH266000   0.542   3.620  10.910  0.3129 -0.8424 -0.2857
14862TIP3    H166001   0.607   3.674  10.864 -0.3951 -1.3664 -2.0075
14862TIP3    H266002   0.465   3.677  10.917  1.0199 -0.0701  2.1414
14863TIP3   OH266003   4.018   4.447   4.809  0.2841 -0.5190 -0.4956
14863TIP3    H166004   3.975   4.458   4.723 -1.0578  0.4574  0.2578
14863TIP3    H266005   3.962   4.496   4.869  1.7686 -0.3456  0.7807
14864TIP3   OH266006   3.767   4.457  14.111  0.2062 -0.3606  0.0717
14864TIP3    H166007   3.760   4.471  14.016  1.2802 -1.7078 -0.2257
14864TIP3    H266008   3.677   4.463  14.142 -0.1189  0.5508 -0.9501
14865TIP3   OH266009   5.055   4.545  11.552  0.0998  0.3072  0.2670
14865TIP3    H166010   5.047   4.599  11.474  1.4234  0.7100  0.3876
14865TIP3    H266011   5.014   4.597  11.621 -0.9897 -0.0095 -0.1133
14866TIP3   OH266012   3.239   1.714  13.107 -0.4094 -0.5995  0.2152
14866TIP3    H166013   3.243   1.700  13.012  0.7891 -0.4539  0.2344
14866TIP3    H266014   3.189   1.795  13.117 -0.2966 -0.4600 -0.3027
14867TIP3   OH266015   5.799   4.775   5.935 -0.0533  0.2042  0.0267
14867TIP3    H166016   5.840   4.690   5.920 -0.9731 -0.2268 -0.0867
14867TIP3    H266017   5.849   4.835   5.879  0.2819 -0.3435 -0.2739
14868TIP3   OH266018   5.166   0.659  15.930 -0.1326 -0.7986  0.0859
14868TIP3    H166019   5.098   0.594  15.914  0.2811 -1.4275  0.8060
14868TIP3    H266020   5.171   0.666  16.025  2.0877 -2.1977  0.1505
14869TIP3   OH266021   5.693   5.860  15.697 -0.0812  0.0640  0.2979
14869TIP3    H166022   5.766   5.825  15.647 -0.7993 -1.0008 -0.0539
14869TIP3    H266023   5.690   5.807  15.776 -0.5072  0.0437  0.2727
14870TIP3   OH266024   4.227   6.077   1.559  0.1971  0.4210 -0.1344
14870TIP3    H166025   4.301   6.121   1.601 -2.7498  2.2517  3.8232
14870TIP3    H266026   4.239   5.985   1.578  1.3927  0.7000  0.5266
14871TIP3   OH266027   1.019   1.943  10.662  0.0726 -0.1729  0.6309
14871TIP3    H166028   1.027   1.866  10.719  1.0041 -0.2025  0.4706
14871TIP3    H266029   1.036   2.017  10.719  2.8715 -0.2867  0.0824
14872TIP3   OH266030   0.339   1.315   5.637 -0.2810 -0.1389  0.0052
14872TIP3    H166031   0.316   1.270   5.719 -0.8582 -0.4466 -0.3193
14872TIP3    H266032   0.351   1.245   5.574  0.3582  0.0910 -0.1302
14873TIP3   OH266033   4.592   1.744   1.855 -0.6505  0.7508 -0.0624
14873TIP3    H166034   4.677   1.776   1.886 -1.7386  2.9898  0.8058
14873TIP3    H266035   4.544   1.822   1.829 -3.0042 -0.2501  0.9368
14874TIP3   OH266036   6.369   4.431  14.351  0.0081  0.0687  0.3259
14874TIP3    H166037   6.331   4.450  14.266  0.3522  2.6567  0.6827
14874TIP3    H266038   6.462   4.452  14.341  0.0524  0.4111  1.3258
14875TIP3   OH266039   4.474   1.302   4.063 -0.2519 -0.1651 -0.1909
14875TIP3    H166040   4.424   1.312   3.982 -2.6159  1.2470  1.3262
14875TIP3    H266041   4.562   1.332   4.041 -1.3388  2.1890 -1.7605
14876TIP3   OH266042   4.747   6.635   0.578 -0.0951 -0.2756 -0.2963
14876TIP3    H166043   4.788   6.634   0.665 -0.3625  0.0562 -0.1651
14876TIP3    H266044   4.777   6.554   0.537 -1.3279 -1.3192  0.7524
14877TIP3   OH266045   5.613   4.595  11.875  0.4069 -0.6464  0.1994
14877TIP3    H166046   5.673   4.612  11.802 -0.5824  1.8088 -0.1605
14877TIP3    H266047   5.669   4.593  11.953  1.0738  1.0341 -0.1962
14878TIP3   OH266048   4.976   3.581   5.594 -0.3736  0.6043 -0.1003
14878TIP3    H166049   4.901   3.589   5.654  0.6259  1.1806  1.1206
14878TIP3    H266050   5.003   3.490   5.602 -0.6724  0.5030 -0.2156
14879TIP3   OH266051   3.272   1.420  16.882 -0.3306 -0.0618  0.1900
14879TIP3    H166052   3.293   1.331  16.912 -0.2667 -0.1266 -0.0450
14879TIP3    H266053   3.317   1.428  16.797 -0.7666  0.0079 -0.0380
14880TIP3   OH266054   1.188   5.617  13.239 -0.0267  0.3822 -0.2737
14880TIP3    H166055   1.110   5.620  13.185  0.1200  0.7097 -0.4670
14880TIP3    H266056   1.246   5.556  13.195 -0.4474 -0.4082  0.2426
14881TIP3   OH266057   4.718   3.595  14.454  0.2863 -0.6624  0.4686
14881TIP3    H166058   4.749   3.505  14.451  1.5848 -0.2174 -0.0301
14881TIP3    H266059   4.654   3.601  14.382  1.6514 -0.6894 -0.7995
14882TIP3   OH266060   2.847   0.578  12.851 -0.5588 -0.3915  0.1282
14882TIP3    H166061   2.895   0.549  12.929 -1.6804 -0.5784  0.7823
14882TIP3    H266062   2.868   0.513  12.784  1.3557  0.4157 -0.1176
14883TIP3   OH266063   6.445   6.140  16.490  0.9725 -0.5945 -0.0747
14883TIP3    H166064   6.396   6.205  16.441 -0.0879  0.4926  2.2817
14883TIP3    H266065   6.388   6.116  16.563  3.2478 -0.5083  1.8753
14884TIP3   OH266066   0.637   1.198  16.954  0.4153  0.3023  0.3502
14884TIP3    H166067   0.659   1.255  17.028 -0.4770 -0.8407  1.5580
14884TIP3    H266068   0.606   1.117  16.995  0.4522 -0.5902 -1.2981
14885TIP3   OH266069   2.105   3.190   5.273  0.1659  0.3561  0.2014
14885TIP3    H166070   2.045   3.143   5.216  1.5122 -2.2277  0.7483
14885TIP3    H266071   2.161   3.239   5.214 -0.0683 -0.2701 -0.5606
14886TIP3   OH266072   4.571   6.376   5.477 -0.0338  0.9325 -0.0409
14886TIP3    H166073   4.541   6.290   5.449  0.9090  0.5156  0.2264
14886TIP3    H266074   4.623   6.408   5.403 -0.3590  1.2626 -0.1288
14887TIP3   OH266075   2.831   6.114   0.667  0.0209  0.0193 -0.1642
14887TIP3    H166076   2.772   6.056   0.715 -0.2544  0.4188 -0.0134
14887TIP3    H266077   2.772   6.173   0.619  0.2945  0.7784  0.4189
14888TIP3   OH266078   2.912   1.271  15.500  0.3457  0.1985  0.2272
14888TIP3    H166079   2.844   1.204  15.504  0.7306 -0.2889 -0.8784
14888TIP3    H266080   2.886   1.329  15.428 -0.1730  1.4794  1.4080
14889TIP3   OH266081   4.372   0.618  13.484  0.0359 -0.1472 -0.4889
14889TIP3    H166082   4.391   0.591  13.574 -1.1396 -0.6630 -0.3746
14889TIP3    H266083   4.278   0.603  13.474  0.2352 -0.5791 -1.9710
14890TIP3   OH266084   1.379   2.123   0.659  0.5556  0.4854 -0.0121
14890TIP3    H166085   1.371   2.217   0.676  2.4943  0.6318  0.3682
14890TIP3    H266086   1.403   2.118   0.566 -0.7744  0.2604 -0.3641
14891TIP3   OH266087   1.872   6.609  14.347 -0.3230  0.3554 -0.2386
14891TIP3    H166088   1.816   6.648  14.414  0.1226 -1.2739  1.1469
14891TIP3    H266089   1.961   6.628  14.375 -0.1312  0.3592 -0.8233
14892TIP3   OH266090   5.115   4.362   4.303  0.3920  0.2783 -0.2622
14892TIP3    H166091   5.083   4.274   4.326  0.7780 -0.1397 -1.2921
14892TIP3    H266092   5.114   4.364   4.208  0.4235  1.3951 -0.2528
14893TIP3   OH266093   0.698   2.751   3.643 -0.0578 -0.0194  0.3559
14893TIP3    H166094   0.706   2.660   3.615  0.2823  0.3260 -0.7241
14893TIP3    H266095   0.647   2.747   3.724  1.2498 -1.2883  1.1662
14894TIP3   OH266096   3.961   6.234  16.989 -0.0737 -0.1207 -0.1032
14894TIP3    H166097   3.931   6.264  17.075  0.0051 -0.3272 -0.0026
14894TIP3    H266098   3.896   6.268  16.928 -0.5452 -0.5974  0.1188
14895TIP3   OH266099   1.079   1.649   4.699  0.1396 -0.1478 -0.1812
14895TIP3    H166100   1.068   1.559   4.668  1.9959  0.1711 -2.0183
14895TIP3    H266101   1.035   1.703   4.634 -0.1577  0.3309  0.4060
14896TIP3   OH266102   5.730   5.529   2.601  0.1138  0.0602 -0.3333
14896TIP3    H166103   5.821   5.556   2.601 -0.0283  0.5764  0.6454
14896TIP3    H266104   5.686   5.591   2.659 -0.6431 -0.8613  0.1153
14897TIP3   OH266105   2.243   1.713  12.522  0.3103 -0.3594  0.1433
14897TIP3    H166106   2.151   1.741  12.530  0.4295 -0.1168  0.7279
14897TIP3    H266107   2.249   1.637  12.579  0.5134 -0.2798  0.2254
14898TIP3   OH266108   3.946   0.481   6.379  0.1902  0.1340 -0.3843
14898TIP3    H166109   3.853   0.499   6.385 -0.2765 -2.1447  0.1508
14898TIP3    H266110   3.955   0.389   6.404  2.7442  0.6322  0.8874
14899TIP3   OH266111   1.871   3.710  16.742  0.1098  0.1005 -0.5399
14899TIP3    H166112   1.953   3.759  16.741  1.1611 -1.2150  3.0993
14899TIP3    H266113   1.803   3.776  16.731  1.5720  1.7229 -0.2542
14900TIP3   OH266114   2.929   6.491   2.807 -0.2265 -0.2904 -0.5924
14900TIP3    H166115   2.952   6.485   2.714 -0.7586 -0.1658 -0.7326
14900TIP3    H266116   2.945   6.403   2.841  1.5183  0.0463 -0.4329
14901TIP3   OH266117   0.231   4.730   3.998  1.5646  0.3914  0.3215
14901TIP3    H166118   0.307   4.788   4.005 -0.6053  3.5424 -0.2705
14901TIP3    H266119   0.218   4.719   3.904  1.4517 -0.4091  0.4238
14902TIP3   OH266120   2.014   0.163  17.248 -0.4134  0.4128 -0.5809
14902TIP3    H166121   1.974   0.077  17.252 -0.4750  0.4618  2.4410
14902TIP3    H266122   2.103   0.150  17.281 -0.2288  1.4103 -0.6302
14903TIP3   OH266123   0.857   5.895  14.396  0.1727  0.0259  0.0341
14903TIP3    H166124   0.886   5.985  14.411  1.3530 -0.1678 -0.9399
14903TIP3    H266125   0.937   5.848  14.373 -0.3690 -1.3637  0.8855
14904TIP3   OH266126   3.133   1.755   2.423 -0.6478 -0.3835  0.2461
14904TIP3    H166127   3.094   1.829   2.470  0.4316  0.1389  0.3387
14904TIP3    H266128   3.217   1.788   2.392 -0.4202 -1.3881 -0.2340
14905TIP3   OH266129   4.281   6.207   4.672  0.1487 -0.2243  0.3846
14905TIP3    H166130   4.332   6.197   4.591 -0.8248 -2.1388 -0.0588
14905TIP3    H266131   4.234   6.290   4.660  0.7567  0.0005 -0.5881
14906TIP3   OH266132   6.466   0.327  16.909 -0.5621  0.0978 -0.0695
14906TIP3    H166133   6.552   0.325  16.952 -1.1320 -1.9785  1.1535
14906TIP3    H266134   6.472   0.399  16.847  2.6276 -0.9241 -1.1835
14907TIP3   OH266135   3.641   0.963  10.746 -0.0837 -0.0044  0.0790
14907TIP3    H166136   3.581   0.984  10.817  1.7103  0.6132  1.4906
14907TIP3    H266137   3.683   0.881  10.773  1.1820  0.6434  0.1709
14908TIP3   OH266138   0.516   2.589   1.946 -0.6099  0.1971  0.4181
14908TIP3    H166139   0.487   2.499   1.966 -1.2395  0.2621 -0.1556
14908TIP3    H266140   0.601   2.596   1.987  0.4978 -1.4274 -1.4068
14909TIP3   OH266141   5.421   0.749  11.726  0.4725  0.1696  0.5532
14909TIP3    H166142   5.392   0.840  11.732 -0.5337 -0.0237 -0.8403
14909TIP3    H266143   5.364   0.710  11.659  1.7535 -1.1396  0.1649
14910TIP3   OH266144   3.454   3.549   5.343 -0.3051 -0.0083 -0.4877
14910TIP3    H166145   3.491   3.461   5.352  0.5095  0.4477  1.0332
14910TIP3    H266146   3.527   3.607   5.367 -1.2594  1.0089  0.0067
14911TIP3   OH266147   4.347   4.459   3.619 -0.3313  0.1836 -0.2945
14911TIP3    H166148   4.331   4.404   3.542 -2.0962  0.7360 -0.3692
14911TIP3    H266149   4.398   4.405   3.678  0.5101 -0.4793 -1.5860
14912TIP3   OH266150   2.285   6.482  15.400 -0.3395  0.1954 -0.1731
14912TIP3    H166151   2.300   6.447  15.488  2.5549 -0.4064 -0.8356
14912TIP3    H266152   2.349   6.553  15.391 -0.2133 -0.1050 -1.9985
14913TIP3   OH266153   2.845   1.944  14.277 -0.2068 -0.0475  0.2233
14913TIP3    H166154   2.836   1.925  14.371 -1.0542 -2.4984 -0.2506
14913TIP3    H266155   2.786   1.880  14.236  0.8772  0.3432 -2.0266
14914TIP3   OH266156   1.429   3.109  15.738  0.1936  0.1651  0.1172
14914TIP3    H166157   1.421   3.151  15.824  3.8197 -0.7553  1.0935
14914TIP3    H266158   1.430   3.016  15.758  1.1214 -0.0517 -0.8900
14915TIP3   OH266159   1.324   5.058   0.665  0.2986 -0.4076 -1.0862
14915TIP3    H166160   1.325   5.030   0.574  3.0847  0.4832 -1.4023
14915TIP3    H266161   1.369   5.142   0.665  0.9831 -0.7001  1.2041
14916TIP3   OH266162   6.089   0.749  10.798 -0.1400 -0.1452 -0.5571
14916TIP3    H166163   6.129   0.668  10.764 -2.6186 -0.8688 -2.0087
14916TIP3    H266164   6.013   0.719  10.848 -0.9754  1.2806 -0.9278
14917TIP3   OH266165   4.330   2.929  15.093  0.2121  0.4225  1.0769
14917TIP3    H166166   4.239   2.924  15.062  0.5309 -0.9214  0.3100
14917TIP3    H266167   4.343   3.023  15.110 -0.5008  1.0446 -1.3209
14918TIP3   OH266168   6.375   6.307  14.845 -0.5968  0.3744  0.1688
14918TIP3    H166169   6.418   6.250  14.909 -0.0203  0.1311 -0.4307
14918TIP3    H266170   6.392   6.396  14.877  2.5961  0.4519 -1.3594
14919TIP3   OH266171   5.147   5.325   0.284 -0.2621  0.3062  0.3452
14919TIP3    H166172   5.200   5.380   0.341  1.8087  1.2938 -2.3112
14919TIP3    H266173   5.151   5.238   0.324  2.3472  0.6223  0.9662
14920TIP3   OH266174   5.683   4.951  11.839 -0.3192  0.2847 -0.1122
14920TIP3    H166175   5.611   4.921  11.783 -1.9362  0.6909  1.6600
14920TIP3    H266176   5.703   4.875  11.894  0.6013  0.1967 -0.5445
14921TIP3   OH266177   3.349   5.268   5.028  0.0090 -0.0267  0.0862
14921TIP3    H166178   3.400   5.191   5.004 -1.0369 -0.5258 -0.6208
14921TIP3    H266179   3.302   5.292   4.948 -0.1701  0.9590  0.4689
14922TIP3   OH266180   1.407   0.380   1.966 -0.2456 -0.2624 -0.0375
14922TIP3    H166181   1.357   0.461   1.975  1.4322  0.7351  0.8290
14922TIP3    H266182   1.449   0.367   2.051  2.2085 -0.1559 -1.1420
14923TIP3   OH266183   4.749   6.421   2.666 -0.1854 -0.0351  0.3452
14923TIP3    H166184   4.672   6.478   2.673  0.0112  0.8080 -2.8547
14923TIP3    H266185   4.718   6.343   2.620  0.4025 -0.8243  1.2230
14924TIP3   OH266186   2.941   4.989  12.659 -0.1687 -0.1616  0.5611
14924TIP3    H166187   2.885   5.063  12.679  0.7800  0.4856  0.9092
14924TIP3    H266188   2.997   4.979  12.736 -0.2678 -1.2295  0.5127
14925TIP3   OH266189   0.703   4.453  11.746 -0.1689 -0.8314 -0.3536
14925TIP3    H166190   0.793   4.469  11.775 -0.7504  2.9075 -0.1253
14925TIP3    H266191   0.707   4.458  11.651 -0.1690 -0.3320 -0.3292
14926TIP3   OH266192   0.904   0.822   1.736  0.1123  0.2601 -0.4645
14926TIP3    H166193   0.980   0.804   1.680  0.3559  1.3314 -0.4885
14926TIP3    H266194   0.828   0.809   1.678  0.3291  0.4828 -0.8001
14927TIP3   OH266195   4.465   1.649  15.316  0.4897 -0.6101 -0.2263
14927TIP3    H166196   4.400   1.587  15.350  0.0964  0.6621  1.4505
14927TIP3    H266197   4.470   1.628  15.223 -3.0451 -0.1994 -0.6585
14928TIP3   OH266198   1.618   6.305  15.559 -0.5590 -0.0718 -0.0427
14928TIP3    H166199   1.681   6.338  15.624 -0.6544 -0.3132  0.1750
14928TIP3    H266200   1.533   6.334  15.592 -0.4391  2.0163 -1.3734
14929TIP3   OH266201   6.462   2.992   0.499  0.5325 -0.3503  0.3535
14929TIP3    H166202   6.379   2.959   0.531  1.1417  0.0892  2.5190
14929TIP3    H266203   6.445   3.014   0.407 -1.2426 -1.8325  0.2758
14930TIP3   OH266204   6.717   4.062  16.132  0.4308 -0.0001  0.1382
14930TIP3    H166205   6.656   4.118  16.181  1.3485  1.1359  0.0237
14930TIP3    H266206   6.738   4.112  16.054 -0.9530 -1.7557 -1.4794
14931TIP3   OH266207   1.901   2.458   2.580 -0.5083  0.2010 -0.1279
14931TIP3    H166208   1.868   2.462   2.669 -0.5479 -2.2544  0.0564
14931TIP3    H266209   1.958   2.381   2.579  2.3023  2.1104 -1.3779
14932TIP3   OH266210   1.305   1.267  12.504  0.2471  0.0254 -0.5328
14932TIP3    H166211   1.392   1.306  12.515 -1.0323  2.5351  1.7129
14932TIP3    H266212   1.291   1.218  12.585 -0.5305 -0.1399 -0.7620
14933TIP3   OH266213   0.570   4.559   3.223  0.0174  0.4792 -0.0728
14933TIP3    H166214   0.614   4.518   3.148  0.5076  1.3680 -0.2869
14933TIP3    H266215   0.566   4.490   3.290  0.8438  0.0965 -0.4103
14934TIP3   OH266216   6.661   4.985   1.739  0.3939 -0.0905  0.2959
14934TIP3    H166217   6.639   4.892   1.745 -0.7113 -0.2932 -3.8210
14934TIP3    H266218   6.577   5.030   1.740  0.6422  0.4752 -1.0849
14935TIP3   OH266219   2.343   5.320   0.821 -0.7485 -0.3435 -0.0591
14935TIP3    H166220   2.308   5.336   0.733  0.8297 -1.4473 -0.9520
14935TIP3    H266221   2.398   5.397   0.839  1.2412 -1.3692 -1.3442
14936TIP3   OH266222   4.770   2.505   2.057 -0.7267 -0.6397 -0.0385
14936TIP3    H166223   4.847   2.453   2.079 -2.1544 -2.3897  1.1275
14936TIP3    H266224   4.789   2.592   2.093  0.9049 -0.8674 -0.2797
14937TIP3   OH266225   6.211   3.887  16.110  0.0897 -0.1714 -0.5983
14937TIP3    H166226   6.243   3.810  16.064  1.6382  0.5583 -0.8252
14937TIP3    H266227   6.239   3.961  16.056  0.6498  0.6405  0.7401
14938TIP3   OH266228   1.316   6.780   4.399  0.0504 -0.2005  0.2090
14938TIP3    H166229   1.410   6.788   4.389  0.2055 -2.2265 -0.4035
14938TIP3    H266230   1.304   6.763   4.493  0.2620  0.2703  0.3248
14939TIP3   OH266231   0.977   0.012  17.025 -0.8782  0.0498 -0.6514
14939TIP3    H166232   0.898   0.056  16.995 -0.7138  0.7842 -0.0360
14939TIP3    H266233   0.982   0.033  17.119 -0.4720 -0.7822 -0.4807
14940TIP3   OH266234   2.776   6.091   5.131  0.5806 -0.0790 -0.0128
14940TIP3    H166235   2.829   6.017   5.162 -0.9037 -2.2082 -2.1662
14940TIP3    H266236   2.797   6.098   5.038  1.1674  2.7422  0.2503
14941TIP3   OH266237   6.492   2.716  12.097  0.4135  0.3168 -0.1406
14941TIP3    H166238   6.483   2.802  12.058  0.5154 -0.1349 -1.1933
14941TIP3    H266239   6.421   2.665  12.059  1.1868 -0.4419 -0.5999
14942TIP3   OH266240   6.579   6.032  11.971 -0.1703  0.2412  0.1581
14942TIP3    H166241   6.558   6.123  11.949  0.4763  0.4379  0.3198
14942TIP3    H266242   6.553   6.024  12.063 -0.6440  0.1276  0.0160
14943TIP3   OH266243   6.393   2.705   5.111  0.1078 -0.4056 -0.5807
14943TIP3    H166244   6.483   2.699   5.082  0.5221 -1.1077  0.7428
14943TIP3    H266245   6.367   2.795   5.092  0.6221 -0.5857 -2.2155
14944TIP3   OH266246   2.188   3.580  11.202  0.0455  0.3260  0.1209
14944TIP3    H166247   2.194   3.545  11.291 -1.0579 -0.2231 -0.0030
14944TIP3    H266248   2.094   3.584  11.184  0.2533 -1.5039 -1.7613
14945TIP3   OH266249   4.393   3.800  14.556 -0.1246  0.0814  0.1980
14945TIP3    H166250   4.320   3.846  14.597  0.8530  1.3333  0.5801
14945TIP3    H266251   4.368   3.792  14.464 -1.0426 -0.1459  0.4545
14946TIP3   OH266252   0.407   6.546   3.986  0.3166 -0.6380  0.3767
14946TIP3    H166253   0.332   6.532   4.044  1.1099 -2.3851  1.0832
14946TIP3    H266254   0.470   6.479   4.014  1.6450 -0.0066 -1.0031
14947TIP3   OH266255   1.609   6.316   4.229 -0.8225  0.5099 -0.2793
14947TIP3    H166256   1.588   6.409   4.236 -1.2667  0.2833  2.8397
14947TIP3    H266257   1.679   6.303   4.293 -0.3705 -1.2216 -1.0764
14948TIP3   OH266258   5.512   0.936   2.897 -0.4590  0.1814 -0.1889
14948TIP3    H166259   5.576   0.997   2.934 -0.5683  1.8194 -2.5116
14948TIP3    H266260   5.457   0.989   2.840 -1.0080 -1.9376 -1.7980
14949TIP3   OH266261   1.002   5.616  13.498  0.5626 -0.0347 -0.2669
14949TIP3    H166262   1.065   5.597  13.568  0.0850  0.7806  0.4010
14949TIP3    H266263   1.033   5.697  13.459  0.4831 -0.1628 -0.5980
14950TIP3   OH266264   2.975   6.441   3.572 -0.5024 -0.8064  0.0782
14950TIP3    H166265   2.932   6.515   3.529  0.2900 -0.8693 -0.8771
14950TIP3    H266266   2.918   6.367   3.553 -1.4700 -0.4030  1.3197
14951TIP3   OH266267   3.838   4.888  13.822 -0.0275  0.6002 -0.2094
14951TIP3    H166268   3.864   4.869  13.912  0.9448  0.7005 -0.4660
14951TIP3    H266269   3.749   4.925  13.830 -1.9541 -3.6184  0.3426
14952TIP3   OH266270   1.082   4.798  15.453  0.1432 -0.4890  0.0408
14952TIP3    H166271   1.078   4.753  15.369 -0.3501  0.6106 -0.5358
14952TIP3    H266272   1.003   4.770  15.499  0.1319 -0.6619 -0.0844
14953TIP3   OH266273   3.357   4.929   3.064 -0.9138  0.7082 -0.0001
14953TIP3    H166274   3.443   4.918   3.105 -1.4603  2.9269  1.9906
14953TIP3    H266275   3.297   4.881   3.120 -1.2688  1.1561  0.0123
14954TIP3   OH266276   0.350   0.049  13.102 -0.7728 -0.2751 -0.2603
14954TIP3    H166277   0.326  -0.016  13.036  0.1843 -0.7290 -0.1760
14954TIP3    H266278   0.273   0.056  13.158 -1.0708 -0.9607 -0.5728
14955TIP3   OH266279   4.608   1.524   1.272 -0.0494 -0.4748  0.4181
14955TIP3    H166280   4.591   1.488   1.359  0.8926 -2.4540 -0.1579
14955TIP3    H266281   4.525   1.564   1.246 -0.7105 -0.9358  1.7161
14956TIP3   OH266282   5.457   6.079  11.258 -0.0040  0.9809 -0.0802
14956TIP3    H166283   5.376   6.061  11.306  0.4391 -1.1319 -0.0060
14956TIP3    H266284   5.494   6.156  11.300 -0.2965 -0.0223  2.1457
14957TIP3   OH266285   0.326   4.197   1.483  0.0047  0.7352 -0.0016
14957TIP3    H166286   0.341   4.273   1.539 -0.0713  0.6521  0.1325
14957TIP3    H266287   0.399   4.138   1.502 -0.3343  0.4533  0.4436
14958TIP3   OH266288   2.919   0.366  12.237  0.1858  0.4362  0.3211
14958TIP3    H166289   2.980   0.379  12.309 -1.2919  0.0098  1.7121
14958TIP3    H266290   2.938   0.279  12.204  0.6568  0.5020  0.4178
14959TIP3   OH266291   0.132   2.302  14.510  0.4588  0.1377  0.4547
14959TIP3    H166292   0.217   2.346  14.508  0.3497  0.3185 -0.2539
14959TIP3    H266293   0.077   2.352  14.451  0.1833 -0.6483  0.0360
14960TIP3   OH266294   6.409   1.245   3.715  0.7630 -0.1364 -0.5454
14960TIP3    H166295   6.371   1.234   3.628  0.7472  0.9237 -0.6841
14960TIP3    H266296   6.446   1.333   3.714 -0.1448  0.2897  0.8561
14961TIP3   OH266297   0.274   6.632  16.946 -0.0789  0.0932 -0.1259
14961TIP3    H166298   0.238   6.648  16.858  3.3356  0.1115 -1.6860
14961TIP3    H266299   0.338   6.562  16.933 -1.6886 -2.2237  3.0633
14962TIP3   OH266300   1.595   4.886  16.989 -0.1255  0.0339 -0.5032
14962TIP3    H166301   1.656   4.937  17.043 -1.9739  0.9750  0.8451
14962TIP3    H266302   1.540   4.952  16.946 -0.5010 -0.7776 -1.3024
14963TIP3   OH266303   5.730   4.076   4.528  0.1586  0.2080 -0.2114
14963TIP3    H166304   5.711   3.985   4.552 -0.5115  1.0126  2.6143
14963TIP3    H266305   5.825   4.082   4.529  0.1975  0.0072  1.8422
14964TIP3   OH266306   3.410   2.289   2.770  0.5152 -1.2934  0.0182
14964TIP3    H166307   3.502   2.316   2.769  0.0384  0.3771 -0.7634
14964TIP3    H266308   3.369   2.345   2.836 -0.7856  1.0956 -2.6386
14965TIP3   OH266309   5.451   6.457  16.576  0.1365  0.8067  0.0834
14965TIP3    H166310   5.520   6.400  16.541  0.4027  1.8184 -1.1066
14965TIP3    H266311   5.373   6.401  16.577  0.7345 -0.0565  0.5035
14966TIP3   OH266312   2.387   5.186  17.261 -0.0215  0.5643 -0.4100
14966TIP3    H166313   2.356   5.249  17.326  0.8491  0.7067 -0.1158
14966TIP3    H266314   2.428   5.117  17.313 -3.1540 -1.5847 -0.5559
14967TIP3   OH266315   3.722   6.388   3.437  0.0224  0.1187 -0.1563
14967TIP3    H166316   3.803   6.340   3.454 -0.3203 -1.5083 -2.6444
14967TIP3    H266317   3.747   6.480   3.445  1.5623 -0.3689  1.2455
14968TIP3   OH266318   2.348   4.963  15.028 -0.2728  0.1519  0.0767
14968TIP3    H166319   2.442   4.976  15.017  0.2312 -0.6299  2.7934
14968TIP3    H266320   2.315   5.046  15.061 -0.4042  0.1996 -0.1730
14969TIP3   OH266321   5.755   1.861  11.342 -0.0499  0.1968 -0.0508
14969TIP3    H166322   5.793   1.905  11.266 -2.2702  0.4975 -1.0566
14969TIP3    H266323   5.830   1.819  11.386  1.8736  3.1155 -0.2513
14970TIP3   OH266324   3.198   0.861   3.787 -0.2404  0.3498 -0.1702
14970TIP3    H166325   3.185   0.945   3.745  0.3739 -0.1887 -1.4970
14970TIP3    H266326   3.215   0.882   3.879 -2.6018  1.4867  0.0549
14971TIP3   OH266327   3.023   3.746   2.728  0.2164  0.1985  0.2562
14971TIP3    H166328   2.965   3.709   2.662  0.4601  1.8767 -0.9856
14971TIP3    H266329   2.967   3.802   2.782  0.2778  0.0112  0.5169
14972TIP3   OH266330   3.349   2.211  10.910  0.2627  0.3890 -0.4334
14972TIP3    H166331   3.396   2.156  10.847  1.0423  0.3848  0.1330
14972TIP3    H266332   3.314   2.283  10.857 -1.7130 -1.1680 -1.3845
14973TIP3   OH266333   5.984   5.209   3.042 -0.2207  0.5557  0.4573
14973TIP3    H166334   5.945   5.234   2.958  0.0700 -0.0672  0.1289
14973TIP3    H266335   6.010   5.118   3.030 -1.2804  0.0717  1.6344
14974TIP3   OH266336   3.969   1.169   0.415 -0.1417 -0.5477  0.1327
14974TIP3    H166337   3.947   1.249   0.462  0.8554 -0.6973  0.8900
14974TIP3    H266338   4.018   1.199   0.339  1.8274 -0.4724  1.3474
14975TIP3   OH266339   2.485   2.389   2.738 -0.0269  0.3184  0.7080
14975TIP3    H166340   2.570   2.384   2.780  0.2512 -1.0214  0.0498
14975TIP3    H266341   2.485   2.473   2.692  2.7484 -1.4011 -2.9142
14976TIP3   OH266342   6.426   0.748  12.596 -0.2759 -0.0941 -0.0956
14976TIP3    H166343   6.451   0.686  12.527 -1.7691 -0.8062 -0.0267
14976TIP3    H266344   6.508   0.763  12.644  0.2153 -1.7290 -0.3506
14977TIP3   OH266345   0.805   4.999   2.621 -0.4424 -0.3389 -0.2148
14977TIP3    H166346   0.841   5.083   2.593 -0.0173  0.2000  1.7673
14977TIP3    H266347   0.737   5.022   2.685 -0.2092 -1.4787  0.4844
14978TIP3   OH266348   3.251   4.710   2.491 -0.0025 -0.1262 -0.1428
14978TIP3    H166349   3.285   4.631   2.534 -0.8373  0.3526  1.4906
14978TIP3    H266350   3.312   4.727   2.420 -0.3969 -2.9001 -1.3100
14979TIP3   OH266351   5.535   6.759  10.953 -0.0797 -0.5914 -0.3723
14979TIP3    H166352   5.618   6.716  10.975 -0.2395 -1.3297 -1.1344
14979TIP3    H266353   5.471   6.688  10.953 -1.1319  0.2557  2.1069
14980TIP3   OH266354   3.083   2.991   3.110 -0.3530  0.3757  0.0293
14980TIP3    H166355   3.092   3.084   3.130  1.1490  0.1027  0.8460
14980TIP3    H266356   3.131   2.947   3.181 -0.8157 -1.0052 -0.4789
14981TIP3   OH266357   2.011   6.634  14.817 -0.5480  0.2715  0.2370
14981TIP3    H166358   2.011   6.580  14.738  2.7246  0.3795  0.0389
14981TIP3    H266359   2.021   6.572  14.889 -0.1698  0.3816  0.2821
14982TIP3   OH266360   1.852   3.681   3.687 -0.2014  0.0032 -0.0076
14982TIP3    H166361   1.841   3.733   3.607 -2.1314 -1.0239 -0.4712
14982TIP3    H266362   1.858   3.591   3.656 -2.4927 -0.5784  1.0249
14983TIP3   OH266363   5.444   4.420  11.740 -0.1949  0.0811  0.3130
14983TIP3    H166364   5.512   4.468  11.787  0.6562 -1.2583  0.5049
14983TIP3    H266365   5.469   4.427  11.648 -0.2507  0.2702  0.3121
14984TIP3   OH266366   4.175   4.229   0.703  0.3247  0.0171 -0.2786
14984TIP3    H166367   4.141   4.288   0.635 -2.8645  0.9353  1.9148
14984TIP3    H266368   4.250   4.276   0.739  1.6119 -0.1447 -2.5576
14985TIP3   OH266369   1.038   4.254   0.067  0.1024 -0.2654 -0.2547
14985TIP3    H166370   0.989   4.187   0.114 -0.4460  1.0773  1.1617
14985TIP3    H266371   1.130   4.234   0.086  0.0837 -1.8426 -1.6092
14986TIP3   OH266372   6.226   2.362  12.819  0.2187 -0.0892  0.1081
14986TIP3    H166373   6.188   2.438  12.863  1.1536  0.2782  0.3048
14986TIP3    H266374   6.200   2.372  12.727  2.1725  1.7039 -0.3170
14987TIP3   OH266375   3.229   6.006  14.343  0.5037 -0.2835  0.4503
14987TIP3    H166376   3.287   6.082  14.348  0.1475 -0.0464  1.1528
14987TIP3    H266377   3.184   6.005  14.428 -0.2082 -0.7059  0.0762
14988TIP3   OH266378   3.253   2.339  13.667 -0.2016 -0.3657  0.3517
14988TIP3    H166379   3.297   2.255  13.652 -1.6565 -0.9545 -0.8718
14988TIP3    H266380   3.215   2.330  13.755  1.3424 -0.1545  1.0864
14989TIP3   OH266381   2.887   0.249  16.376 -0.4246  0.8733  0.3667
14989TIP3    H166382   2.945   0.256  16.452  0.5330 -0.1110 -0.2550
14989TIP3    H266383   2.915   0.170  16.331 -0.9463  1.4626 -1.0521
14990TIP3   OH266384   4.895   4.996  15.348 -0.2957  0.3045 -0.1103
14990TIP3    H166385   4.842   4.922  15.377  0.2597 -0.5326 -1.1667
14990TIP3    H266386   4.858   5.021  15.263  1.4643 -0.8531 -1.2936
14991TIP3   OH266387   0.415   4.769   5.946 -0.4808  0.3284 -0.3112
14991TIP3    H166388   0.476   4.758   5.874  0.3984  0.8915  0.3317
14991TIP3    H266389   0.371   4.685   5.954 -1.6681  0.6792 -2.4468
14992TIP3   OH266390   3.811   3.579   4.754 -0.1720 -0.0406 -0.1951
14992TIP3    H166391   3.788   3.672   4.764  0.3722 -0.1097  2.4235
14992TIP3    H266392   3.907   3.579   4.752 -0.1693 -0.3936 -2.8814
14993TIP3   OH266393   1.371   4.572  10.885  0.1188 -0.0589 -0.2185
14993TIP3    H166394   1.328   4.537  10.806 -5.2470  3.1559  0.7531
14993TIP3    H266395   1.347   4.510  10.954 -0.9837  0.4343 -0.1259
14994TIP3   OH266396   4.448   3.596   2.346 -0.1039 -0.0025 -0.0821
14994TIP3    H166397   4.532   3.625   2.381 -0.1023 -0.8193  0.6284
14994TIP3    H266398   4.446   3.502   2.363 -1.8764  0.2523  1.4370
14995TIP3   OH266399   6.498   2.537   2.892  0.0764 -0.3044  0.0035
14995TIP3    H166400   6.404   2.529   2.906  0.1323 -0.2418  0.4514
14995TIP3    H266401   6.535   2.465   2.944  0.4495  1.3183  2.1427
14996TIP3   OH266402   2.521   4.954  11.388 -0.2295  0.5769 -0.1065
14996TIP3    H166403   2.495   4.941  11.297 -1.9192 -0.4190  0.4821
14996TIP3    H266404   2.616   4.960  11.385 -0.0800 -1.5798 -1.7048
14997TIP3   OH266405   6.292   1.820   4.461  0.4539  0.2067  0.0535
14997TIP3    H166406   6.234   1.878   4.511  0.7999  1.1330 -0.5812
14997TIP3    H266407   6.263   1.831   4.370  0.9107 -0.1821 -0.1431
14998TIP3   OH266408   1.941   2.761   3.525 -0.0833  0.6165 -0.0755
14998TIP3    H166409   1.991   2.766   3.443 -0.7325  0.0908 -0.5156
14998TIP3    H266410   1.872   2.827   3.515  1.2579  2.2654  1.0714
14999TIP3   OH266411   1.365   0.140   5.891 -0.2847  0.0153 -0.1689
14999TIP3    H166412   1.421   0.063   5.879 -0.5478 -0.0557 -1.0583
14999TIP3    H266413   1.279   0.104   5.915 -0.3133  0.0414 -0.2291
15000TIP3   OH266414   4.829   0.148  11.009  0.3991  0.1950 -0.1400
15000TIP3    H166415   4.896   0.200  10.966 -0.0347  0.2369 -0.7834
15000TIP3    H266416   4.843   0.162  11.103  2.0721 -0.7853 -0.2047
15001TIP3   OH266417   2.678   3.880  12.301  0.7009 -0.3143 -0.0642
15001TIP3    H166418   2.699   3.972  12.316 -0.7885 -0.0844  0.8010
15001TIP3    H266419   2.750   3.848  12.246  1.7215  1.1211  0.3602
15002TIP3   OH266420   2.068   0.198  10.100  0.3332 -0.5568 -0.1573
15002TIP3    H166421   2.044   0.271  10.157 -0.0477 -0.7344 -0.0856
15002TIP3    H266422   2.105   0.132  10.159  0.8192 -0.3613 -0.2419
15003TIP3   OH266423   1.418   1.310   1.668 -0.0262 -0.7324 -0.5429
15003TIP3    H166424   1.370   1.265   1.738 -0.1252 -0.7693 -0.6332
15003TIP3    H266425   1.380   1.275   1.587 -1.8959  1.3179 -0.6761
15004TIP3   OH266426   0.748   2.284  16.602  0.5220 -0.4139  1.0033
15004TIP3    H166427   0.823   2.332  16.568  0.9681 -1.0924  1.0145
15004TIP3    H266428   0.672   2.330  16.565  0.9220  0.4458  1.2193
15005TIP3   OH266429   2.843   5.402  11.343 -0.0633 -0.9953 -0.1339
15005TIP3    H166430   2.818   5.495  11.339  0.7916 -0.6993  0.8817
15005TIP3    H266431   2.902   5.390  11.269  1.3398 -0.2119  0.8048
15006TIP3   OH266432   4.370   3.410   3.240 -0.3106  0.6709 -0.3566
15006TIP3    H166433   4.404   3.394   3.328 -1.5942  0.4592  0.1105
15006TIP3    H266434   4.348   3.323   3.207 -0.2459  0.7922 -0.7282
15007TIP3   OH266435   3.066   5.225  13.388 -0.9358  0.5590  0.5888
15007TIP3    H166436   3.065   5.150  13.447 -1.9722  0.8359  0.9328
15007TIP3    H266437   2.993   5.209  13.328  0.3705  0.0416 -0.9500
15008TIP3   OH266438   4.269   5.170  11.535  0.5665 -0.3141  0.3515
15008TIP3    H166439   4.241   5.260  11.553 -0.4299 -0.8458  1.6317
15008TIP3    H266440   4.311   5.175  11.449 -0.1879  1.2187  0.0285
15009TIP3   OH266441   6.492   5.492  11.985  0.5213 -0.5381 -0.1806
15009TIP3    H166442   6.461   5.512  11.897  1.6359 -0.7799 -0.6419
15009TIP3    H266443   6.454   5.561  12.040  0.9577  0.4472 -1.0777
15010TIP3   OH266444   0.779   3.297   3.417  0.0398  0.1004 -0.3385
15010TIP3    H166445   0.773   3.217   3.470  0.8742 -0.1613 -0.6188
15010TIP3    H266446   0.735   3.274   3.335 -0.8724  0.3657  0.0639
15011TIP3   OH266447   3.438   1.582  15.391  0.0818  0.2549 -0.1490
15011TIP3    H166448   3.382   1.562  15.467 -0.7434  0.0349 -0.7990
15011TIP3    H266449   3.471   1.670  15.408  0.1026  0.1145  0.5816
15012TIP3   OH266450   1.030   3.515   3.121 -0.3103 -0.3465 -0.2336
15012TIP3    H166451   1.089   3.569   3.069 -0.5300 -0.5117 -0.6519
15012TIP3    H266452   0.943   3.534   3.087 -0.8032  1.5547  1.7820
15013TIP3   OH266453   1.171   3.480  11.284  0.5847 -0.2632 -0.7470
15013TIP3    H166454   1.245   3.497  11.342  0.0307 -0.1114 -0.0613
15013TIP3    H266455   1.195   3.401  11.236  0.6292 -0.9932  0.4410
15014TIP3   OH266456   2.631   2.799  14.793  0.3936  0.1781  0.3242
15014TIP3    H166457   2.615   2.893  14.782 -1.4656 -0.0169  0.9925
15014TIP3    H266458   2.562   2.756  14.742  0.9284 -0.8188  0.4104
15015TIP3   OH266459   3.843   3.270   3.570  0.1217 -0.0846  0.4765
15015TIP3    H166460   3.819   3.353   3.528  0.3957 -0.6159 -0.7858
15015TIP3    H266461   3.929   3.250   3.534 -0.1932 -1.1995  0.3144
15016TIP3   OH266462   0.228   3.301   2.388  0.3303 -0.0457 -0.4552
15016TIP3    H166463   0.184   3.300   2.472 -0.0153 -0.2859 -0.6376
15016TIP3    H266464   0.186   3.372   2.339  0.1739 -0.2465 -0.6130
15017TIP3   OH266465   3.477   6.400   2.193 -1.0266  0.4868 -0.0933
15017TIP3    H166466   3.426   6.351   2.257  0.0746 -1.5089 -0.6670
15017TIP3    H266467   3.424   6.478   2.175 -2.6104 -0.2223  1.2305
15018TIP3   OH266468   4.797   3.932  11.303  0.3905 -0.0366 -0.4462
15018TIP3    H166469   4.840   3.985  11.370  0.4872  0.1553 -0.6605
15018TIP3    H266470   4.795   3.988  11.225 -1.8190  0.6533  0.0326
15019TIP3   OH266471   6.512   1.578  12.027  0.1839 -0.0548 -0.3794
15019TIP3    H166472   6.517   1.602  12.120 -0.3396 -0.9042 -0.1162
15019TIP3    H266473   6.595   1.532  12.011 -1.0342 -2.8284  0.5830
15020TIP3   OH266474   2.916   4.760  16.631  0.3190 -0.4911 -0.3929
15020TIP3    H166475   3.001   4.799  16.649 -0.8980  1.9527  0.6047
15020TIP3    H266476   2.921   4.731  16.540  1.7294  1.0304 -0.8525
15021TIP3   OH266477   3.141   3.628  15.567 -0.4043  0.0411 -0.4248
15021TIP3    H166478   3.217   3.609  15.622  0.7639 -0.1188 -2.0296
15021TIP3    H266479   3.178   3.646  15.480 -2.1603  0.5550 -1.1083
15022TIP3   OH266480   1.443   2.980   1.601  0.6921  0.2459  0.9400
15022TIP3    H166481   1.420   3.019   1.685  0.1914 -1.6380  1.7148
15022TIP3    H266482   1.376   2.915   1.585  0.3241  1.0842 -1.3472
15023TIP3   OH266483   3.528   1.308  13.590 -0.1133  0.8532 -0.4609
15023TIP3    H166484   3.574   1.369  13.533 -1.6766  2.3408 -0.2265
15023TIP3    H266485   3.525   1.352  13.675  0.1945 -0.3140  0.1726
15024TIP3   OH266486   5.700   1.997   1.231  0.1723  0.3682  0.5691
15024TIP3    H166487   5.629   2.035   1.284  1.3356  0.9668  1.7469
15024TIP3    H266488   5.654   1.944   1.165 -1.3550 -0.0473  1.8890
15025TIP3   OH266489   1.733   1.058   0.594  0.3650 -0.7800 -0.8367
15025TIP3    H166490   1.799   1.037   0.528  0.1177 -0.8698 -1.0600
15025TIP3    H266491   1.716   1.151   0.582 -0.1633 -0.9329 -1.3550
15026TIP3   OH266492   2.400   0.546   4.966  0.0941 -0.2259 -0.1349
15026TIP3    H166493   2.475   0.496   4.998  0.1585 -1.7363 -2.4275
15026TIP3    H266494   2.324   0.505   5.007  0.2728 -1.0964 -0.6613
15027TIP3   OH266495   1.663   3.204   0.932 -0.7913  0.2759  0.5619
15027TIP3    H166496   1.654   3.179   1.024 -0.3232  1.8451  1.0680
15027TIP3    H266497   1.657   3.300   0.932 -2.6024  0.2406 -1.2696
15028TIP3   OH266498   5.944   1.215   5.934  0.6084  0.3804 -0.5688
15028TIP3    H166499   5.973   1.281   5.997  2.0246 -0.5249 -0.2326
15028TIP3    H266500   5.926   1.264   5.854  2.1806  1.1218 -0.4995
15029TIP3   OH266501   0.134   0.613   0.458  0.9081  0.1230 -0.1042
15029TIP3    H166502   0.076   0.604   0.534 -0.5945  0.2577 -1.1726
15029TIP3    H266503   0.115   0.536   0.404  2.5457 -0.3940  0.0189
15030TIP3   OH266504   1.218   5.974   4.566  0.8211  0.1067 -0.1356
15030TIP3    H166505   1.206   6.046   4.504 -2.0316  2.3108  2.6106
15030TIP3    H266506   1.131   5.960   4.603  2.0567 -2.0802  2.2872
15031TIP3   OH266507   4.971   2.167   2.006  1.2922 -0.0533 -0.5350
15031TIP3    H166508   4.983   2.244   2.061  1.5026  0.9167 -1.8802
15031TIP3    H266509   5.044   2.170   1.944  1.1986 -1.2414 -0.7234
15032TIP3   OH266510   5.128   0.181   2.880  0.3691  0.2082  0.2867
15032TIP3    H166511   5.065   0.234   2.832  1.1043 -0.0789 -1.0642
15032TIP3    H266512   5.198   0.242   2.903  0.8936  0.0050 -0.6776
15033TIP3   OH266513   3.937   1.554  13.733 -0.5933 -0.2926  0.1834
15033TIP3    H166514   3.910   1.643  13.756  0.1331 -0.3032  1.1319
15033TIP3    H266515   3.968   1.516  13.815  0.4579 -0.9328 -0.4832
15034TIP3   OH266516   2.769   5.587  11.026 -0.1787  0.1698  0.4229
15034TIP3    H166517   2.724   5.607  11.108 -1.0566  1.0978 -0.2529
15034TIP3    H266518   2.796   5.673  10.992 -0.1434 -0.1652 -0.4180
15035TIP3   OH266519   5.743   2.631   1.780  0.5805  0.3976  0.2994
15035TIP3    H166520   5.742   2.535   1.787 -3.2824  0.3599  1.3739
15035TIP3    H266521   5.713   2.648   1.691 -0.3434  0.5959  0.6487
15036TIP3   OH266522   2.404   0.914  15.609 -0.6014 -0.4279 -0.3238
15036TIP3    H166523   2.444   0.851  15.668 -0.1412 -0.5448 -0.7530
15036TIP3    H266524   2.380   0.863  15.532 -0.4174 -0.1241 -0.5863
15037TIP3   OH266525   0.189   5.853  12.827 -0.1494 -0.2455  0.2958
15037TIP3    H166526   0.257   5.849  12.760  0.4176 -1.1167  0.9147
15037TIP3    H266527   0.158   5.762  12.835 -0.0187 -0.2054  1.4018
15038TIP3   OH266528   5.042   2.099   5.502  0.1375 -0.3158  0.5471
15038TIP3    H166529   4.987   2.138   5.569 -1.4746 -3.2032  1.0988
15038TIP3    H266530   5.005   2.128   5.419 -2.3220 -2.1259  0.9105
15039TIP3   OH266531   1.604   3.148  13.978 -0.4074  0.2721 -0.2487
15039TIP3    H166532   1.523   3.115  14.017 -1.6332 -0.5888 -3.2237
15039TIP3    H266533   1.642   3.071  13.935  0.6840  1.2020 -0.9769
15040TIP3   OH266534   6.484   3.991  13.294  0.3824 -0.2079  0.3842
15040TIP3    H166535   6.557   3.960  13.240  1.6760  3.8681 -0.5704
15040TIP3    H266536   6.407   3.949  13.258  1.9142 -2.4444 -0.4762
15041TIP3   OH266537   5.973   2.957   2.096 -0.4534  0.1275  0.0756
15041TIP3    H166538   5.994   2.973   2.188 -0.5610  0.4963  0.0372
15041TIP3    H266539   5.889   2.911   2.098 -1.0577  1.2006  0.1229
15042TIP3   OH266540   5.761   4.922  15.926 -0.2975  0.3236  0.6914
15042TIP3    H166541   5.668   4.905  15.918 -0.7671  2.8640 -0.3840
15042TIP3    H266542   5.766   5.005  15.973  1.4113  0.2688  0.6780
15043TIP3   OH266543   0.987   4.133  14.164 -0.1266 -0.1423 -0.4894
15043TIP3    H166544   0.995   4.166  14.253 -0.0609 -0.7308 -0.2729
15043TIP3    H266545   0.979   4.038  14.174 -0.6251 -0.1718 -1.0781
15044TIP3   OH266546   2.250   4.002  15.170 -0.1344 -0.4596  0.0758
15044TIP3    H166547   2.239   3.926  15.228 -1.2369  0.3976  1.0394
15044TIP3    H266548   2.188   3.987  15.099  0.6742 -1.1347 -0.5186
15045TIP3   OH266549   3.824   1.704   2.353  0.2719 -0.2603  0.0081
15045TIP3    H166550   3.808   1.784   2.403  1.5191 -0.1371  0.2501
15045TIP3    H266551   3.805   1.728   2.262 -2.7758 -0.6991  0.4327
15046TIP3   OH266552   2.324   2.076   5.637 -0.3888 -0.1613  0.0271
15046TIP3    H166553   2.361   2.152   5.680 -1.4455  0.7255 -0.5871
15046TIP3    H266554   2.338   2.004   5.698  0.2605  0.5977  0.7900
15047TIP3   OH266555   0.062   3.760  11.083 -0.0627  0.1909 -0.3847
15047TIP3    H166556   0.024   3.704  11.016 -1.0182 -0.9697  1.0555
15047TIP3    H266557   0.148   3.720  11.101 -0.2384 -0.1127 -0.2058
15048TIP3   OH266558   0.260   4.404   4.401  0.1027  0.6260 -0.4505
15048TIP3    H166559   0.242   4.411   4.307  2.3058  2.3696 -0.8281
15048TIP3    H266560   0.330   4.467   4.417  0.0748  0.0899  2.3176
15049TIP3   OH266561   6.241   4.590  16.703  0.3268 -0.1516 -0.0876
15049TIP3    H166562   6.321   4.539  16.717  0.4028  0.0964  0.4061
15049TIP3    H266563   6.222   4.578  16.610  0.3231 -1.0987  0.0220
15050TIP3   OH266564   5.047   0.319   3.717  0.3058  0.0780  0.5366
15050TIP3    H166565   5.116   0.267   3.759  1.1226  0.0743 -0.7676
15050TIP3    H266566   5.020   0.267   3.642 -2.0696 -0.5193  1.7216
15051TIP3   OH266567   6.767   4.097  11.792  0.1999  0.1733  0.3315
15051TIP3    H166568   6.824   4.022  11.773  2.1933  1.8250 -0.5926
15051TIP3    H266569   6.711   4.104  11.714 -1.4490 -1.4996  1.2725
15052TIP3   OH266570   3.001   0.236   3.138 -0.2553 -0.2452  0.2342
15052TIP3    H166571   3.012   0.319   3.092  1.0104  0.2398  1.3556
15052TIP3    H266572   3.089   0.212   3.167 -0.6324 -1.8814  0.1131
15053TIP3   OH266573   5.927   3.424   1.731  0.4965  0.5797 -0.3531
15053TIP3    H166574   5.978   3.504   1.719  1.3706  0.3249  1.3917
15053TIP3    H266575   5.955   3.367   1.660  0.5010  1.5010 -1.1095
15054TIP3   OH266576   2.280   4.773   0.316  0.0082  0.8402 -0.2579
15054TIP3    H166577   2.293   4.790   0.409 -0.5341  1.4142 -0.2803
15054TIP3    H266578   2.191   4.738   0.311  0.9476 -1.7267 -0.2577
15055TIP3   OH266579   2.091   5.803  14.382  0.2744 -0.4572 -0.1579
15055TIP3    H166580   2.036   5.848  14.317 -1.2448  0.0265  1.3922
15055TIP3    H266581   2.174   5.851  14.380 -0.7983  1.5569  0.3820
15056TIP3   OH266582   5.358   3.595  14.764  0.2236 -0.4735 -0.3092
15056TIP3    H166583   5.397   3.632  14.843  1.2694 -1.8538 -0.1263
15056TIP3    H266584   5.404   3.512  14.752 -2.5070 -2.1135 -0.2351
15057TIP3   OH266585   5.610   4.078   3.396  0.6157 -0.4390  0.2300
15057TIP3    H166586   5.610   4.026   3.315 -0.8625 -1.2482  0.7094
15057TIP3    H266587   5.546   4.148   3.379 -0.9942 -1.6057  1.2611
15058TIP3   OH266588   3.654   0.789  14.775 -0.5223 -0.2553  0.6680
15058TIP3    H166589   3.695   0.735  14.707  0.1169  1.2280 -0.1566
15058TIP3    H266590   3.711   0.778  14.851 -0.4438 -0.8135  0.5331
15059TIP3   OH266591   3.694   2.411   4.623  0.5056 -0.1492  0.3173
15059TIP3    H166592   3.747   2.398   4.702 -1.0997  0.2635  1.5198
15059TIP3    H266593   3.729   2.491   4.584  1.0111 -0.0836  0.8812
15060TIP3   OH266594   5.566   4.079  14.146  0.2044  0.3146  0.1539
15060TIP3    H166595   5.478   4.096  14.113  0.3183  1.6079  0.4951
15060TIP3    H266596   5.574   4.133  14.225  1.6429  0.9803 -0.4122
15061TIP3   OH266597   1.753   6.472   3.874  0.5937  0.3523 -0.7841
15061TIP3    H166598   1.767   6.401   3.811  3.0019 -0.3940  0.4512
15061TIP3    H266599   1.800   6.546   3.836  0.0085  0.6252 -0.9852
15062TIP3   OH266600   4.742   1.913  16.763  0.0842  0.3391 -0.0986
15062TIP3    H166601   4.788   1.833  16.787  0.5300  0.0942 -1.6633
15062TIP3    H266602   4.719   1.902  16.671 -0.4225  1.7421 -0.1782
15063TIP3   OH266603   6.045   4.905  17.209  0.3300 -0.1298  0.0507
15063TIP3    H166604   6.014   4.815  17.209 -2.5229  0.6010 -3.2849
15063TIP3    H266605   6.090   4.915  17.125 -0.5065  1.7471 -0.2397
15064TIP3   OH266606   3.519   1.799  13.257 -0.2694 -0.1596 -0.3678
15064TIP3    H166607   3.479   1.793  13.344 -1.2333 -0.2191 -0.8044
15064TIP3    H266608   3.504   1.890  13.230 -0.3522 -0.2582 -0.6526
15065TIP3   OH266609   6.202   1.053   1.515  0.4612  0.6131  0.2123
15065TIP3    H166610   6.292   1.081   1.534  0.0830  1.7602  0.4337
15065TIP3    H266611   6.182   0.988   1.583  0.7919  1.0848  0.7739
15066TIP3   OH266612   0.422   5.807  10.876  0.1291  0.9258  0.1034
15066TIP3    H166613   0.335   5.845  10.878 -0.4099 -0.1487  3.3938
15066TIP3    H266614   0.409   5.719  10.842  0.4107  1.5359 -1.7182
15067TIP3   OH266615   2.524   4.973   3.327 -0.1756  0.0484  0.4120
15067TIP3    H166616   2.508   4.903   3.263 -1.4776 -0.2417  1.0182
15067TIP3    H266617   2.442   5.022   3.329 -0.5538 -0.5948  2.6306
15068TIP3   OH266618   4.823   4.428  11.153  0.0229  0.5293  0.1309
15068TIP3    H166619   4.778   4.473  11.082 -2.3135  0.4092  1.4256
15068TIP3    H266620   4.842   4.341  11.118  3.0996  1.8199 -1.8237
15069TIP3   OH266621   3.670   6.328  12.506 -0.2449  0.2946  0.2832
15069TIP3    H166622   3.738   6.374  12.456  0.0939  0.7060  1.1193
15069TIP3    H266623   3.589   6.351  12.461  0.2912 -2.1356 -2.2663
15070TIP3   OH266624   2.185   1.814  15.788  0.9102  0.1470  0.4436
15070TIP3    H166625   2.230   1.779  15.711  0.7730  0.0606  0.4042
15070TIP3    H266626   2.181   1.909  15.772 -0.6802 -0.0604 -0.4716
15071TIP3   OH266627   5.942   2.755  12.207  0.4361  0.3855 -0.3624
15071TIP3    H166628   5.970   2.840  12.240  2.1910  0.5635 -2.1071
15071TIP3    H266629   5.878   2.776  12.139  1.2713  0.3775 -1.1714
15072TIP3   OH266630   3.023   2.770  11.511 -0.5027 -0.5185  0.1315
15072TIP3    H166631   3.114   2.758  11.483 -0.4895  0.7824 -0.4807
15072TIP3    H266632   3.027   2.765  11.607  0.4476  0.7659  0.1851
15073TIP3   OH266633   3.200   1.796  12.029 -0.3141  0.1584  0.1056
15073TIP3    H166634   3.111   1.780  12.062 -0.4827  2.5904  1.0118
15073TIP3    H266635   3.251   1.821  12.106  0.8928 -0.1057 -0.5804
15074TIP3   OH266636   3.774   5.274   2.528 -0.1546  0.2247 -0.0510
15074TIP3    H166637   3.787   5.365   2.501 -1.5519  0.9894  1.6761
15074TIP3    H266638   3.822   5.266   2.610 -0.1240 -0.5771 -0.1377
15075TIP3   OH266639   1.067   1.203  11.989 -0.0475 -0.1767 -0.0083
15075TIP3    H166640   1.119   1.277  12.019 -1.3909  0.5926  0.4921
15075TIP3    H266641   1.082   1.135  12.055  0.5652 -0.0991 -0.0560
15076TIP3   OH266642   0.308   6.107  11.501 -0.0637  0.4178  0.5185
15076TIP3    H166643   0.299   6.104  11.406  0.5072 -0.6532  0.4950
15076TIP3    H266644   0.256   6.033  11.532  0.6317  0.1191  0.9747
15077TIP3   OH266645   2.150   1.452   3.840  0.6425  0.0332  0.3301
15077TIP3    H166646   2.226   1.510   3.850  0.4668  0.0241  1.9741
15077TIP3    H266647   2.154   1.424   3.749  2.9478 -0.4224  0.5083
15078TIP3   OH266648   4.853   5.454   2.487  0.0785  0.0038 -0.1895
15078TIP3    H166649   4.854   5.508   2.566  1.2903 -0.1408 -0.0845
15078TIP3    H266650   4.780   5.488   2.436  0.4299  1.3566  0.1556
15079TIP3   OH266651   1.740   0.655   5.502 -0.2223  0.3639 -0.2242
15079TIP3    H166652   1.653   0.670   5.539  0.0620  1.7127 -0.0207
15079TIP3    H266653   1.793   0.626   5.576 -0.0015  1.6529  0.1512
15080TIP3   OH266654   6.766   6.341  15.506 -0.1392  0.1325  0.1224
15080TIP3    H166655   6.779   6.404  15.436 -1.9448  0.5571  0.1195
15080TIP3    H266656   6.672   6.325  15.507  0.2774 -3.3093 -0.5152
15081TIP3   OH266657   2.350   1.894  13.428  0.5920 -0.2761 -0.6936
15081TIP3    H166658   2.268   1.868  13.385  0.2024 -0.3875  0.0986
15081TIP3    H266659   2.384   1.964  13.373 -0.7207  0.6932 -0.3179
15082TIP3   OH266660   2.695   2.520   2.991 -0.2442 -0.3228 -0.7559
15082TIP3    H166661   2.623   2.559   2.942 -0.5880  1.1744  0.8476
15082TIP3    H266662   2.739   2.594   3.033  1.2078 -1.3613 -0.3519
15083TIP3   OH266663   4.810   5.632   0.692  0.6483  0.0439  0.7288
15083TIP3    H166664   4.853   5.568   0.636  0.2245  1.5056 -1.3742
15083TIP3    H266665   4.723   5.643   0.653  0.5410  1.5153  1.3231
15084TIP3   OH266666   0.974   6.230   0.314 -0.0602  0.1114 -0.2078
15084TIP3    H166667   0.977   6.249   0.220 -1.0829  3.6049  0.3554
15084TIP3    H266668   1.065   6.239   0.343  0.8045 -3.6755 -1.1351
15085TIP3   OH266669   2.782   5.757  12.417  0.0731  0.3389 -0.1670
15085TIP3    H166670   2.705   5.787  12.368  0.2840  0.7270 -0.2720
15085TIP3    H266671   2.856   5.799  12.372  0.5141 -1.4113 -1.1574
15086TIP3   OH266672   5.105   6.285   2.499 -0.0957  0.0187 -0.1923
15086TIP3    H166673   5.101   6.251   2.410  0.8707 -1.5221  0.3217
15086TIP3    H266674   5.045   6.229   2.549  0.7250 -0.3012  0.4642
15087TIP3   OH266675   0.193   5.424  12.451  0.2001  0.0135  0.1640
15087TIP3    H166676   0.101   5.397  12.447  0.3390 -0.7520  1.3782
15087TIP3    H266677   0.195   5.509  12.408 -1.0285 -0.0900 -0.1470
15088TIP3   OH266678   2.142   4.893  16.714  0.3890  0.0146  0.0660
15088TIP3    H166679   2.193   4.968  16.745 -0.5207  0.7539 -0.1761
15088TIP3    H266680   2.136   4.835  16.790  0.7420  0.3852  0.3823
15089TIP3   OH266681   2.349   6.539  13.776 -0.6999 -0.6041  0.2898
15089TIP3    H166682   2.348   6.573  13.865  2.8741  0.6172  0.0527
15089TIP3    H266683   2.349   6.444  13.787  1.5170 -0.5114  1.8064
15090TIP3   OH266684   2.647   3.581  12.645  0.3409 -0.6010 -0.0316
15090TIP3    H166685   2.688   3.583  12.731 -0.8154  0.0569  0.5341
15090TIP3    H266686   2.712   3.619  12.586  0.2906  1.1764  0.9776
15091TIP3   OH266687   4.259   0.483   0.595  0.5030 -0.1136 -0.0040
15091TIP3    H166688   4.301   0.400   0.618  0.6012 -0.3036 -0.8302
15091TIP3    H266689   4.324   0.529   0.542 -0.0236 -0.0605 -0.6101
15092TIP3   OH266690   0.345   1.372   6.676 -1.2055  0.3279  0.0632
15092TIP3    H166691   0.371   1.392   6.586  1.2167  1.3170  0.8972
15092TIP3    H266692   0.353   1.277   6.682 -0.7785  0.3102 -0.6030
15093TIP3   OH266693   5.607   3.587  12.664  0.4973 -0.2085 -0.3005
15093TIP3    H166694   5.525   3.576  12.616 -0.4959  0.6492  1.1158
15093TIP3    H266695   5.633   3.677  12.644 -1.1760  1.0269  2.4644
15094TIP3   OH266696   5.272   1.636  15.363 -0.0124  0.2935 -0.1507
15094TIP3    H166697   5.262   1.639  15.458  1.0842  0.2877 -0.0173
15094TIP3    H266698   5.245   1.547  15.339 -0.0825  0.2213  0.1921
15095TIP3   OH266699   5.822   1.798  12.141 -0.1037  0.3547  0.3425
15095TIP3    H166700   5.727   1.802  12.151 -0.1534  0.1230 -0.0329
15095TIP3    H266701   5.856   1.848  12.215 -0.5463  1.2679 -0.0510
15096TIP3   OH266702   1.017   5.294  14.193 -0.4423  0.0737 -0.0676
15096TIP3    H166703   1.050   5.222  14.247  1.9500  2.1938  1.5128
15096TIP3    H266704   0.969   5.350  14.254  0.3558  1.3558 -0.5718
15097TIP3   OH266705   1.507   3.694   3.647  0.2563  0.0610  0.5844
15097TIP3    H166706   1.469   3.607   3.642 -0.2273  0.2643  0.6833
15097TIP3    H266707   1.601   3.679   3.654  0.2777 -0.4312 -0.5292
15098TIP3   OH266708   0.297   0.842   4.836 -0.5281 -0.2864  0.5854
15098TIP3    H166709   0.286   0.773   4.770  0.6099 -0.1229  0.2009
15098TIP3    H266710   0.209   0.878   4.848 -0.8523 -0.7056 -0.4254
15099TIP3   OH266711   4.404   1.929   3.536  0.3957 -0.1384  0.0781
15099TIP3    H166712   4.499   1.935   3.528  0.4036 -1.3631 -1.2559
15099TIP3    H266713   4.373   2.019   3.533  1.4295  0.2052 -1.0158
15100TIP3   OH266714   2.842   3.503  13.298  0.4395  0.1877 -0.2964
15100TIP3    H166715   2.903   3.506  13.224  0.2323  0.8556 -0.4452
15100TIP3    H266716   2.795   3.420  13.286 -0.4383  0.8336 -1.6052
15101TIP3   OH266717   4.355   6.153   4.951  0.4768 -0.0554 -0.1483
15101TIP3    H166718   4.377   6.061   4.966  2.1816  0.0950 -1.3949
15101TIP3    H266719   4.336   6.158   4.857 -1.6638  0.5228  0.2575
15102TIP3   OH266720   1.978   5.365   1.675 -0.2281  0.0498  0.5092
15102TIP3    H166721   2.043   5.430   1.701  1.1112 -1.0256 -0.0021
15102TIP3    H266722   1.903   5.416   1.646  1.4117  1.4640 -1.5447
15103TIP3   OH266723   5.475   3.551  15.954  0.1109 -0.3413  0.1944
15103TIP3    H166724   5.549   3.607  15.977  0.3934 -0.8367  0.5098
15103TIP3    H266725   5.409   3.612  15.919  0.2336  0.2464  0.9544
15104TIP3   OH266726   1.182   1.476   4.452 -0.5773  0.6079  0.2676
15104TIP3    H166727   1.099   1.436   4.478  0.0634 -0.0780  1.3809
15104TIP3    H266728   1.236   1.402   4.425 -0.5313  1.1145 -1.0655
15105TIP3   OH266729   6.031   0.811   4.544 -0.4421  0.8182 -0.2405
15105TIP3    H166730   6.013   0.769   4.628 -0.2115  5.0492  2.2272
15105TIP3    H266731   5.948   0.849   4.517 -0.2752  0.3851 -1.4163
15106TIP3   OH266732   2.847   6.333  16.445  0.0481 -0.1543  0.3623
15106TIP3    H166733   2.783   6.308  16.379 -0.8733 -0.4384  1.3287
15106TIP3    H266734   2.821   6.421  16.472  0.9005  0.2875 -0.2059
15107TIP3   OH266735   4.946   1.261  16.059 -0.1197 -0.1555  0.3147
15107TIP3    H166736   4.907   1.221  15.982  2.6322 -0.5104 -1.0226
15107TIP3    H266737   4.941   1.193  16.127 -1.9707 -0.0770  0.2822
15108TIP3   OH266738   5.654   3.485  16.396  0.5086 -0.1597  0.0309
15108TIP3    H166739   5.713   3.479  16.321 -1.9371 -2.6388 -1.8801
15108TIP3    H266740   5.577   3.531  16.362 -0.0918 -0.0593  1.4734
15109TIP3   OH266741   6.191   2.531  12.205  0.0166 -0.1883  0.0240
15109TIP3    H166742   6.203   2.437  12.221  0.8678 -0.9383 -3.9780
15109TIP3    H266743   6.102   2.537  12.170  0.4484  0.2315 -1.0348
15110TIP3   OH266744   5.534   4.380  10.567  0.3069  0.4241  0.1749
15110TIP3    H166745   5.519   4.472  10.546  1.1695  0.1962 -1.5899
15110TIP3    H266746   5.629   4.373  10.579 -0.0113  0.3454  3.5253
15111TIP3   OH266747   1.947   3.285  10.917 -0.4245  0.9825 -0.2866
15111TIP3    H166748   1.904   3.277  10.831 -0.5464  1.1649 -0.2434
15111TIP3    H266749   2.032   3.324  10.897  0.6373 -1.3402 -0.6286
15112TIP3   OH266750   4.394   3.750   2.803 -0.4718  0.5903  0.2613
15112TIP3    H166751   4.398   3.823   2.740  0.2536 -1.6361 -2.4771
15112TIP3    H266752   4.476   3.757   2.852  0.0985  1.0398 -0.7117
15113TIP3   OH266753   3.457   0.787  11.695  0.0463 -0.3904 -0.1539
15113TIP3    H166754   3.363   0.772  11.705 -0.2655  1.1137 -0.5867
15113TIP3    H266755   3.476   0.765  11.604 -0.3499  1.3983 -0.7004
15114TIP3   OH266756   3.262   4.148   4.106  0.1751  0.0804 -0.0619
15114TIP3    H166757   3.357   4.138   4.092  0.1118  0.2113 -0.5997
15114TIP3    H266758   3.231   4.193   4.028  0.1903  2.9785  1.4618
15115TIP3   OH266759   5.033   3.131  14.744  0.3789  0.0199  0.1269
15115TIP3    H166760   5.015   3.225  14.736 -1.1637 -0.2363  0.2815
15115TIP3    H266761   4.968   3.099  14.807  2.0665 -0.8423  1.5424
15116TIP3   OH266762   0.555   1.121  12.472  0.6702  0.3878  0.1188
15116TIP3    H166763   0.591   1.086  12.390  0.1407  0.8232 -0.3089
15116TIP3    H266764   0.462   1.102  12.468  0.4682  1.3062  0.1426
15117TIP3   OH266765   1.330   1.255   4.445  0.9315  0.1544  0.0320
15117TIP3    H166766   1.421   1.230   4.425  0.8275  0.4449 -0.8305
15117TIP3    H266767   1.293   1.177   4.486  0.8376 -0.8678 -1.9209
15118TIP3   OH266768   3.909   0.143  12.028 -0.1676  0.1193  0.2189
15118TIP3    H166769   3.869   0.143  11.942  2.0665 -1.0087 -0.9151
15118TIP3    H266770   3.928   0.236  12.046  1.2531  0.2046 -1.5066
15119TIP3   OH266771   6.534   3.996  13.915  0.3432  0.4370  0.3516
15119TIP3    H166772   6.471   4.059  13.880  1.2789  1.1633 -0.0767
15119TIP3    H266773   6.535   4.014  14.010  1.7025  2.1624  0.0715
15120TIP3   OH266774   1.896   5.825   0.842  0.2354  0.0693 -0.1300
15120TIP3    H166775   1.896   5.886   0.768  0.2753  1.1694  0.7448
15120TIP3    H266776   1.829   5.860   0.901  0.3270 -0.6889  0.4287
15121TIP3   OH266777   4.923   3.400  12.499  0.4277 -0.4143  0.7390
15121TIP3    H166778   4.942   3.308  12.484  1.1816 -0.0772 -0.5586
15121TIP3    H266779   4.828   3.407  12.493  0.3474 -1.1471  1.1178
15122TIP3   OH266780   5.751   4.828   3.611 -0.7360  0.3267  0.1353
15122TIP3    H166781   5.759   4.839   3.516 -0.8545 -1.5290 -0.1319
15122TIP3    H266782   5.816   4.762   3.633 -1.6706 -0.2983  1.1207
15123TIP3   OH266783   1.025   3.323  13.716  0.4945 -0.7634 -0.1232
15123TIP3    H166784   0.970   3.388  13.671 -0.8096 -2.8282 -1.6820
15123TIP3    H266785   1.109   3.327  13.671  1.1494  1.1672  1.1138
15124TIP3   OH266786   4.465   4.196  12.494  0.6062  0.5981 -0.1544
15124TIP3    H166787   4.557   4.222  12.497  0.7621  0.1819 -0.8986
15124TIP3    H266788   4.441   4.181  12.585  1.3350  0.5275  0.0344
15125TIP3   OH266789   3.185   6.668   2.649  0.5766  0.1629  0.5882
15125TIP3    H166790   3.191   6.762   2.630 -0.2922  0.2257  0.5787
15125TIP3    H266791   3.106   6.640   2.604  1.1625 -0.7143  0.0843
15126TIP3   OH266792   2.727   4.330   6.010  0.1179 -0.5119 -0.2013
15126TIP3    H166793   2.685   4.270   6.072 -1.0604  1.3403  0.8708
15126TIP3    H266794   2.723   4.416   6.052  0.0253  0.6926 -2.4763
15127TIP3   OH266795   1.214   6.454   1.698  0.6332 -0.4831  0.1790
15127TIP3    H166796   1.271   6.380   1.717 -0.1734 -1.3073 -0.5261
15127TIP3    H266797   1.252   6.494   1.619  2.0374  0.9093  1.4920
15128TIP3   OH266798   6.365   3.952  12.808  0.3646 -0.4133 -0.4682
15128TIP3    H166799   6.404   3.871  12.774  0.6426 -0.0248 -1.0793
15128TIP3    H266800   6.274   3.928  12.825  0.5973 -1.0324 -0.0364
15129TIP3   OH266801   4.230   3.610   4.606  0.5953  0.3053 -0.1989
15129TIP3    H166802   4.252   3.689   4.655  0.3507  1.1529 -1.3893
15129TIP3    H266803   4.195   3.550   4.671  1.6228  0.8417  0.8819
15130TIP3   OH266804   1.586   1.284   3.124  0.1617  0.1324  0.2273
15130TIP3    H166805   1.568   1.213   3.062  1.4052  0.6728 -0.7817
15130TIP3    H266806   1.632   1.350   3.073  2.6635 -0.0580  2.0387
15131TIP3   OH266807   4.806   3.616  16.046 -0.3079  0.3833  0.2318
15131TIP3    H166808   4.892   3.608  16.088 -0.1597  1.2678  0.1140
15131TIP3    H266809   4.744   3.588  16.114  0.0458  0.0771  0.4367
15132TIP3   OH266810   2.005   0.768  15.023 -0.0211  0.0973  0.1864
15132TIP3    H166811   1.958   0.750  15.104 -1.0808 -0.0951 -0.4566
15132TIP3    H266812   2.055   0.688  15.006 -1.1973 -0.5635 -0.2783
15133TIP3   OH266813   5.365   0.520  12.128  0.2403  0.4581  0.6565
15133TIP3    H166814   5.328   0.448  12.077  2.2521  1.9179 -3.3470
15133TIP3    H266815   5.440   0.482  12.173  0.9338 -0.1929 -0.9579
15134TIP3   OH266816   4.152   5.224  13.085  0.0933  0.0594 -0.2145
15134TIP3    H166817   4.107   5.140  13.088 -0.2042  0.1516 -1.5181
15134TIP3    H266818   4.187   5.229  12.996 -1.4570  2.0992 -0.7832
15135TIP3   OH266819   0.187   0.773  13.589 -0.2321  0.3077  0.1262
15135TIP3    H166820   0.216   0.683  13.608  0.0110  0.5040  0.6868
15135TIP3    H266821   0.244   0.800  13.516  1.1331  0.7282  1.2913
15136TIP3   OH266822   4.268   6.724   3.793 -0.3575  0.1082 -0.0294
15136TIP3    H166823   4.289   6.801   3.846  1.9152 -0.4816  0.0190
15136TIP3    H266824   4.340   6.718   3.731  0.4276 -2.8872  1.0163
15137TIP3   OH266825   5.750   2.294   3.822 -0.1193 -0.7956 -0.5305
15137TIP3    H166826   5.690   2.369   3.825  1.3352  0.4845 -1.5198
15137TIP3    H266827   5.696   2.222   3.789 -1.0585  0.3908 -1.7040
15138TIP3   OH266828   0.636   5.286  10.269  0.2249 -0.6850 -0.0314
15138TIP3    H166829   0.653   5.367  10.317  3.2103 -0.7770 -0.7720
15138TIP3    H266830   0.702   5.284  10.199  0.1095 -3.6247 -0.2082
15139TIP3   OH266831   4.222   6.486   3.263 -0.1933  0.2619  0.0700
15139TIP3    H166832   4.295   6.495   3.202 -1.5466  1.9444 -1.4051
15139TIP3    H266833   4.206   6.392   3.269  0.1457  0.0412 -2.0013
15140TIP3   OH266834   4.242   6.143   4.381 -0.3483 -0.0856  0.0004
15140TIP3    H166835   4.238   6.048   4.391 -2.0026 -0.2715 -1.8836
15140TIP3    H266836   4.150   6.170   4.373  0.0914  1.6901  0.5809
15141TIP3   OH266837   0.848   0.785   0.067  0.3068 -0.2592 -0.1483
15141TIP3    H166838   0.792   0.826   0.133  1.7755 -0.3965  1.2469
15141TIP3    H266839   0.832   0.836  -0.013 -1.3588  0.0358  0.3391
15142TIP3   OH266840   2.365   5.422  10.553 -0.0359  0.2447 -0.1774
15142TIP3    H166841   2.347   5.368  10.629 -0.1711  1.7970  0.9533
15142TIP3    H266842   2.383   5.360  10.482 -0.6703 -1.2439  0.9195
15143TIP3   OH266843   5.316   1.416   3.126  0.5205 -0.2843  0.0297
15143TIP3    H166844   5.382   1.434   3.059  0.2697  1.9556  0.3133
15143TIP3    H266845   5.285   1.328   3.105  1.2966 -0.1244 -2.0770
15144TIP3   OH266846   2.281   2.123   4.523 -0.1056 -0.0805  0.1751
15144TIP3    H166847   2.344   2.092   4.457 -0.3484  0.7513 -0.4661
15144TIP3    H266848   2.198   2.127   4.476 -0.3228  0.3351  0.5917
15145TIP3   OH266849   4.279   6.584   4.371 -0.1576 -0.1308 -0.2682
15145TIP3    H166850   4.233   6.646   4.314  0.4035 -0.7859 -1.4807
15145TIP3    H266851   4.335   6.639   4.426 -0.8147  0.5256 -0.2424
15146TIP3   OH266852   5.679   0.197   5.069 -0.4427 -0.5833 -0.1799
15146TIP3    H166853   5.632   0.251   5.132 -0.5242 -1.3636  0.4433
15146TIP3    H266854   5.611   0.165   5.009 -0.5365 -0.7975  0.0426
15147TIP3   OH266855   3.982   5.130  11.560 -0.5021  0.5468  0.6841
15147TIP3    H166856   4.077   5.119  11.555 -0.6129 -0.9572  1.3304
15147TIP3    H266857   3.948   5.041  11.568 -1.9260  1.1024  1.1338
15148TIP3   OH266858   0.645   2.307   3.873  0.3080  0.1680 -0.2130
15148TIP3    H166859   0.592   2.362   3.815  0.6935 -0.8561 -1.6049
15148TIP3    H266860   0.604   2.315   3.959 -1.7405 -0.1220 -1.1130
15149TIP3   OH266861   2.611   2.826   3.110 -0.4198 -0.4852  0.0534
15149TIP3    H166862   2.703   2.802   3.099 -0.4524 -0.8787  0.6179
15149TIP3    H266863   2.577   2.833   3.021  0.0093 -0.9223 -0.1481
15150TIP3   OH266864   4.221   5.574   2.202  0.2569  0.0564 -0.0391
15150TIP3    H166865   4.267   5.512   2.145  0.3343  1.3717 -1.4817
15150TIP3    H266866   4.165   5.623   2.143  0.8079  1.9242  0.9136
15151TIP3   OH266867   2.204   4.258  10.256 -0.7169  0.0063  0.2572
15151TIP3    H166868   2.267   4.235  10.325 -1.4066 -1.4800  0.4310
15151TIP3    H266869   2.211   4.186  10.193 -1.3139  0.4909 -0.3730
15152TIP3   OH266870   5.766   0.322   4.355 -0.1856  0.0187  0.5812
15152TIP3    H166871   5.828   0.338   4.427 -2.6957  1.0513  2.6529
15152TIP3    H266872   5.763   0.227   4.347  2.9530 -0.0905 -0.8895
15153TIP3   OH266873   0.445   4.134  14.688  0.1349  0.3149  0.2018
15153TIP3    H166874   0.508   4.207  14.688  0.5461  0.0422 -2.4900
15153TIP3    H266875   0.473   4.078  14.617 -2.0334 -0.8642  0.1993
15154TIP3   OH266876   3.481   5.234   0.521 -0.2060 -0.2622 -0.7330
15154TIP3    H166877   3.558   5.254   0.469 -0.1256 -0.4981 -0.7081
15154TIP3    H266878   3.439   5.161   0.474  0.2374 -0.9351 -0.1032
15155TIP3   OH266879   1.644   5.118  12.382 -0.1237 -0.2113  0.5023
15155TIP3    H166880   1.709   5.074  12.437  1.0885  0.7528 -0.1092
15155TIP3    H266881   1.613   5.049  12.323  1.6355 -0.3521 -0.3429
15156TIP3   OH266882   2.410   1.877  17.190 -0.4604 -0.0044 -0.0212
15156TIP3    H166883   2.487   1.929  17.214 -1.4714  0.8819  1.5164
15156TIP3    H266884   2.371   1.852  17.274 -4.6657  3.9157 -0.3903
15157TIP3   OH266885   3.877   4.828  11.548 -0.4223  0.0256 -0.9464
15157TIP3    H166886   3.872   4.839  11.643  1.1460  1.3278 -0.9565
15157TIP3    H266887   3.797   4.869  11.515  0.0990  1.6538 -0.2817
15158TIP3   OH266888   6.039   1.848  16.758 -0.4280 -0.1094  0.2274
15158TIP3    H166889   6.007   1.814  16.674 -0.2277  0.2317  0.0056
15158TIP3    H266890   5.998   1.935  16.765 -0.4854 -0.1600  0.5072
15159TIP3   OH266891   1.232   6.408   1.014  0.0543  0.2507  0.5121
15159TIP3    H166892   1.215   6.455   0.932 -0.7328  0.8186  0.9797
15159TIP3    H266893   1.327   6.410   1.023  0.1777 -0.0987 -0.5433
15160TIP3   OH266894   5.648   6.576   1.051  0.1539  0.1817  0.3968
15160TIP3    H166895   5.687   6.633   0.984 -0.0698  1.8928  1.6400
15160TIP3    H266896   5.721   6.524   1.084  0.1525 -1.1503 -1.5655
15161TIP3   OH266897   3.818   4.500  13.843  0.2203  0.5319 -0.8468
15161TIP3    H166898   3.875   4.576  13.857 -1.5649  1.8269 -0.1162
15161TIP3    H266899   3.818   4.487  13.748  0.2465  1.7444 -1.0310
15162TIP3   OH266900   3.223   0.490  11.589  0.4269 -0.0698 -0.3407
15162TIP3    H166901   3.282   0.564  11.575  0.4488  0.1418  0.7986
15162TIP3    H266902   3.190   0.469  11.502  2.6941 -0.6319 -1.1571
15163TIP3   OH266903   0.724   0.264  15.432 -0.2889 -0.7456  0.0110
15163TIP3    H166904   0.660   0.200  15.401 -0.4184 -0.3631 -0.5426
15163TIP3    H266905   0.698   0.283  15.522  2.4785 -4.9489  2.0358
15164TIP3   OH266906   2.522   1.931   0.692  0.6374 -0.4583  0.0276
15164TIP3    H166907   2.575   1.948   0.770  1.7262 -1.7268 -0.3839
15164TIP3    H266908   2.477   1.849   0.711 -1.5446  0.7946  0.5127
15165TIP3   OH266909   3.864   1.568   2.048  0.6977  0.5247  0.4140
15165TIP3    H166910   3.817   1.649   2.069 -0.2658 -0.1228  0.8565
15165TIP3    H266911   3.886   1.575   1.955  1.7192  1.8205  0.7234
15166TIP3   OH266912   5.626   3.075   1.409  0.6465 -0.0785  0.1097
15166TIP3    H166913   5.709   3.123   1.406  0.4766  0.2034 -0.0892
15166TIP3    H266914   5.592   3.090   1.497 -0.2605  1.6149 -0.4973
15167TIP3   OH266915   5.562   1.076   1.656 -0.4827  0.4080  0.0534
15167TIP3    H166916   5.581   1.109   1.568  0.2001 -0.5772 -0.1752
15167TIP3    H266917   5.466   1.068   1.658 -0.4376 -0.6856 -1.0264
15168TIP3   OH266918   0.315   2.439  16.673  0.2759  0.1655  0.1351
15168TIP3    H166919   0.295   2.396  16.756  1.1840  1.1584  0.9066
15168TIP3    H266920   0.238   2.493  16.654  1.0565  1.9484  1.7184
15169TIP3   OH266921   6.330   5.733   5.518 -0.0553  0.3660  0.0763
15169TIP3    H166922   6.269   5.752   5.446  1.0712  0.8288 -0.7887
15169TIP3    H266923   6.390   5.807   5.518  0.9824 -0.4526  0.3976
15170TIP3   OH266924   6.006   0.141   2.465  0.1419  0.8795 -0.6440
15170TIP3    H166925   6.059   0.177   2.394  1.4281  0.3100  0.0001
15170TIP3    H266926   6.008   0.046   2.452  0.4145  0.7637  0.1611
15171TIP3   OH266927   6.088   0.287  11.786 -0.3005  0.5449 -0.4263
15171TIP3    H166928   6.076   0.360  11.726  0.9644  0.7079 -0.5112
15171TIP3    H266929   6.171   0.305  11.830 -0.0239 -0.7778 -0.3608
15172TIP3   OH266930   5.076   3.299  17.157 -0.0963  0.1954  0.8306
15172TIP3    H166931   5.046   3.222  17.109 -2.8831  3.0049 -2.4702
15172TIP3    H266932   5.154   3.329  17.110 -0.4417  0.6971  0.5685
15173TIP3   OH266933   2.217   5.695  12.052 -0.2762 -0.2043  0.1117
15173TIP3    H166934   2.190   5.603  12.049 -1.7259 -0.1090  4.2236
15173TIP3    H266935   2.309   5.693  12.078 -0.6371 -0.5584  1.4406
15174TIP3   OH266936   0.506   5.938   1.564  0.4331 -0.1894 -0.5541
15174TIP3    H166937   0.523   5.930   1.658  0.5658 -1.0019 -0.6381
15174TIP3    H266938   0.542   5.858   1.526  0.0583 -0.0369 -1.2544
15175TIP3   OH266939   2.619   3.571   3.972  0.0958  0.0958  0.1084
15175TIP3    H166940   2.656   3.655   3.944 -0.2112 -0.3102 -1.6306
15175TIP3    H266941   2.687   3.507   3.949 -0.9232 -0.4595 -1.5609
15176TIP3   OH266942   4.079   4.466   6.587 -0.1146  0.4457 -0.3713
15176TIP3    H166943   4.084   4.555   6.621 -1.9495  1.2639 -2.0734
15176TIP3    H266944   4.147   4.463   6.520 -0.2398  0.6448 -0.5067
15177TIP3   OH266945   1.065   1.773  12.847 -0.7212 -0.2019  0.3177
15177TIP3    H166946   1.115   1.832  12.790  0.0414 -1.0346  0.1018
15177TIP3    H266947   1.003   1.830  12.892 -0.8118  0.5978 -0.7629
15178TIP3   OH266948   1.136   2.654  11.963 -0.1937 -0.0478  0.2824
15178TIP3    H166949   1.204   2.587  11.956  0.4206  0.5210  0.5506
15178TIP3    H266950   1.074   2.619  12.026  0.5118 -0.0626  0.9937
15179TIP3   OH266951   1.316   0.015  12.710  0.0419  0.1370 -0.1696
15179TIP3    H166952   1.301  -0.077  12.690 -0.1759  0.1743 -0.1783
15179TIP3    H266953   1.407   0.018  12.741 -0.1614 -0.1856  0.4779
15180TIP3   OH266954   0.553   6.076   6.006 -0.8811  0.2435 -0.7537
15180TIP3    H166955   0.515   6.157   5.972 -0.6443  0.3597 -0.7423
15180TIP3    H266956   0.487   6.009   5.988 -1.2128  0.4946 -0.4795
15181TIP3   OH266957   1.885   4.678   0.021  0.1234  0.4184 -0.2317
15181TIP3    H166958   1.864   4.589   0.052  0.2781  0.7177  0.7890
15181TIP3    H266959   1.920   4.665  -0.067 -0.3641 -0.4856 -0.3068
15182TIP3   OH266960   6.494   3.486  14.167 -0.8766  0.6146  0.3076
15182TIP3    H166961   6.399   3.496  14.161 -1.0235  0.4606  2.0201
15182TIP3    H266962   6.528   3.575  14.157 -1.1877  0.6755 -0.2755
15183TIP3   OH266963   4.780   3.280   2.061  0.2549  0.3476  0.2076
15183TIP3    H166964   4.858   3.297   2.115 -0.4554 -0.8651  1.6860
15183TIP3    H266965   4.769   3.185   2.064 -0.7047  0.4085 -0.8449
15184TIP3   OH266966   2.294   1.967  10.815 -0.3328  0.1601  0.1712
15184TIP3    H166967   2.386   1.949  10.799  0.0498  1.6310  0.5787
15184TIP3    H266968   2.294   2.038  10.878 -1.7512  0.3066  0.0406
15185TIP3   OH266969   4.915   0.597  15.086 -0.5825 -0.3891 -0.1972
15185TIP3    H166970   4.898   0.544  15.009 -2.6022 -0.2339  0.0694
15185TIP3    H266971   4.857   0.561  15.153 -0.8598  1.1464  0.4428
15186TIP3   OH266972   0.392   0.913   1.376 -0.1167  0.0912 -0.6166
15186TIP3    H166973   0.464   0.975   1.389  0.9009 -1.3933  1.2004
15186TIP3    H266974   0.328   0.937   1.442  0.5675 -1.1473  0.5326
15187TIP3   OH266975   6.017   5.696  16.714  1.2048 -0.0954  0.0806
15187TIP3    H166976   6.039   5.765  16.651 -0.4168  0.3411 -0.0584
15187TIP3    H266977   5.961   5.740  16.778  2.5478 -0.6085  1.6808
15188TIP3   OH266978   3.140   4.918   3.894  0.4957  0.2555  0.5002
15188TIP3    H166979   3.194   4.902   3.971  1.0369  2.3185  0.5927
15188TIP3    H266980   3.195   4.970   3.836 -0.2903 -0.3422 -0.8288
15189TIP3   OH266981   2.261   4.519   0.718  0.2386 -0.4669 -0.7586
15189TIP3    H166982   2.347   4.561   0.716 -2.1954  5.4759 -1.8913
15189TIP3    H266983   2.218   4.556   0.795 -2.6056  0.3083 -2.5382
15190TIP3   OH266984   6.411   3.529   3.362 -0.3708 -0.7017  0.3945
15190TIP3    H166985   6.322   3.546   3.332  0.0992  1.5285  0.0520
15190TIP3    H266986   6.450   3.478   3.291 -1.4204 -1.9501  0.6796
15191TIP3   OH266987   5.121   4.847  12.482 -0.2804  0.3994 -0.0040
15191TIP3    H166988   5.122   4.752  12.478  0.3795  0.3772  0.4535
15191TIP3    H266989   5.172   4.868  12.560 -1.4126  1.0974  0.5740
15192TIP3   OH266990   3.730   1.775  15.268 -0.0335 -0.2722 -0.7610
15192TIP3    H166991   3.652   1.815  15.306  0.0506 -1.2450  0.5282
15192TIP3    H266992   3.803   1.824  15.305  0.0042  0.0839 -1.2927
15193TIP3   OH266993   5.088   0.116   5.703 -0.3981 -0.0498  0.9839
15193TIP3    H166994   5.138   0.080   5.630 -1.6354 -1.0352  0.5927
15193TIP3    H266995   5.027   0.177   5.662 -1.6711 -1.2343  1.0785
15194TIP3   OH266996   1.518   2.771  15.743  0.0676  0.0831 -0.0527
15194TIP3    H166997   1.571   2.723  15.679 -1.6893 -0.1425 -1.4081
15194TIP3    H266998   1.555   2.860  15.742  1.3620 -0.4386  0.1609
15195TIP3   OH266999   6.199   3.077  14.979 -0.0819 -0.0413  0.0067
15195TIP3    H167000   6.254   3.080  15.057 -0.2898 -0.1751  0.1581
15195TIP3    H267001   6.109   3.085  15.012 -0.1084  1.2504 -0.3089
15196TIP3   OH267002   1.058   0.271   2.347  0.4921  0.2758 -0.3692
15196TIP3    H167003   1.001   0.206   2.306 -0.3117  1.0556 -0.5405
15196TIP3    H267004   1.045   0.350   2.294  0.3597  0.9674  0.6668
15197TIP3   OH267005   4.808   3.329  14.452 -0.2894  0.2998 -0.1850
15197TIP3    H167006   4.775   3.251  14.497  0.5404  0.2237  0.3006
15197TIP3    H267007   4.820   3.300  14.361 -1.4280  0.2987 -0.3550
15198TIP3   OH267008   4.977   3.150  15.704  0.4649  0.4977  0.6897
15198TIP3    H167009   5.048   3.191  15.753  0.9393 -0.5022  0.8685
15198TIP3    H267010   4.951   3.075  15.758 -1.4483  1.4309  1.1521
15199TIP3   OH267011   0.867   3.231   0.618 -0.0149 -0.5480  0.0806
15199TIP3    H167012   0.943   3.256   0.670 -0.4982 -1.3086  1.1902
15199TIP3    H267013   0.795   3.286   0.650 -0.5933 -1.8328  1.0942
15200TIP3   OH267014   4.254   4.547   1.627  0.0598  0.1970  0.3269
15200TIP3    H167015   4.204   4.502   1.695  0.6054  0.1593  0.7038
15200TIP3    H267016   4.193   4.554   1.553 -0.5788  0.3463  0.8576
15201TIP3   OH267017   3.700   1.497  15.187 -0.3093 -0.2097  0.2810
15201TIP3    H167018   3.716   1.582  15.227 -0.8498  0.0035  0.0485
15201TIP3    H267019   3.737   1.503  15.099  0.5047 -0.5390  0.5909
15202TIP3   OH267020   2.556   5.976   0.321  0.0469  0.4912  0.0147
15202TIP3    H167021   2.614   5.970   0.246  1.1392 -0.6991  0.9216
15202TIP3    H267022   2.555   5.888   0.358  0.3660  1.2648  1.9902
15203TIP3   OH267023   1.697   0.648   1.433  0.2734  0.0622  0.1367
15203TIP3    H167024   1.781   0.650   1.386  0.3415  0.9355  0.2740
15203TIP3    H267025   1.720   0.675   1.522 -0.0604 -0.3062  0.3350
15204TIP3   OH267026   3.909   4.509   2.161  0.3801 -0.0846 -0.0652
15204TIP3    H167027   3.904   4.431   2.216  1.4431 -0.5285 -0.5781
15204TIP3    H267028   3.897   4.582   2.222 -0.3755 -0.6306  0.4512
15205TIP3   OH267029   3.970   2.258  12.471  0.4592 -0.2815  0.6502
15205TIP3    H167030   4.002   2.328  12.528 -1.6315  1.7758 -0.5684
15205TIP3    H267031   3.896   2.221  12.517  0.6642 -0.7246  0.6302
15206TIP3   OH267032   5.937   2.540   4.084  0.2034  0.9371 -0.5535
15206TIP3    H167033   5.898   2.602   4.146 -0.6803 -0.4227  0.2896
15206TIP3    H267034   5.890   2.458   4.099  0.5848  0.3329 -2.4141
15207TIP3   OH267035   3.944   4.585   4.572 -0.4804  0.2681 -0.1658
15207TIP3    H167036   4.025   4.637   4.567  0.5128 -1.2037 -0.0386
15207TIP3    H267037   3.874   4.649   4.561  0.6722  1.7067  0.4604
15208TIP3   OH267038   0.091   6.390   2.375 -0.0616 -0.1747 -0.1930
15208TIP3    H167039   0.167   6.363   2.427  1.5427  1.3187 -1.6109
15208TIP3    H267040   0.019   6.335   2.406  1.1203 -0.3225  2.5782
15209TIP3   OH267041   3.353   4.702   0.780  0.7919  0.2671  0.3601
15209TIP3    H167042   3.277   4.687   0.837  1.2535  0.0217  0.9120
15209TIP3    H267043   3.416   4.747   0.836  1.3621 -0.2306  0.1149
15210TIP3   OH267044   0.702   0.591  12.985  0.2922  0.2496 -0.5266
15210TIP3    H167045   0.775   0.541  13.023 -0.1995 -0.7998 -0.9365
15210TIP3    H267046   0.742   0.674  12.958  1.6537 -0.8253 -2.0014
15211TIP3   OH267047   5.386   1.728   4.469 -0.4447 -0.2852 -0.0687
15211TIP3    H167048   5.292   1.724   4.456 -0.4633 -1.0034  0.2795
15211TIP3    H267049   5.397   1.734   4.564 -0.1558  0.3753 -0.1374
15212TIP3   OH267050   3.763   4.190   5.587  0.6334 -0.3805  0.5213
15212TIP3    H167051   3.782   4.284   5.584 -1.3803  0.0639 -1.2753
15212TIP3    H267052   3.844   4.150   5.618  1.7509  1.8880  0.7471
15213TIP3   OH267053   2.973   4.535   1.053 -0.5505  0.3728  0.6200
15213TIP3    H167054   2.953   4.548   1.145 -0.4130 -0.9080  0.8413
15213TIP3    H267055   2.902   4.480   1.020  0.8247 -1.4983  0.6405
15214TIP3   OH267056   2.146   0.796  15.611 -0.2513  0.1335  0.8043
15214TIP3    H167057   2.184   0.784  15.698 -0.4568  0.7900  0.9916
15214TIP3    H267058   2.190   0.732  15.556 -1.6292 -1.8160  1.8330
15215TIP3   OH267059   3.129   0.470   2.985 -0.2811  0.0134  0.2122
15215TIP3    H167060   3.046   0.517   2.989 -1.4697 -1.7490 -1.7512
15215TIP3    H267061   3.170   0.498   2.904  1.3465  1.2071  1.3725
15216TIP3   OH267062   2.498   6.047  15.085  0.3984 -0.2990 -0.0162
15216TIP3    H167063   2.488   5.979  15.018 -0.4630  0.6966 -0.9576
15216TIP3    H267064   2.587   6.080  15.072  0.4083 -0.4525 -0.3629
15217TIP3   OH267065   6.199   0.888   1.752  0.0178  0.7257  0.6016
15217TIP3    H167066   6.241   0.809   1.719  0.9788  1.1800  0.7035
15217TIP3    H267067   6.105   0.867   1.754 -0.0277  0.4620 -1.7987
15218TIP3   OH267068   6.737   0.100   0.677  0.5905 -0.3591 -0.3603
15218TIP3    H167069   6.712   0.054   0.757  0.9802  2.1368  1.3352
15218TIP3    H267070   6.663   0.086   0.618  0.0260 -1.8155  0.6241
15219TIP3   OH267071   4.301   5.298  12.511  0.2868 -0.1307 -0.5056
15219TIP3    H167072   4.274   5.272  12.423 -1.4052 -1.8961  0.4722
15219TIP3    H267073   4.363   5.229  12.537 -0.8978 -0.8614  0.4706
15220TIP3   OH267074   1.937   3.337  12.119  0.1845  0.0847  0.3490
15220TIP3    H167075   1.980   3.252  12.130 -0.2824 -0.2548 -0.4139
15220TIP3    H267076   1.942   3.377  12.206 -1.3763 -1.5642  1.2792
15221TIP3   OH267077   0.603   3.220   0.431  0.0186  0.8314  0.0066
15221TIP3    H167078   0.690   3.220   0.393  0.0111 -0.9955 -0.1336
15221TIP3    H267079   0.615   3.254   0.520  1.3342 -1.5039  0.8087
15222TIP3   OH267080   2.090   3.120  12.254 -0.0740  0.6215  0.0098
15222TIP3    H167081   2.114   3.042  12.203  0.8477  1.5100 -0.9553
15222TIP3    H267082   2.069   3.086  12.341  1.0370 -0.6287 -0.1820
15223TIP3   OH267083   6.242   1.282   3.205 -0.7639  0.0704  0.5067
15223TIP3    H167084   6.207   1.311   3.289 -1.9708  0.5882 -0.1492
15223TIP3    H267085   6.165   1.258   3.154 -0.1203  0.5193 -0.7213
15224TIP3   OH267086   4.873   4.131  13.598  0.5092 -0.4297 -0.1652
15224TIP3    H167087   4.883   4.040  13.572  0.9536 -0.3326 -0.3468
15224TIP3    H267088   4.955   4.152  13.643 -0.7661 -1.0147  2.6370
15225TIP3   OH267089   1.756   3.732   5.945 -0.0761  0.3669 -0.4347
15225TIP3    H167090   1.698   3.672   5.990 -1.1517  0.7466 -1.2744
15225TIP3    H267091   1.719   3.740   5.857  1.5657  0.1773 -1.1885
15226TIP3   OH267092   6.489   2.808  14.295 -0.4836  0.1430  0.5436
15226TIP3    H167093   6.583   2.814  14.310 -0.6467  0.4233  1.5554
15226TIP3    H267094   6.456   2.756  14.369 -0.9545 -1.1095 -0.5120
15227TIP3   OH267095   6.168   3.555  13.596 -0.1251 -0.7642  0.2428
15227TIP3    H167096   6.138   3.470  13.566 -1.1861  0.3955 -2.3028
15227TIP3    H267097   6.101   3.617  13.564 -0.2397  0.9115  3.3485
15228TIP3   OH267098   6.159   2.078   0.664  0.1507 -0.1396  0.0800
15228TIP3    H167099   6.152   2.096   0.758  0.3173  1.0960 -0.1227
15228TIP3    H267100   6.076   2.108   0.627  0.3228 -0.0611 -0.2475
15229TIP3   OH267101   5.695   0.806  14.449 -0.2783 -0.0105  0.2888
15229TIP3    H167102   5.725   0.725  14.408 -0.9616 -0.8591  1.4279
15229TIP3    H267103   5.646   0.851  14.380 -0.4708 -0.8867 -0.1581
15230TIP3   OH267104   2.749   1.882   6.165 -0.0260 -0.0736 -0.5280
15230TIP3    H167105   2.821   1.878   6.102  0.4463  1.5312 -0.1329
15230TIP3    H267106   2.790   1.865   6.250  0.0151  1.3906 -0.2338
15231TIP3   OH267107   3.345   4.708   5.382  0.1057 -0.9975  0.2256
15231TIP3    H167108   3.426   4.724   5.431  0.8498  1.8739 -1.6898
15231TIP3    H267109   3.374   4.696   5.291 -1.5901  1.3987 -0.7361
15232TIP3   OH267110   1.399   0.198  16.143  0.0881 -0.2386 -0.5799
15232TIP3    H167111   1.438   0.253  16.074 -0.2502  1.1374  0.2840
15232TIP3    H267112   1.316   0.241  16.164 -0.5780 -1.5536 -0.4217
15233TIP3   OH267113   4.560   0.833   3.205 -0.9319 -0.2623  0.0249
15233TIP3    H167114   4.466   0.836   3.186 -0.7619  0.3929 -0.7674
15233TIP3    H267115   4.602   0.860   3.123  0.0097 -1.9272 -0.0799
15234TIP3   OH267116   3.536   4.636   3.802  0.0030  0.0115 -0.6189
15234TIP3    H167117   3.540   4.667   3.892  0.4123  0.3372 -0.7454
15234TIP3    H267118   3.518   4.714   3.750 -0.0425 -0.1432 -0.8348
15235TIP3   OH267119   0.762   6.501  14.688 -0.2499 -0.4245  0.4684
15235TIP3    H167120   0.795   6.584  14.653 -0.4554 -0.2922  0.5869
15235TIP3    H267121   0.748   6.446  14.612 -1.0546 -0.0096  0.3053
15236TIP3   OH267122   6.390   0.411  14.000  0.0156 -0.2371  0.0653
15236TIP3    H167123   6.342   0.448  14.074  0.1614 -1.9516  1.0724
15236TIP3    H267124   6.481   0.439  14.014 -0.3935  1.9557 -1.1621
15237TIP3   OH267125   2.814   5.943  15.760  0.1339 -0.0763 -0.2123
15237TIP3    H167126   2.807   5.943  15.665 -3.7220 -1.8422 -0.0865
15237TIP3    H267127   2.766   6.021  15.788 -2.2090 -1.6070  0.2879
15238TIP3   OH267128   2.786   2.379  16.902 -0.3122  0.1738  0.3105
15238TIP3    H167129   2.805   2.358  16.811 -1.1986 -1.4558  0.4706
15238TIP3    H267130   2.868   2.363  16.948 -0.2558 -0.4218  0.0145
15239TIP3   OH267131   1.699   6.367  16.919 -0.2582 -0.7292 -0.0179
15239TIP3    H167132   1.778   6.319  16.895  1.6933  1.6764  1.1041
15239TIP3    H267133   1.669   6.407  16.837 -0.6203 -2.0278 -0.5363
15240TIP3   OH267134   3.199   0.636   2.773 -0.4943 -0.2640  0.3691
15240TIP3    H167135   3.267   0.660   2.837  1.3106 -0.6594 -1.3271
15240TIP3    H267136   3.123   0.689   2.799  0.6377  0.6800  1.9540
15241TIP3   OH267137   4.319   6.087  11.169  0.3205  0.1294 -0.2291
15241TIP3    H167138   4.382   6.015  11.159 -1.6638 -1.7352 -0.0625
15241TIP3    H267139   4.313   6.100  11.263  3.2033  3.0214 -0.2624
15242TIP3   OH267140   1.961   6.746   1.987 -0.3706 -0.1557  0.3591
15242TIP3    H167141   2.020   6.754   2.062 -1.8257  0.4557  1.4947
15242TIP3    H267142   1.898   6.818   1.998 -0.7488 -0.1768 -1.3455
15243TIP3   OH267143   5.115   5.795   2.679 -0.2481  0.2972  0.4826
15243TIP3    H167144   5.169   5.795   2.757 -0.5396  0.9636  0.6890
15243TIP3    H267145   5.081   5.884   2.672 -0.3808  0.2008 -0.2938
15244TIP3   OH267146   0.157   3.131   3.534 -0.0873 -0.3895  0.0844
15244TIP3    H167147   0.076   3.104   3.578 -0.4868 -0.2994 -0.5806
15244TIP3    H267148   0.139   3.219   3.502  0.6437  0.0416  0.8281
15245TIP3   OH267149   2.113   6.225   4.167  0.4596 -0.3464  0.5806
15245TIP3    H167150   2.101   6.204   4.074 -1.4440 -2.7917  1.2605
15245TIP3    H267151   2.041   6.284   4.187  0.7839  0.0646  0.5406
15246TIP3   OH267152   1.391   2.011   3.845  0.2166 -0.4060  0.0283
15246TIP3    H167153   1.396   1.915   3.848  0.0574 -0.4406 -0.5971
15246TIP3    H267154   1.482   2.039   3.832 -0.0688 -0.6755 -3.6409
15247TIP3   OH267155   0.225   0.981  11.158 -0.1808 -0.1877  0.3343
15247TIP3    H167156   0.232   0.916  11.089 -0.7953 -2.0529  1.9408
15247TIP3    H267157   0.155   0.949  11.215  0.2529  1.3036  1.7989
15248TIP3   OH267158   4.490   0.168  16.403 -0.8819  0.2189  0.0339
15248TIP3    H167159   4.433   0.231  16.448 -0.2138  0.6112  0.3379
15248TIP3    H267160   4.492   0.199  16.312 -2.4443 -0.7249 -0.3601
15249TIP3   OH267161   0.369   0.478   2.527  0.1552 -0.1583  0.6899
15249TIP3    H167162   0.375   0.383   2.523 -0.7792 -0.2138  0.5545
15249TIP3    H267163   0.293   0.496   2.583 -0.7277  0.4859 -0.6659
15250TIP3   OH267164   0.179   4.083   5.588 -0.4117 -0.3698  0.2075
15250TIP3    H167165   0.105   4.144   5.594 -0.3376 -0.3610  1.4690
15250TIP3    H267166   0.192   4.053   5.678  0.4451 -1.1885 -0.1699
15251TIP3   OH267167   3.638   1.603   0.886 -0.2022 -0.1540  0.0512
15251TIP3    H167168   3.597   1.689   0.878  1.1199  0.5883  0.8360
15251TIP3    H267169   3.565   1.543   0.902 -1.0121  1.0680  1.1814
15252TIP3   OH267170   4.246   3.651   6.534  0.5914  0.1442  0.4695
15252TIP3    H167171   4.159   3.657   6.574  2.2193  1.4424  4.2570
15252TIP3    H267172   4.274   3.741   6.523  0.9183 -0.2096 -2.3167
15253TIP3   OH267173   5.212   2.425   2.589  0.5633  0.0434  0.6806
15253TIP3    H167174   5.257   2.494   2.540  1.3445 -0.4165  0.7418
15253TIP3    H267175   5.282   2.378   2.634 -0.1945  1.3771  3.4750
15254TIP3   OH267176   5.437   1.395   0.354 -0.3122 -0.3608  0.0212
15254TIP3    H167177   5.451   1.451   0.277 -0.5612 -0.8368 -0.3792
15254TIP3    H267178   5.445   1.454   0.428 -2.8878  0.7388 -0.4711
15255TIP3   OH267179   2.797   1.358   2.406 -0.3871 -0.0237  0.3786
15255TIP3    H167180   2.780   1.333   2.315  1.9179  1.2890 -0.5037
15255TIP3    H267181   2.838   1.445   2.400  0.9767 -0.4327  2.5729
15256TIP3   OH267182   0.373   5.800   1.897  0.0211 -0.1736 -0.3521
15256TIP3    H167183   0.439   5.829   1.960  0.6647 -2.6108  0.2050
15256TIP3    H267184   0.301   5.863   1.907  0.9909  0.7544  1.2443
15257TIP3   OH267185   0.454   2.306  14.884  0.0051 -0.0024 -0.7336
15257TIP3    H167186   0.474   2.374  14.819  1.7641 -1.1166 -1.4305
15257TIP3    H267187   0.520   2.319  14.952 -0.0649 -0.6003 -0.5474
15258TIP3   OH267188   4.628   0.702   4.830  0.4838  0.0577 -0.0562
15258TIP3    H167189   4.664   0.631   4.884 -0.0172  0.0710  0.3075
15258TIP3    H267190   4.701   0.763   4.818  0.5342  0.1793  0.8269
15259TIP3   OH267191   5.625   6.249  13.005  0.1750 -0.5792 -0.0878
15259TIP3    H167192   5.697   6.234  13.067  0.3323 -0.7148 -0.3032
15259TIP3    H267193   5.550   6.270  13.060  0.2543 -0.9392  0.1606
15260TIP3   OH267194   2.032   5.579  16.122 -0.3737 -0.0853 -0.2712
15260TIP3    H167195   2.073   5.643  16.063 -0.3533  0.3972  0.2568
15260TIP3    H267196   2.105   5.528  16.157 -0.2143  0.7504  0.6421
15261TIP3   OH267197   0.981   5.516  16.632 -0.5020  0.1890  0.2389
15261TIP3    H167198   1.057   5.573  16.626 -0.6564  0.3821  0.0830
15261TIP3    H267199   0.906   5.574  16.613 -0.6419 -0.1008 -0.0971
15262TIP3   OH267200   1.216   1.676   3.345  0.2476 -0.1442  0.0195
15262TIP3    H167201   1.301   1.633   3.359  0.7654  0.4392 -1.1051
15262TIP3    H267202   1.191   1.709   3.431  2.9297  2.8033 -0.1219
15263TIP3   OH267203   1.461   1.703   4.105 -0.4324  0.3600  0.7218
15263TIP3    H167204   1.519   1.777   4.122 -1.0169  0.9347  0.2716
15263TIP3    H267205   1.409   1.695   4.185  0.3731 -0.2813  1.2046
15264TIP3   OH267206   4.553   1.274  16.969 -0.0480  0.4968  0.1522
15264TIP3    H167207   4.616   1.333  17.011  1.7312 -1.3116  0.1370
15264TIP3    H267208   4.535   1.316  16.884  0.2925  1.5733  0.5924
15265TIP3   OH267209   1.552   2.750   2.465  0.1359  0.5076  0.4239
15265TIP3    H167210   1.517   2.692   2.533  1.1616  2.1128  2.4104
15265TIP3    H267211   1.568   2.833   2.510  3.0514  0.9563 -1.2212
15266TIP3   OH267212   0.262   2.626   6.118 -0.0799  0.3191  0.2541
15266TIP3    H167213   0.233   2.577   6.195  1.1566  0.8752  1.0831
15266TIP3    H267214   0.184   2.674   6.090 -1.1810 -1.6413 -0.2546
15267TIP3   OH267215   5.294   1.997  14.171  0.0166  0.0425 -0.0488
15267TIP3    H167216   5.334   1.966  14.252 -0.4829  0.2410  0.2785
15267TIP3    H267217   5.353   2.066  14.140 -0.3836  0.7728  0.7588
15268TIP3   OH267218   4.259   6.369   5.838  0.2578 -0.4742 -0.1467
15268TIP3    H167219   4.329   6.422   5.876  0.4532 -0.7503 -0.1265
15268TIP3    H267220   4.268   6.381   5.744 -1.3303  1.6698 -0.1040
15269TIP3   OH267221   5.265   4.475   3.322 -0.0660  0.5987  0.3293
15269TIP3    H167222   5.222   4.536   3.261  2.2178  0.4153 -1.5994
15269TIP3    H267223   5.349   4.517   3.342  1.3198 -1.5884 -0.5841
15270TIP3   OH267224   0.325   1.640   6.603  0.2734 -0.5118  0.2549
15270TIP3    H167225   0.317   1.554   6.645  0.7135  0.3529  2.2296
15270TIP3    H267226   0.237   1.678   6.609  0.0820 -0.7990 -0.6056
15271TIP3   OH267227   2.352   3.636  14.295  0.2689  0.2848 -0.3952
15271TIP3    H167228   2.298   3.614  14.371  0.7916  2.8695  0.8584
15271TIP3    H267229   2.388   3.722  14.316  3.1806 -0.3836 -2.1138
15272TIP3   OH267230   6.231   0.264   4.567 -0.7372 -0.0864  0.1642
15272TIP3    H167231   6.214   0.325   4.638  0.9165 -0.3719  0.8426
15272TIP3    H267232   6.181   0.185   4.591 -0.1926 -0.1811  1.0124
15273TIP3   OH267233   6.298   3.454   0.595  0.0165  0.2309  0.1592
15273TIP3    H167234   6.296   3.548   0.579 -1.5568  0.1704 -0.2123
15273TIP3    H267235   6.228   3.438   0.658 -0.7368 -0.8484 -0.8916
15274TIP3   OH267236   2.941   3.051  10.555 -1.0995  0.1286 -0.3614
15274TIP3    H167237   2.916   3.118  10.491 -0.3563 -1.3068 -2.2342
15274TIP3    H267238   2.864   2.994  10.559 -1.5061  0.7166  0.7982
15275TIP3   OH267239   1.591   4.565  13.333 -0.0423  0.6956 -0.8190
15275TIP3    H167240   1.557   4.510  13.263 -0.8354  0.5545 -0.3480
15275TIP3    H267241   1.513   4.609  13.368  0.6064  2.3778 -1.4010
15276TIP3   OH267242   6.296   1.188   0.394 -0.1302  0.4143 -0.3171
15276TIP3    H167243   6.258   1.115   0.444 -0.3453  0.5490 -0.2823
15276TIP3    H267244   6.265   1.266   0.440  1.2502  0.5102  0.4929
15277TIP3   OH267245   3.621   3.577  15.188 -0.4853  0.3815 -0.2286
15277TIP3    H167246   3.526   3.577  15.182 -0.4981 -1.4487 -1.0883
15277TIP3    H267247   3.640   3.563  15.281 -1.1527 -1.3780 -0.3062
15278TIP3   OH267248   3.398   0.375  11.118  0.3204  0.2247 -0.5642
15278TIP3    H167249   3.448   0.352  11.196 -2.1191  0.4603  1.1777
15278TIP3    H267250   3.442   0.329  11.047  2.0976 -0.7432  1.0806
15279TIP3   OH267251   4.865   2.101   2.618  0.1643  0.1541  0.1181
15279TIP3    H167252   4.848   2.189   2.585 -2.4773  0.3737  1.7425
15279TIP3    H267253   4.849   2.107   2.712  1.9869 -1.6385  0.6096
15280TIP3   OH267254   1.636   1.198  16.133  0.2677  0.3738 -0.4372
15280TIP3    H167255   1.599   1.188  16.045 -1.9212  0.5263  0.4050
15280TIP3    H267256   1.622   1.113  16.174 -1.3163  1.1180  0.6490
15281TIP3   OH267257   6.754   5.385   3.218  0.4058 -0.4247  0.3276
15281TIP3    H167258   6.774   5.452   3.284 -1.7429  0.4795  0.1278
15281TIP3    H267259   6.767   5.429   3.134 -0.1542 -0.5276  0.1839
15282TIP3   OH267260   1.205   2.177  11.446 -0.1569  0.7603 -0.4508
15282TIP3    H167261   1.295   2.163  11.417  0.1826  0.0467  0.8583
15282TIP3    H267262   1.153   2.174  11.366  0.8132 -0.3836 -1.0775
15283TIP3   OH267263   6.406   4.302   5.753 -0.3583  0.0537  0.0895
15283TIP3    H167264   6.347   4.286   5.827 -0.4104  0.5097  0.1516
15283TIP3    H267265   6.371   4.250   5.682  0.4257 -1.4275  0.7362
15284TIP3   OH267266   3.719   1.685   2.829 -0.3795  0.6741  0.6007
15284TIP3    H167267   3.688   1.661   2.742 -0.3525  3.4234 -0.2649
15284TIP3    H267268   3.788   1.622   2.849 -0.9529 -0.4983 -1.0145
15285TIP3   OH267269   1.747   0.605  17.048  0.1842  0.1957  0.2606
15285TIP3    H167270   1.657   0.573  17.042  0.3840 -0.2973 -0.3596
15285TIP3    H267271   1.792   0.540  17.102  0.4855 -0.3515 -0.6174
15286TIP3   OH267272   5.818   5.592   3.457 -0.5576  0.3540  0.1231
15286TIP3    H167273   5.805   5.685   3.435 -2.3162  0.8140  2.6027
15286TIP3    H267274   5.905   5.590   3.497 -1.1167  1.2886  1.4615
15287TIP3   OH267275   6.561   6.598   1.835  0.0543  0.4912  0.6317
15287TIP3    H167276   6.548   6.568   1.744  0.6572 -0.2005  0.7641
15287TIP3    H267277   6.472   6.609   1.869 -0.1790  0.1175  0.1586
15288TIP3   OH267278   2.538   5.776  11.652  1.2284  0.7402  0.0262
15288TIP3    H167279   2.539   5.735  11.566 -1.1692 -0.2141  0.3825
15288TIP3    H267280   2.460   5.833  11.651  1.1865  0.7607  1.5267
15289TIP3   OH267281   0.034   4.244   3.956  0.5587 -0.1452  0.0466
15289TIP3    H167282   0.073   4.314   3.903 -0.7263 -0.4294 -1.3290
15289TIP3    H267283   0.023   4.171   3.895 -1.0526 -0.4443  0.6482
15290TIP3   OH267284   1.505   5.534  12.369  0.6937 -0.3440 -0.6364
15290TIP3    H167285   1.530   5.618  12.331  0.3870 -0.3002 -0.7452
15290TIP3    H267286   1.584   5.503  12.413  1.3782 -0.8906 -2.1838
15291TIP3   OH267287   1.082   6.708  11.277 -0.2081 -0.0013 -0.3976
15291TIP3    H167288   1.001   6.756  11.295 -0.1696 -0.5426  1.3890
15291TIP3    H267289   1.065   6.663  11.194 -1.6063  0.1837 -0.2399
15292TIP3   OH267290   3.920   3.697  14.165  0.4307  0.1695 -0.1833
15292TIP3    H167291   3.927   3.768  14.101  0.6626 -0.1946 -0.5628
15292TIP3    H267292   3.848   3.724  14.222 -0.6290 -0.0868 -1.3533
15293TIP3   OH267293   4.428   1.644  12.471 -0.4689  0.3776  0.2514
15293TIP3    H167294   4.365   1.710  12.500 -0.4496  0.6037 -0.2166
15293TIP3    H267295   4.510   1.669  12.514 -1.1807 -1.2375  2.7420
15294TIP3   OH267296   0.583   0.522  15.662  0.2499 -0.2453  0.6137
15294TIP3    H167297   0.643   0.595  15.648 -1.0659  0.6118 -0.9607
15294TIP3    H267298   0.503   0.548  15.615 -0.6228 -2.2327  0.9117
15295TIP3   OH267299   6.027   1.839   5.144  0.4456 -0.0484 -0.0947
15295TIP3    H167300   5.968   1.840   5.068  1.1115 -1.1744 -0.6608
15295TIP3    H267301   6.102   1.787   5.115  1.2803  0.5326  0.9384
15296TIP3   OH267302   0.897   0.084   0.393 -0.1110 -0.6780  0.5069
15296TIP3    H167303   0.873  -0.001   0.430  1.3601 -0.5284  1.9270
15296TIP3    H267304   0.815   0.132   0.387 -0.7992 -1.7769  0.7818
15297TIP3   OH267305   0.322   4.478  14.447 -0.2973  0.2804 -0.2065
15297TIP3    H167306   0.403   4.523  14.468 -0.1554 -1.1043  2.7461
15297TIP3    H267307   0.254   4.528  14.493 -0.2574 -1.7146  2.2656
15298TIP3   OH267308   4.258   3.413   5.884  0.2579  0.7601  0.3554
15298TIP3    H167309   4.207   3.472   5.829 -1.4956  0.1662  1.2714
15298TIP3    H267310   4.346   3.417   5.848 -0.7696  0.5288 -2.3765
15299TIP3   OH267311   4.907   0.086   4.465  0.5291 -0.2346  0.1176
15299TIP3    H167312   4.830   0.034   4.487 -1.0165  1.0084 -2.0369
15299TIP3    H267313   4.977   0.049   4.519 -1.0919 -2.7400  0.6504
15300TIP3   OH267314   6.714   4.350   1.765 -0.1113 -0.0485 -0.0252
15300TIP3    H167315   6.729   4.393   1.849 -2.0809  0.7491 -0.0044
15300TIP3    H267316   6.626   4.378   1.740  0.3796 -0.3311 -2.3162
15301TIP3   OH267317   0.822   4.185   4.610  0.1086 -0.1545  0.1016
15301TIP3    H167318   0.882   4.258   4.593  0.3256 -0.4886 -0.5817
15301TIP3    H267319   0.753   4.194   4.545 -0.3211 -0.0598  0.5704
15302TIP3   OH267320   6.474   3.122   4.477 -0.2321 -0.4445  0.3788
15302TIP3    H167321   6.492   3.210   4.510  1.0019 -0.2718 -0.6930
15302TIP3    H267322   6.560   3.080   4.473 -0.6966 -1.3726 -0.0405
15303TIP3   OH267323   1.425   5.940  14.354 -0.1853  0.4196 -0.1822
15303TIP3    H167324   1.409   5.967  14.445  0.5728  1.3635 -0.3111
15303TIP3    H267325   1.363   5.993  14.303  0.0196  0.5593 -0.2866
15304TIP3   OH267326   4.030   0.199  15.653  0.2031 -0.2945  0.4296
15304TIP3    H167327   4.028   0.110  15.689 -1.4855 -0.2670  0.4443
15304TIP3    H267328   4.031   0.187  15.558  0.1881 -0.3218  0.4324
15305TIP3   OH267329   5.368   2.881  12.181 -0.3663 -0.3288  0.5437
15305TIP3    H167330   5.398   2.794  12.210  0.2035 -0.6298 -0.8515
15305TIP3    H267331   5.410   2.942  12.241  1.8378 -0.8539 -0.3486
15306TIP3   OH267332   0.505   4.459  13.638  0.3089  0.4832 -0.0118
15306TIP3    H167333   0.598   4.464  13.656  0.1383 -0.2116  1.1920
15306TIP3    H267334   0.465   4.438  13.723 -0.9438  0.8297 -0.4877
15307TIP3   OH267335   5.102   0.508   4.186  0.0018 -0.0866 -0.4131
15307TIP3    H167336   5.149   0.425   4.183 -0.4491 -0.4419  1.4161
15307TIP3    H267337   5.015   0.487   4.153 -0.3918 -0.5628  0.8936
15308TIP3   OH267338   6.114   1.405   1.132 -0.2479 -0.0146 -0.1672
15308TIP3    H167339   6.154   1.326   1.168  0.1818  0.3378  0.1380
15308TIP3    H267340   6.027   1.407   1.173  0.4739  0.7397  1.4269
15309TIP3   OH267341   0.537   3.010  11.208  0.2852 -0.1563 -0.5371
15309TIP3    H167342   0.455   2.961  11.221  0.0209  0.1509 -1.0136
15309TIP3    H267343   0.578   3.011  11.295 -0.6070  0.3684 -0.1087
15310TIP3   OH267344   1.540   6.682   1.543 -0.5336 -0.3165  0.2555
15310TIP3    H167345   1.584   6.607   1.581 -1.5838 -1.6682 -1.0815
15310TIP3    H267346   1.454   6.649   1.516 -2.3547  2.1333  2.5132
15311TIP3   OH267347   0.610   6.322   3.976  0.1351 -0.4813 -0.1830
15311TIP3    H167348   0.573   6.252   4.029  0.5193 -1.0676 -0.6793
15311TIP3    H267349   0.576   6.307   3.888  1.2077 -0.7927 -0.5637
15312TIP3   OH267350   0.391   0.586  14.508 -0.1632 -0.6346 -0.1922
15312TIP3    H167351   0.483   0.607  14.488  0.4270 -1.0323  1.8908
15312TIP3    H267352   0.361   0.537  14.431  1.1753 -0.0093 -1.1729
15313TIP3   OH267353   1.721   3.541   4.614  0.2053 -0.3159  0.3740
15313TIP3    H167354   1.642   3.575   4.572  0.0014 -1.5850 -0.3203
15313TIP3    H267355   1.793   3.579   4.566  0.0136  0.2579  0.5303
15314TIP3   OH267356   2.937   3.073   5.868 -0.1527  0.0841  0.2617
15314TIP3    H167357   2.846   3.090   5.894 -0.4383 -0.0995 -0.5809
15314TIP3    H267358   2.933   2.989   5.822  0.4277  0.1197  0.1457
15315TIP3   OH267359   0.755   5.714  12.450 -0.5223  0.0776  0.1620
15315TIP3    H167360   0.813   5.649  12.410 -0.5769  0.8207 -1.1829
15315TIP3    H267361   0.789   5.725  12.539 -0.2625 -1.4660  0.2780
15316TIP3   OH267362   0.792   0.725   4.109 -0.1544 -0.3868  0.0852
15316TIP3    H167363   0.784   0.685   4.022 -0.2216  0.7131 -0.4362
15316TIP3    H267364   0.713   0.779   4.117  0.4967  0.5509  0.2738
15317TIP3   OH267365   0.580   4.887   5.468  0.4237  0.3287 -0.0881
15317TIP3    H167366   0.669   4.854   5.460  0.8025  1.3379 -0.2461
15317TIP3    H267367   0.525   4.810   5.460  1.3095 -0.4331  0.8930
15318TIP3   OH267368   3.695   4.395  14.401 -0.0158  0.0776  0.2333
15318TIP3    H167369   3.766   4.449  14.366  1.5363 -1.7793  0.3385
15318TIP3    H267370   3.635   4.385  14.328 -0.1416  1.5454  0.0888
15319TIP3   OH267371   3.149   5.731  12.029 -0.0568  0.1295 -0.5831
15319TIP3    H167372   3.058   5.758  12.039 -0.1429 -0.4883  0.4973
15319TIP3    H267373   3.175   5.764  11.943 -0.4555  2.6590  0.1868
15320TIP3   OH267374   5.971   1.301  11.333  0.4192  0.2439  0.1734
15320TIP3    H167375   6.058   1.328  11.362  0.1348  1.3963  0.0038
15320TIP3    H267376   5.929   1.269  11.413  0.7976  0.2379  0.3744
15321TIP3   OH267377   1.789   4.109  12.554 -0.6737  0.3683 -0.3242
15321TIP3    H167378   1.744   4.119  12.470  0.1844  1.1151 -0.7130
15321TIP3    H267379   1.762   4.186  12.605  1.3329  1.7279 -1.1503
15322TIP3   OH267380   3.965   5.569  12.161 -0.3684  0.7447 -0.3642
15322TIP3    H167381   3.962   5.502  12.228 -0.5792  1.0547 -0.0572
15322TIP3    H267382   4.044   5.620  12.180 -1.2394  1.7941  0.6087
15323TIP3   OH267383   2.110   5.998  15.934 -0.4432 -0.2570  0.0274
15323TIP3    H167384   2.015   5.986  15.934 -0.8405  1.5011  3.8853
15323TIP3    H267385   2.145   5.912  15.958 -0.8421 -1.2415 -2.5600
15324TIP3   OH267386   4.531   1.107  12.668  0.0573  0.2435  0.3774
15324TIP3    H167387   4.601   1.043  12.653  0.1834  0.4815 -0.0740
15324TIP3    H267388   4.459   1.055  12.705  0.4690 -0.0034  0.8461
15325TIP3   OH267389   5.426   2.507  14.927  0.3235  0.4188 -0.3933
15325TIP3    H167390   5.331   2.506  14.912  0.3566 -2.5638 -0.9990
15325TIP3    H267391   5.463   2.541  14.846 -0.1764  1.4683 -0.2053
15326TIP3   OH267392   3.387   4.133   3.694 -0.1881  0.3325 -0.8561
15326TIP3    H167393   3.365   4.226   3.702 -2.0304 -0.2087  1.6564
15326TIP3    H267394   3.462   4.121   3.752 -0.4676  0.1088 -0.5402
15327TIP3   OH267395   0.200   2.744   0.344 -0.5617 -0.0929 -0.9115
15327TIP3    H167396   0.111   2.775   0.357 -0.2168  0.2685  0.8357
15327TIP3    H267397   0.240   2.807   0.284 -0.9911  0.6888 -0.3794
15328TIP3   OH267398   4.651   5.624  11.514  0.4062 -0.5078 -0.3459
15328TIP3    H167399   4.674   5.717  11.507  0.3319 -0.4089  0.5968
15328TIP3    H267400   4.564   5.618  11.476 -0.8201  0.3533  2.1141
15329TIP3   OH267401   3.936   4.672   0.907 -0.3354  0.1950  0.0819
15329TIP3    H167402   3.897   4.595   0.949 -2.4572  1.0948 -0.0936
15329TIP3    H267403   3.975   4.722   0.980  2.2089 -1.5570  0.0608
15330TIP3   OH267404   3.345   5.381  15.547  0.2541 -0.4345  0.0658
15330TIP3    H167405   3.432   5.415  15.566  0.1161  2.1812 -3.1301
15330TIP3    H267406   3.286   5.432  15.602  0.4814  0.8414 -0.8289
15331TIP3   OH267407   4.637   4.990   3.648 -0.3076  0.0053  0.0781
15331TIP3    H167408   4.599   5.071   3.682  0.7104  0.6897 -0.3824
15331TIP3    H267409   4.561   4.934   3.629 -1.0673  1.1459 -0.3451
15332TIP3   OH267410   0.785   6.542  11.161 -0.0090  0.1948 -0.3964
15332TIP3    H167411   0.715   6.602  11.185 -0.3594  0.3150 -1.6590
15332TIP3    H267412   0.814   6.571  11.075 -1.0055 -2.1397 -1.5912
15333TIP3   OH267413   1.573   3.347  17.204  1.0303 -0.2241  0.6064
15333TIP3    H167414   1.548   3.343  17.297  1.1885 -0.9247  0.6240
15333TIP3    H267415   1.629   3.424  17.198 -1.4763  1.7105  0.4688
15334TIP3   OH267416   2.951   2.302  11.499  0.3804  0.0643 -0.6386
15334TIP3    H167417   3.026   2.246  11.478 -1.0664 -2.9143  1.3105
15334TIP3    H267418   2.875   2.253  11.467 -0.9264  1.5647  0.0367
15335TIP3   OH267419   2.376   3.861   5.817 -0.0500  0.0139  0.1815
15335TIP3    H167420   2.408   3.893   5.902  0.5119  1.5870 -0.5882
15335TIP3    H267421   2.345   3.772   5.836 -2.2500  1.1424  2.5905
15336TIP3   OH267422   2.098   4.751   1.716  0.3704 -0.7397 -0.9222
15336TIP3    H167423   2.129   4.755   1.806  1.3740 -0.2558 -1.2688
15336TIP3    H267424   2.018   4.804   1.715  0.7878 -0.0881 -0.4838
15337TIP3   OH267425   0.133   5.712   1.367 -0.0397  0.4145  0.3929
15337TIP3    H167426   0.168   5.779   1.426 -1.5270  0.2078  1.5594
15337TIP3    H267427   0.039   5.727   1.368 -0.1860 -0.3211 -1.0765
15338TIP3   OH267428   2.095   0.125  11.431 -0.2217 -0.1174 -0.4123
15338TIP3    H167429   2.005   0.148  11.404 -0.1533  0.5505 -0.0896
15338TIP3    H267430   2.084   0.082  11.516 -0.3070 -0.8493 -0.7857
15339TIP3   OH267431   4.382   1.424  13.120 -0.2346  0.1420 -0.1776
15339TIP3    H167432   4.294   1.438  13.087 -0.6143 -0.8272  0.3895
15339TIP3    H267433   4.439   1.469  13.057 -1.0952  0.3912 -0.7917
15340TIP3   OH267434   0.463   6.247   5.399 -0.3283  0.0758  0.4941
15340TIP3    H167435   0.420   6.230   5.483 -0.5211 -0.2798  0.3276
15340TIP3    H267436   0.550   6.278   5.423 -1.0340  1.8898  0.8520
15341TIP3   OH267437   5.525   5.857   3.008 -0.3998  0.1883  0.2104
15341TIP3    H167438   5.568   5.837   3.091  1.8429  2.1283 -0.3998
15341TIP3    H267439   5.536   5.777   2.956  0.5083 -0.1310  0.8631
15342TIP3   OH267440   1.985   0.286  10.808  0.1370 -0.5642  0.0999
15342TIP3    H167441   2.026   0.233  10.739  1.3435 -0.1507  0.4647
15342TIP3    H267442   1.904   0.240  10.829  1.5508 -2.8281  1.0246
15343TIP3   OH267443   6.718   4.876  17.070 -0.0297  0.5237 -0.7222
15343TIP3    H167444   6.788   4.924  17.027  0.2987  0.6477 -0.0694
15343TIP3    H267445   6.730   4.895  17.163 -0.8380  0.4257 -0.5922
15344TIP3   OH267446   5.932   0.034  15.177 -0.3235 -0.5467  0.3141
15344TIP3    H167447   5.946   0.125  15.203 -1.0245 -0.4858  0.5134
15344TIP3    H267448   5.916   0.039  15.083  1.2487 -0.6567  0.0222
15345TIP3   OH267449   5.053   0.917  15.473  0.4106 -0.3680  0.0353
15345TIP3    H167450   5.068   0.920  15.568  1.3566  2.0089 -0.1067
15345TIP3    H267451   4.968   0.958  15.462  0.0441 -1.1608 -0.1236
15346TIP3   OH267452   6.463   5.221  13.347 -0.1587  0.2794  0.8108
15346TIP3    H167453   6.485   5.233  13.439 -0.8941 -0.7443  1.1387
15346TIP3    H267454   6.486   5.130  13.329 -0.5509  0.3094  0.1301
15347TIP3   OH267455   5.524   2.010   2.652  0.2796 -0.5028  0.2956
15347TIP3    H167456   5.614   1.977   2.655  0.1484 -1.1206 -1.4175
15347TIP3    H267457   5.474   1.938   2.613 -0.5228  0.6633 -0.9145
15348TIP3   OH267458   2.144   4.080  11.175  0.6364 -0.1640  0.0531
15348TIP3    H167459   2.194   4.000  11.193  1.0345  0.5051  2.1984
15348TIP3    H267460   2.151   4.131  11.255 -2.4389  0.5428  0.0055
15349TIP3   OH267461   3.475   5.782   2.960 -0.1084 -0.8591  0.3415
15349TIP3    H167462   3.452   5.719   2.891 -0.2421 -1.1521  0.6555
15349TIP3    H267463   3.392   5.817   2.990  0.0262  0.6882 -0.9579
15350TIP3   OH267464   2.581   4.159   1.169 -0.5558 -0.1714 -0.4096
15350TIP3    H167465   2.524   4.217   1.220 -0.4719 -0.5332  0.1033
15350TIP3    H267466   2.632   4.112   1.235 -1.4382 -1.6733 -0.7457
15351TIP3   OH267467   0.034   4.209   0.688  0.1252 -0.3411  0.6090
15351TIP3    H167468   0.094   4.283   0.699  1.7198 -1.5883  0.5835
15351TIP3    H267469   0.059   4.169   0.605  0.0200 -1.5600  1.1501
15352TIP3   OH267470   0.171   2.841  16.949  0.1627  0.2019  0.3627
15352TIP3    H167471   0.223   2.828  16.870  1.1195 -0.6309  1.0971
15352TIP3    H267472   0.141   2.753  16.973 -0.5721  0.5165  0.6361
15353TIP3   OH267473   4.538   3.176   5.947 -0.3556  0.0387 -0.0442
15353TIP3    H167474   4.598   3.249   5.927  0.8958 -1.1612 -0.9048
15353TIP3    H267475   4.551   3.115   5.874 -0.1433 -1.7786  1.4435
15354TIP3   OH267476   4.582   0.682  15.020  0.1493  0.2126 -0.2963
15354TIP3    H167477   4.513   0.745  15.042 -0.6010 -0.5502 -0.4176
15354TIP3    H267478   4.595   0.632  15.100  0.5816  0.3673 -0.2684
15355TIP3   OH267479   4.486   4.895  16.786 -0.5782  0.1124 -0.1516
15355TIP3    H167480   4.480   4.799  16.784  1.4822 -0.0706 -1.8302
15355TIP3    H267481   4.516   4.915  16.874  1.2027 -1.0351 -0.4428
15356TIP3   OH267482   5.806   2.767  16.696 -0.0185 -0.0635 -0.0472
15356TIP3    H167483   5.758   2.843  16.729  1.3926  0.8350 -0.0097
15356TIP3    H267484   5.809   2.780  16.601  2.7573  1.5493  0.1596
15357TIP3   OH267485   2.138   0.430   3.729  0.0317 -0.4272 -0.4268
15357TIP3    H167486   2.171   0.458   3.814 -1.6160 -0.3582  0.2235
15357TIP3    H267487   2.118   0.512   3.683 -0.2914 -0.4749 -0.3742
15358TIP3   OH267488   6.284   3.557   4.866 -0.0038  0.2997  0.0535
15358TIP3    H167489   6.282   3.551   4.962  0.3888 -0.9315  0.0054
15358TIP3    H267490   6.376   3.577   4.846 -0.3865  2.1068 -0.0179
15359TIP3   OH267491   6.487   4.581  13.003 -0.0004  0.2476  0.4857
15359TIP3    H167492   6.520   4.505  13.051 -0.4203 -1.0126 -1.1252
15359TIP3    H267493   6.555   4.599  12.938  0.0296  1.1801  0.7670
15360TIP3   OH267494   4.546   6.033   0.182  0.6511  0.1436  0.4535
15360TIP3    H167495   4.489   6.044   0.258  1.4729 -0.9700  1.2657
15360TIP3    H267496   4.612   6.103   0.191  1.1511 -0.4019  1.1675
15361TIP3   OH267497   5.817   5.236   1.059 -0.0283 -0.0310 -0.3508
15361TIP3    H167498   5.902   5.234   1.015 -1.4675 -1.2768 -3.4204
15361TIP3    H267499   5.823   5.170   1.128  0.8389 -1.8531 -2.0688
15362TIP3   OH267500   0.880   4.303   6.259  0.1414 -0.6093  0.2553
15362TIP3    H167501   0.839   4.222   6.226 -0.5366 -0.0372 -0.3517
15362TIP3    H267502   0.849   4.310   6.349 -0.4467 -0.6214  0.0619
15363TIP3   OH267503   0.061   5.308   1.805 -0.9294  0.2014  0.1021
15363TIP3    H167504   0.110   5.240   1.758  0.0364  0.5341  0.6012
15363TIP3    H267505  -0.012   5.329   1.747 -0.9446 -0.8811 -0.2988
15364TIP3   OH267506   3.508   1.347   1.444  0.1746  0.0815 -0.6320
15364TIP3    H167507   3.584   1.291   1.463  0.9978  1.3063 -0.2253
15364TIP3    H267508   3.452   1.338   1.522  0.0023 -0.6339 -0.8280
15365TIP3   OH267509   1.441   4.152   5.000 -0.4585  0.3406 -0.0642
15365TIP3    H167510   1.499   4.135   5.074 -1.8118  1.1640  1.2150
15365TIP3    H267511   1.442   4.247   4.991 -0.5086  0.2649 -0.9699
15366TIP3   OH267512   2.106   5.887  12.656  0.4634 -0.6689 -0.1370
15366TIP3    H167513   2.050   5.832  12.602 -0.6642  0.6180 -0.3289
15366TIP3    H267514   2.069   5.975  12.647  1.9989  0.0699  0.4287
15367TIP3   OH267515   2.202   1.657   3.168  0.3308  0.4555  0.1835
15367TIP3    H167516   2.152   1.660   3.250 -0.0999 -0.6510 -0.0247
15367TIP3    H267517   2.233   1.567   3.163 -0.8899  0.0867 -1.6030
15368TIP3   OH267518   4.951   4.910   1.845 -0.0432 -0.0653  0.2492
15368TIP3    H167519   4.983   4.821   1.861 -0.4951 -0.2248  0.2845
15368TIP3    H267520   4.911   4.936   1.928 -2.1364 -0.7862 -0.4531
15369TIP3   OH267521   3.895   2.874   3.938  0.0071  0.3212  0.0676
15369TIP3    H167522   3.952   2.864   3.861 -0.7554 -2.1227 -0.2673
15369TIP3    H267523   3.838   2.947   3.916 -2.4966 -2.3259 -3.3515
15370TIP3   OH267524   2.784   3.506   2.903  0.2991  0.1404 -0.2609
15370TIP3    H167525   2.716   3.476   2.964  0.4135  0.4825  0.0360
15370TIP3    H267526   2.752   3.479   2.817 -0.8366  1.3900 -0.2696
15371TIP3   OH267527   3.677   0.788   0.690  0.2226  0.1595 -0.2389
15371TIP3    H167528   3.759   0.823   0.724  0.6415 -1.3585  0.3819
15371TIP3    H267529   3.614   0.800   0.760  0.6046 -1.1542  0.3627
15372TIP3   OH267530   4.657   2.025   3.779 -0.5622 -0.0686 -0.7319
15372TIP3    H167531   4.741   2.066   3.758 -0.6241 -0.0730 -1.0038
15372TIP3    H267532   4.642   1.964   3.706 -0.5359 -0.4710 -0.3998
15373TIP3   OH267533   2.548   3.852   6.041 -0.3571  0.0938  0.2624
15373TIP3    H167534   2.566   3.899   6.122  2.0400  0.6203 -0.4722
15373TIP3    H267535   2.564   3.760   6.063  0.5660  0.2629  0.3711
15374TIP3   OH267536   4.122   0.158  11.149 -0.0068 -0.0929  0.5663
15374TIP3    H167537   4.098   0.244  11.185  0.0325  0.2813 -0.2854
15374TIP3    H267538   4.071   0.150  11.069 -0.5732 -1.2028  1.0200
15375TIP3   OH267539   3.049   0.393   2.347  0.0288 -0.2264  0.0487
15375TIP3    H167540   2.972   0.424   2.299  0.9721  0.2005 -1.2450
15375TIP3    H267541   3.074   0.467   2.402  0.3948  0.2066 -0.6753
15376TIP3   OH267542   4.689   4.990  14.852 -0.3367  0.1546  0.3414
15376TIP3    H167543   4.687   5.082  14.825  0.7408 -0.0069 -0.3168
15376TIP3    H267544   4.624   4.947  14.797 -0.2186  0.3596  0.0427
15377TIP3   OH267545   3.107   4.572   1.620 -0.1056  0.4739  0.2433
15377TIP3    H167546   3.038   4.631   1.651 -0.6146 -0.4908  0.9957
15377TIP3    H267547   3.066   4.521   1.551  0.8273  2.1336 -1.6137
15378TIP3   OH267548   1.031   0.156  14.303  0.8302 -0.4429  0.8795
15378TIP3    H167549   0.984   0.084  14.344 -0.2413 -0.1616  0.2098
15378TIP3    H267550   1.002   0.154  14.212 -0.2935  1.6193  1.1235
15379TIP3   OH267551   0.329   5.916  16.609  0.4925 -0.1164 -0.0468
15379TIP3    H167552   0.252   5.936  16.663  0.5374 -0.3819  0.1159
15379TIP3    H267553   0.369   5.840  16.651 -1.1902 -2.3463 -2.1936
15380TIP3   OH267554   6.253   1.685  16.444 -0.8559 -0.4519 -0.3965
15380TIP3    H167555   6.285   1.691  16.534  1.5414  3.7549 -1.2998
15380TIP3    H267556   6.162   1.714  16.449 -0.0406  2.1597  0.4501
15381TIP3   OH267557   4.078   1.862   2.240  0.4397  0.2362  0.2283
15381TIP3    H167558   4.078   1.789   2.301 -1.8689  0.0074  0.0415
15381TIP3    H267559   4.109   1.937   2.291  0.6208 -0.3893  1.0518
15382TIP3   OH267560   4.955   1.404  11.143  0.2468 -0.0820  0.0161
15382TIP3    H167561   5.022   1.341  11.115  0.0734 -1.1171  1.8259
15382TIP3    H267562   5.005   1.475  11.184  0.3070 -0.2525  0.2390
15383TIP3   OH267563   4.246   4.675  16.139 -0.3014 -0.1435 -0.1589
15383TIP3    H167564   4.230   4.752  16.194  0.4049 -0.0643 -0.0549
15383TIP3    H267565   4.332   4.643  16.166 -0.0739 -0.2861 -1.0060
15384TIP3   OH267566   3.293   0.320  16.183 -0.6475  0.3607  0.1273
15384TIP3    H167567   3.242   0.372  16.246 -0.7476 -0.8229  1.0666
15384TIP3    H267568   3.244   0.238  16.175  0.2446 -0.1423 -0.2378
15385TIP3   OH267569   4.486   4.822  14.698 -0.3807 -0.0568  0.5835
15385TIP3    H167570   4.418   4.890  14.701 -0.3642 -0.0054  0.0132
15385TIP3    H267571   4.480   4.787  14.609 -0.2679 -0.6824  0.8206
15386TIP3   OH267572   4.657   4.754  15.251  0.1451  0.6320  0.2344
15386TIP3    H167573   4.712   4.707  15.188  0.3017 -1.3866  1.7867
15386TIP3    H267574   4.652   4.843  15.216  3.9985  0.8454 -0.2622
15387TIP3   OH267575   2.594   0.078  13.583  0.1477  0.2761 -0.1885
15387TIP3    H167576   2.517   0.021  13.583  1.7418 -2.0192  0.4152
15387TIP3    H267577   2.573   0.146  13.518 -2.7077  0.2972  0.6046
15388TIP3   OH267578   1.851   4.049   1.851 -0.0875  0.4806  0.1069
15388TIP3    H167579   1.895   4.033   1.767 -3.0408  1.9398 -1.9279
15388TIP3    H267580   1.870   4.140   1.871 -0.3011  0.4601  0.4085
15389TIP3   OH267581   4.770   1.954   3.183 -0.4351 -0.2135  0.2993
15389TIP3    H167582   4.684   1.914   3.169 -0.9302  1.0022 -0.2684
15389TIP3    H267583   4.754   2.048   3.176  0.4035  0.2239  3.0666
15390TIP3   OH267584   2.657   3.078   3.854  0.2964 -0.0753 -0.1328
15390TIP3    H167585   2.705   3.142   3.907  0.2476 -0.9439  0.9942
15390TIP3    H267586   2.703   2.995   3.869  0.0027 -0.4294 -1.1059
15391TIP3   OH267587   2.210   0.437   2.303 -0.4783 -0.3864  0.0328
15391TIP3    H167588   2.244   0.523   2.278 -1.1122 -0.2348 -0.3337
15391TIP3    H267589   2.286   0.379   2.300  0.0176  0.2144  0.5840
15392TIP3   OH267590   2.416   4.642  16.740  0.2741 -0.2488  0.0821
15392TIP3    H167591   2.493   4.700  16.739 -0.2541  0.4943  1.0354
15392TIP3    H267592   2.349   4.692  16.693 -0.0426 -0.2896  0.4910
15393TIP3   OH267593   2.765   3.500  14.683  0.1428  0.6069 -0.4048
15393TIP3    H167594   2.684   3.539  14.715 -0.4610  0.1032 -1.2895
15393TIP3    H267595   2.739   3.449  14.606  1.0383 -0.8029  0.1670
15394TIP3   OH267596   1.320   3.505  13.771  0.2249  0.5904 -0.0044
15394TIP3    H167597   1.378   3.455  13.713 -0.9720  0.4034 -1.1085
15394TIP3    H267598   1.249   3.533  13.714 -0.6682  0.9704  1.2565
15395TIP3   OH267599   0.997   1.094  17.246  0.6264 -0.4197  0.5050
15395TIP3    H167600   0.994   1.141  17.163  1.2356  1.8891  1.7012
15395TIP3    H267601   1.066   1.029  17.234  1.0564  0.2166 -0.6415
15396TIP3   OH267602   3.702   0.227   2.164 -0.7752 -0.6438 -0.0723
15396TIP3    H167603   3.676   0.181   2.084  0.9654  0.2985 -1.2659
15396TIP3    H267604   3.705   0.159   2.231  1.3354 -2.3173 -1.6827
15397TIP3   OH267605   3.849   0.660  13.235 -0.4988 -0.1720  0.1788
15397TIP3    H167606   3.932   0.692  13.270 -0.4930 -0.0280  0.0342
15397TIP3    H267607   3.842   0.700  13.149 -0.0421 -1.3130 -0.3966
15398TIP3   OH267608   0.314   2.030  13.187 -0.1911 -0.1782  0.0063
15398TIP3    H167609   0.311   2.094  13.259  1.2203 -0.3589  0.2627
15398TIP3    H267610   0.406   2.001  13.185 -0.6919 -1.8092 -0.4510
15399TIP3   OH267611   5.108   4.448  15.299 -0.2593  0.1852  0.4517
15399TIP3    H167612   5.084   4.364  15.339  0.6138 -0.7485 -0.8593
15399TIP3    H267613   5.072   4.514  15.357 -0.1662 -1.0904  2.0406
15400TIP3   OH267614   2.702   1.956   0.900 -0.4937 -0.5087 -0.5090
15400TIP3    H167615   2.793   1.984   0.908 -0.5587 -0.7380  1.3947
15400TIP3    H267616   2.671   1.947   0.990 -1.7095 -2.7168 -1.0695
15401TIP3   OH267617   3.641   4.717   5.508  0.3349 -0.2330  0.0415
15401TIP3    H167618   3.593   4.784   5.557  1.0202 -1.1509  2.0614
15401TIP3    H267619   3.729   4.753   5.498  0.7145 -0.8054  1.1623
15402TIP3   OH267620   3.265   0.175   0.615 -0.6548 -0.7382 -0.2497
15402TIP3    H167621   3.242   0.185   0.523 -2.9163  1.7866  0.4546
15402TIP3    H267622   3.361   0.176   0.616 -0.5681 -0.7414 -2.5264
15403TIP3   OH267623   0.068   5.676   1.925  0.2433  0.3330 -0.4622
15403TIP3    H167624   0.003   5.659   1.857  1.5849  1.0568 -1.9826
15403TIP3    H267625   0.096   5.589   1.954 -0.4579  0.0219 -0.7072
15404TIP3   OH267626   1.818   0.537   3.252  0.3577 -0.3616  0.5819
15404TIP3    H167627   1.750   0.519   3.317 -1.6325 -4.3296 -2.1725
15404TIP3    H267628   1.892   0.483   3.278 -0.1150 -1.2663  0.1010
15405TIP3   OH267629   4.279   1.849  12.569 -0.5116  0.1024 -0.1062
15405TIP3    H167630   4.348   1.914  12.554 -1.2164  0.4820 -1.9372
15405TIP3    H267631   4.210   1.897  12.615 -0.3159  0.1823  0.1084
15406TIP3   OH267632   0.500   0.981  17.079 -0.2470  0.2080  0.0452
15406TIP3    H167633   0.488   1.046  17.148  0.3977  1.1291 -0.6840
15406TIP3    H267634   0.412   0.949  17.060 -0.4624  0.1492  1.0790
15407TIP3   OH267635   0.265   2.285   3.916  0.1082 -0.1803 -0.1259
15407TIP3    H167636   0.235   2.375   3.921  0.4972 -0.0724  0.2317
15407TIP3    H267637   0.252   2.249   4.004 -0.8018 -0.7152 -0.4632
15408TIP3   OH267638   5.593   0.701   1.766 -0.2166  0.2864 -0.5083
15408TIP3    H167639   5.595   0.701   1.670  0.9237 -2.2302 -0.5484
15408TIP3    H267640   5.517   0.648   1.788  0.0601  0.0795 -0.0422
15409TIP3   OH267641   5.898   4.803  13.406  0.7758 -0.0609  0.1100
15409TIP3    H167642   5.826   4.836  13.459  0.7318 -0.0515  0.0453
15409TIP3    H267643   5.964   4.872  13.409  1.5862 -0.8580  1.7429
15410TIP3   OH267644   1.217   2.381   2.657  0.4763 -0.1108  0.0508
15410TIP3    H167645   1.260   2.300   2.684  1.1647 -0.4088 -1.8162
15410TIP3    H267646   1.155   2.400   2.727  1.1556 -1.5930  1.0952
15411TIP3   OH267647   2.422   4.586   3.574  0.4893 -0.8701  0.3637
15411TIP3    H167648   2.452   4.574   3.484  0.0602 -0.8839  0.2186
15411TIP3    H267649   2.329   4.561   3.572 -0.7969  3.1418 -0.1638
15412TIP3   OH267650   3.982   6.579   3.399 -0.0248  0.0795  0.2982
15412TIP3    H167651   4.065   6.544   3.368 -0.7606 -2.0295  0.5477
15412TIP3    H267652   3.999   6.608   3.488 -0.1905 -3.1937  1.4930
15413TIP3   OH267653   0.343   1.269   0.623  0.3018  0.0790  0.3176
15413TIP3    H167654   0.399   1.217   0.680 -0.4199 -1.1024 -0.0142
15413TIP3    H267655   0.340   1.355   0.664  0.4768 -0.5080  1.6010
15414TIP3   OH267656   4.142   0.478   2.622  0.0915 -0.4330 -0.0934
15414TIP3    H167657   4.123   0.551   2.563  1.8890  0.5463  0.4460
15414TIP3    H267658   4.071   0.416   2.608  0.2149 -0.0399 -2.9453
15415TIP3   OH267659   6.705   2.852   1.450  0.9013 -0.0141 -0.1564
15415TIP3    H167660   6.684   2.893   1.366  0.4383  0.9780  0.4249
15415TIP3    H267661   6.794   2.819   1.439 -0.1661 -2.5402 -2.0206
15416TIP3   OH267662   3.835   3.819   1.616 -0.1076  0.1673  0.4178
15416TIP3    H167663   3.924   3.808   1.648  0.0681 -0.6283 -0.3093
15416TIP3    H267664   3.823   3.914   1.609  0.7329  0.2739  0.3814
15417TIP3   OH267665   5.153   1.450   4.029 -0.3524  0.2199 -0.1371
15417TIP3    H167666   5.110   1.392   3.967  0.1565 -1.0013  0.6275
15417TIP3    H267667   5.210   1.505   3.974 -0.1313 -0.6450 -0.7894
15418TIP3   OH267668   4.678   3.749   2.367  0.2775 -0.2073 -0.2594
15418TIP3    H167669   4.739   3.747   2.441  1.3533  1.2668 -1.0409
15418TIP3    H267670   4.640   3.836   2.370 -0.7422 -0.6294 -0.6211
15419TIP3   OH267671   2.202   3.776  13.222 -0.2488  0.6976  0.1952
15419TIP3    H167672   2.152   3.825  13.287  0.4967  0.6998  0.7926
15419TIP3    H267673   2.260   3.840  13.182 -0.4877  0.6349 -0.2511
15420TIP3   OH267674   0.334   6.442  11.563 -0.3003  0.2732 -0.6012
15420TIP3    H167675   0.293   6.526  11.582  0.4217  0.5446 -0.2417
15420TIP3    H267676   0.332   6.436  11.467 -0.1340  0.8123 -0.6414
15421TIP3   OH267677   5.650   2.574  15.379  0.3569 -0.2267 -0.0633
15421TIP3    H167678   5.581   2.531  15.431  0.3694 -0.6308 -0.3765
15421TIP3    H267679   5.615   2.576  15.290  1.1671 -1.3651 -0.4274
15422TIP3   OH267680   0.877   2.955   4.125  0.0787  0.3967  0.1882
15422TIP3    H167681   0.851   2.991   4.040 -0.2565 -1.3875 -0.5094
15422TIP3    H267682   0.882   2.860   4.110  0.1759  0.0637  2.1201
15423TIP3   OH267683   3.273   5.928  16.270 -0.3814  0.3089  0.3271
15423TIP3    H167684   3.234   5.953  16.186  1.7310  4.0781  0.2880
15423TIP3    H267685   3.367   5.921  16.252 -0.1418 -1.3632  1.9274
15424TIP3   OH267686   1.284   2.131  10.868 -0.2507 -0.4805  0.5583
15424TIP3    H167687   1.317   2.051  10.908  0.1626 -1.3914 -1.4990
15424TIP3    H267688   1.357   2.164  10.817 -1.2987 -0.3898 -0.9380
15425TIP3   OH267689   4.875   4.511  12.260 -0.2964  0.1679 -0.6244
15425TIP3    H167690   4.905   4.534  12.172 -0.3856 -1.2762 -1.0534
15425TIP3    H267691   4.953   4.519  12.315 -0.1593  0.7172 -0.8877
15426TIP3   OH267692   5.340   3.643  13.759  0.5136  0.4828  0.2375
15426TIP3    H167693   5.250   3.675  13.747  0.8377  1.2782 -0.1372
15426TIP3    H267694   5.347   3.627  13.853  0.0680  0.6751  0.3094
15427TIP3   OH267695   0.193   5.436   2.408 -0.5029 -0.4318 -0.0432
15427TIP3    H167696   0.144   5.370   2.360 -1.5258 -0.2100  0.6807
15427TIP3    H267697   0.232   5.389   2.481  1.0143 -0.7596 -1.0131
15428TIP3   OH267698   3.298   1.682   4.304  0.0549 -0.1194  0.1190
15428TIP3    H167699   3.276   1.752   4.242 -0.2106  0.5330  0.9391
15428TIP3    H267700   3.393   1.672   4.295  0.3850  1.6276  1.2920
15429TIP3   OH267701   4.365   2.501   1.442  0.2309 -0.3923  0.2118
15429TIP3    H167702   4.417   2.488   1.521  0.3797  1.0861  0.3911
15429TIP3    H267703   4.424   2.548   1.383  0.1083 -1.4438 -0.7807
15430TIP3   OH267704   3.162   3.883  13.323  0.4056  0.4707  0.3022
15430TIP3    H167705   3.124   3.945  13.260  0.2593  1.0979  0.9976
15430TIP3    H267706   3.171   3.801  13.274  0.3281  0.9616 -0.5478
15431TIP3   OH267707   6.464   0.538  13.415  0.1128 -0.2381  0.5522
15431TIP3    H167708   6.543   0.485  13.402  0.7171  0.8257 -0.2657
15431TIP3    H267709   6.420   0.536  13.330  0.2220  0.6792  0.4662
15432TIP3   OH267710   2.298   1.426  15.892 -0.5404 -0.3343 -0.0946
15432TIP3    H167711   2.319   1.385  15.976  3.3543  0.0864 -0.6496
15432TIP3    H267712   2.243   1.362  15.847  1.9618 -3.2956  0.6436
15433TIP3   OH267713   6.551   1.389   4.516 -0.1441  0.3757 -0.0121
15433TIP3    H167714   6.587   1.441   4.445 -1.0744 -0.2869 -1.0106
15433TIP3    H267715   6.483   1.336   4.474  0.0231 -0.8249  1.1648
15434TIP3   OH267716   6.568   0.614  14.403 -0.5930 -0.1957 -0.1418
15434TIP3    H167717   6.497   0.554  14.428  0.4347 -1.3369  0.1832
15434TIP3    H267718   6.526   0.699  14.394 -2.4423 -1.2467 -2.3302
15435TIP3   OH267719   3.569   0.588  14.347  0.2458  0.0313  0.3353
15435TIP3    H167720   3.526   0.506  14.373  0.1292  0.7205  2.5176
15435TIP3    H267721   3.662   0.570  14.361  0.4378 -0.3983 -1.2857
15436TIP3   OH267722   2.309   5.472   6.737  0.4933  0.0679 -0.3905
15436TIP3    H167723   2.330   5.399   6.678 -1.2864  3.0507 -5.3498
15436TIP3    H267724   2.214   5.464   6.751  0.8014 -0.2688  1.8640
15437TIP3   OH267725   6.518   5.098   3.078  0.1776  0.5870 -0.3165
15437TIP3    H167726   6.581   5.032   3.109 -0.7297  0.0002  0.3037
15437TIP3    H267727   6.568   5.150   3.015  1.3396  0.2449  0.2910
15438TIP3   OH267728   1.648   0.016  13.172  0.5858  0.1043  0.4879
15438TIP3    H167729   1.722  -0.007  13.229 -0.2962 -1.4681  1.0478
15438TIP3    H267730   1.592   0.070  13.228  0.4688 -0.1442  0.6087
15439TIP3   OH267731   2.428   1.644   0.669  0.0011  0.2140 -0.4293
15439TIP3    H167732   2.504   1.587   0.683 -1.2142 -0.8319  2.8152
15439TIP3    H267733   2.371   1.627   0.744 -3.1398  1.5175 -2.3357
15440TIP3   OH267734   1.965   0.866  15.387  0.1589  0.2180 -0.0059
15440TIP3    H167735   1.932   0.796  15.330 -0.4982  0.7661 -0.3170
15440TIP3    H267736   2.033   0.824  15.439  1.4789 -0.0923 -1.8557
15441TIP3   OH267737   6.005   2.884  14.272 -0.2795 -0.0308  0.2137
15441TIP3    H167738   6.046   2.820  14.214  0.2576  1.9423 -1.7172
15441TIP3    H267739   6.078   2.937  14.304 -0.7447 -0.1486  1.5044
15442TIP3   OH267740   6.678   1.610  13.672  0.1254  0.1061  0.4820
15442TIP3    H167741   6.671   1.516  13.690 -0.3282 -0.0276 -0.3642
15442TIP3    H267742   6.614   1.650  13.731  0.5815 -0.0734  1.1119
15443TIP3   OH267743   6.501   5.544   0.387 -0.3948 -0.0987 -0.0705
15443TIP3    H167744   6.480   5.476   0.323 -1.0205 -0.2980  0.3285
15443TIP3    H267745   6.523   5.496   0.467  1.4221  0.1121 -0.4030
15444TIP3   OH267746   4.215   2.828   4.836 -0.1313  0.1404 -0.1454
15444TIP3    H167747   4.259   2.871   4.762 -0.2585 -0.2128 -0.4282
15444TIP3    H267748   4.269   2.851   4.912  0.0977  0.3633 -0.3720
15445TIP3   OH267749   4.338   3.897   1.707  0.1040  0.1374 -0.4438
15445TIP3    H167750   4.411   3.958   1.701 -1.3261  2.2793  1.8555
15445TIP3    H267751   4.354   3.849   1.788 -0.9087  0.5220  0.0009
15446TIP3   OH267752   3.941   3.749  16.989 -0.2113 -0.3634 -0.2981
15446TIP3    H167753   3.895   3.743  17.073 -2.2177 -2.1569 -1.4263
15446TIP3    H267754   3.961   3.659  16.965  0.2567  0.0989 -1.7898
15447TIP3   OH267755   3.825   4.067  15.021 -0.3026 -0.4398  0.3515
15447TIP3    H167756   3.797   4.102  15.105 -0.6328 -0.5193  0.2765
15447TIP3    H267757   3.774   3.987  15.010 -0.3228 -0.3858  0.0413
15448TIP3   OH267758   2.164   0.395   5.603 -0.0440 -0.6332 -0.5697
15448TIP3    H167759   2.209   0.311   5.610 -1.0964 -1.3942 -2.3735
15448TIP3    H267760   2.226   0.451   5.557 -0.1442 -1.0598 -1.2281
15449TIP3   OH267761   4.983   4.103  15.202  0.3250  0.4610 -0.0658
15449TIP3    H167762   4.943   4.118  15.116  0.9344  1.4530 -0.1941
15449TIP3    H267763   5.038   4.026  15.189 -1.0145 -0.5135 -0.0616
15450TIP3   OH267764   6.530   6.546  15.906 -0.1664 -0.3636  0.0464
15450TIP3    H167765   6.579   6.470  15.874  1.6545  0.9940 -0.5728
15450TIP3    H267766   6.544   6.546  16.001  1.9752  0.5456 -0.2107
15451TIP3   OH267767   0.473   5.331   6.207 -0.5362 -0.6299  0.0276
15451TIP3    H167768   0.534   5.268   6.169  3.0373  0.9273  2.5634
15451TIP3    H267769   0.523   5.413   6.210 -3.1272  1.0134  1.4792
15452TIP3   OH267770   3.783   0.232  17.233  0.6232 -0.7381 -0.2491
15452TIP3    H167771   3.780   0.295  17.161 -0.7100  1.6903  1.7600
15452TIP3    H267772   3.692   0.223  17.261  1.3020  2.2541  4.0345
15453TIP3   OH267773   2.458   0.687  12.013 -0.0396  0.2447 -0.0785
15453TIP3    H167774   2.428   0.682  11.922  1.7036  0.4052 -0.7104
15453TIP3    H267775   2.551   0.710  12.006  0.6911 -1.8100  1.6701
15454TIP3   OH267776   1.178   1.941  17.144 -0.0665 -0.4563  0.1296
15454TIP3    H167777   1.150   1.940  17.053 -0.0132 -1.7958  0.1024
15454TIP3    H267778   1.097   1.951  17.194 -0.0677  0.5705 -0.0560
15455TIP3   OH267779   1.891   5.894  16.788  0.0711  0.1959 -0.1033
15455TIP3    H167780   1.865   5.807  16.820  0.8012 -1.0569 -2.6441
15455TIP3    H267781   1.813   5.928  16.745  0.0667  0.3510  0.0293
15456TIP3   OH267782   3.612   0.535   0.567 -0.2161 -0.5224 -0.0149
15456TIP3    H167783   3.542   0.586   0.607  0.3210 -0.2311  0.5689
15456TIP3    H267784   3.638   0.585   0.490 -0.3246 -0.3928  0.0338
15457TIP3   OH267785   0.057   3.107   4.325 -0.0574 -0.1358 -0.4757
15457TIP3    H167786   0.151   3.118   4.313 -0.1454  0.2683 -0.7739
15457TIP3    H267787   0.036   3.163   4.400  0.1752 -1.2799  0.4741
15458TIP3   OH267788   2.663   3.287  12.156  0.1914  0.2361  0.4884
15458TIP3    H167789   2.615   3.362  12.118 -2.2244 -1.0240  0.8688
15458TIP3    H267790   2.693   3.238  12.080 -1.8629 -0.5761  0.1425
15459TIP3   OH267791   4.566   4.258  15.004  0.5585 -0.7684  0.2497
15459TIP3    H167792   4.485   4.302  14.976  0.2182 -1.5689 -0.0356
15459TIP3    H267793   4.541   4.209  15.082  0.4626 -1.9993 -0.5351
15460TIP3   OH267794   2.191   6.413  15.713  0.2165  0.2015 -0.0490
15460TIP3    H167795   2.114   6.469  15.725  0.4806  0.4753  0.4085
15460TIP3    H267796   2.265   6.468  15.737  0.4426 -0.4781  0.8886
15461TIP3   OH267797   0.920   0.930   0.612  0.3710 -0.0916 -0.2591
15461TIP3    H167798   0.959   0.943   0.699  1.2157  1.6917 -0.8377
15461TIP3    H267799   0.943   0.840   0.588  0.8200 -0.3402  1.0361
15462TIP3   OH267800   4.340   1.108   6.698 -0.0860 -0.1701 -0.0668
15462TIP3    H167801   4.361   1.079   6.786  0.4809 -0.8728 -0.4323
15462TIP3    H267802   4.366   1.036   6.641  0.7338  0.7802 -0.9251
15463TIP3   OH267803   1.747   0.061  16.087 -0.1255  0.0174 -0.4587
15463TIP3    H167804   1.717   0.077  15.998  2.6317  2.5028 -1.0755
15463TIP3    H267805   1.683   0.106  16.143 -2.0526 -1.8261 -1.0412
15464TIP3   OH267806   6.488   2.765  11.060  0.0149  0.2278  0.3504
15464TIP3    H167807   6.566   2.732  11.015 -0.1880  0.1801  0.0289
15464TIP3    H267808   6.508   2.755  11.153 -0.5059 -1.9238  0.2816
15465TIP3   OH267809   1.720   6.519   1.683  0.0385 -0.2245  0.1818
15465TIP3    H167810   1.709   6.443   1.625  0.4594 -1.6271  1.8675
15465TIP3    H267811   1.791   6.570   1.642 -0.9358 -0.1519 -1.5226
15466TIP3   OH267812   1.612   2.881   2.161  0.0011 -0.2753 -0.0240
15466TIP3    H167813   1.578   2.837   2.239  1.6910 -0.8545  0.4380
15466TIP3    H267814   1.555   2.957   2.149 -1.0049 -0.8228  1.0725
15467TIP3   OH267815   0.817   5.644  11.932  0.2183 -0.1964  0.4336
15467TIP3    H167816   0.781   5.684  12.011  0.0942 -1.9465  1.3235
15467TIP3    H267817   0.834   5.553  11.957 -1.4453 -1.2929 -2.0069
15468TIP3   OH267818   4.559   2.759   5.918 -0.2707  0.3102 -0.1634
15468TIP3    H167819   4.534   2.667   5.916 -0.4742  0.3599  0.1744
15468TIP3    H267820   4.481   2.806   5.888 -0.5773  0.4619  0.8546
15469TIP3   OH267821   2.545   4.805  13.782 -0.5766  0.0431  0.0964
15469TIP3    H167822   2.601   4.817  13.860  0.8069  0.2484 -0.8851
15469TIP3    H267823   2.458   4.788  13.818  0.2242 -0.9752  1.7325
15470TIP3   OH267824   1.292   0.631   4.021 -0.4401 -0.8691  0.6599
15470TIP3    H167825   1.226   0.694   3.992  1.4394  0.1513 -1.8179
15470TIP3    H267826   1.338   0.675   4.092 -1.4278 -0.9657  1.3714
15471TIP3   OH267827   0.548   0.673  12.641 -0.0271 -0.0297 -0.5656
15471TIP3    H167828   0.522   0.684  12.549 -0.6407  3.1786 -0.1230
15471TIP3    H267829   0.465   0.677  12.689  0.4415  0.1571  0.2285
15472TIP3   OH267830   0.696   5.998  11.205  0.2851  0.0323 -0.2332
15472TIP3    H167831   0.608   6.032  11.190  0.9282  1.4200 -1.1018
15472TIP3    H267832   0.711   6.008  11.299 -0.7383 -0.9185  0.0481
15473TIP3   OH267833   2.300   6.777   0.231 -0.4014 -0.0700 -0.4925
15473TIP3    H167834   2.253   6.837   0.290  2.4316  1.0021  0.8602
15473TIP3    H267835   2.270   6.802   0.144 -2.1503  0.6613  0.2642
15474TIP3   OH267836   2.502   3.563   5.540  0.3646  0.1052  0.4123
15474TIP3    H167837   2.473   3.473   5.554  0.1079 -0.1672 -1.5383
15474TIP3    H267838   2.422   3.615   5.545  0.0362 -0.1767 -1.3037
15475TIP3   OH267839   5.347   1.043  11.176 -0.3972  0.0669  0.4438
15475TIP3    H167840   5.439   1.068  11.170  0.3449 -2.5799 -2.2042
15475TIP3    H267841   5.299   1.115  11.135  0.4987  1.2756  1.4596
15476TIP3   OH267842   1.857   5.462  15.930  0.2801 -0.9348 -0.2483
15476TIP3    H167843   1.833   5.378  15.968  0.0398 -0.2092  1.2708
15476TIP3    H267844   1.948   5.476  15.957 -0.5242  0.5510  1.9985
15477TIP3   OH267845   0.435   0.021  14.594 -0.2247  0.7404  0.2753
15477TIP3    H167846   0.389  -0.062  14.607 -0.1285  0.8644  1.6081
15477TIP3    H267847   0.397   0.058  14.515 -2.2140  0.6992  1.1453
15478TIP3   OH267848   1.221   1.668   5.026 -0.5150  0.1856 -0.2883
15478TIP3    H167849   1.252   1.634   5.110 -0.5546  0.5698 -0.1147
15478TIP3    H267850   1.224   1.592   4.967  1.5192  0.3641 -0.4996
15479TIP3   OH267851   0.817   1.358   4.052  0.5092 -0.2564 -0.1325
15479TIP3    H167852   0.769   1.276   4.041  0.4706 -0.3324  0.5861
15479TIP3    H267853   0.797   1.386   4.141  1.8492 -0.3051  0.1933
15480TIP3   OH267854   3.295   5.467   3.548  0.0053  0.1364  0.1856
15480TIP3    H167855   3.271   5.552   3.510 -0.1568 -0.7456 -1.7867
15480TIP3    H267856   3.388   5.457   3.528  0.2810  0.2572  1.3041
15481TIP3   OH267857   5.480   1.009   6.453  0.3631 -0.2000  0.1129
15481TIP3    H167858   5.479   1.078   6.519  0.4465  0.8190 -0.9041
15481TIP3    H267859   5.530   1.047   6.380  0.0277 -1.1754 -0.6453
15482TIP3   OH267860   6.019   3.613   1.215 -0.3120  0.2501 -0.1040
15482TIP3    H167861   5.996   3.521   1.227 -1.8405  0.7359  0.8921
15482TIP3    H267862   6.074   3.634   1.291 -1.3427  0.5822  0.5622
15483TIP3   OH267863   1.103   4.693   2.943  0.4524 -0.2248 -0.0475
15483TIP3    H167864   1.148   4.756   2.999 -1.2945  0.9062  0.1914
15483TIP3    H267865   1.168   4.665   2.879  1.8504  0.2134  1.1517
15484TIP3   OH267866   0.523   4.902  11.600 -0.1852  0.5838 -0.5764
15484TIP3    H167867   0.577   4.838  11.647  1.0331  2.3430  0.5389
15484TIP3    H267868   0.566   4.911  11.515  0.1124  0.5207 -0.4339
15485TIP3   OH267869   5.435   0.024   1.823 -0.3501 -0.2370 -0.4828
15485TIP3    H167870   5.493   0.007   1.898 -0.9490 -0.7374 -0.1276
15485TIP3    H267871   5.354  -0.022   1.844 -0.9377  0.5740 -0.9036
15486TIP3   OH267872   4.462   3.539  17.204 -0.2583 -0.4017 -0.4268
15486TIP3    H167873   4.482   3.589  17.283 -1.4829 -0.9402  0.2645
15486TIP3    H267874   4.489   3.596  17.132  0.6809  0.1925  0.3665
15487TIP3   OH267875   0.667   3.570   1.800  0.1420 -0.0355  0.2574
15487TIP3    H167876   0.676   3.611   1.886 -0.6198 -0.2598  0.4509
15487TIP3    H267877   0.716   3.488   1.807  0.2954  0.0663  0.3899
15488TIP3   OH267878   0.663   1.805   4.113  0.0698  0.2877 -0.1737
15488TIP3    H167879   0.675   1.753   4.193 -0.7083  2.2868  1.3217
15488TIP3    H267880   0.715   1.883   4.127  0.8751  0.1598 -2.1924
15489TIP3   OH267881   2.955   2.097   0.027  0.2226  0.5110 -0.0465
15489TIP3    H167882   2.900   2.036  -0.023 -0.1391 -1.5473  2.6693
15489TIP3    H267883   3.035   2.106  -0.025 -1.1733  0.6902 -2.2967
15490TIP3   OH267884   3.681   1.878  14.112  0.0493  0.5303  0.7279
15490TIP3    H167885   3.672   1.881  14.207  0.4702  1.2646  0.7565
15490TIP3    H267886   3.676   1.970  14.085 -2.0898  0.2116 -0.1679
15491TIP3   OH267887   1.947   0.734  14.657  0.5403 -0.6583  0.2005
15491TIP3    H167888   2.022   0.685  14.691  2.3136  0.9397 -1.2442
15491TIP3    H267889   1.886   0.667  14.628  1.4105 -2.0051  1.3508
15492TIP3   OH267890   0.502   4.711  16.932 -0.0597  0.2309 -0.0575
15492TIP3    H167891   0.511   4.799  16.969  0.7969 -0.1945  0.7959
15492TIP3    H267892   0.576   4.662  16.969 -0.5358 -0.8549 -0.5060
15493TIP3   OH267893   0.530   1.697  12.037  0.0628 -0.1458  0.3350
15493TIP3    H167894   0.571   1.620  11.998  3.1363  0.7660  1.4414
15493TIP3    H267895   0.470   1.662  12.102 -0.4242 -1.5903 -0.8413
15494TIP3   OH267896   3.952   3.129   1.106 -0.7090 -0.5770 -0.6773
15494TIP3    H167897   3.989   3.167   1.186 -1.0346 -1.0489 -0.2893
15494TIP3    H267898   3.983   3.185   1.035  1.6609 -1.5762 -0.5113
15495TIP3   OH267899   4.610   2.447  16.690 -0.5333 -0.6900  0.1899
15495TIP3    H167900   4.646   2.453  16.602  1.2118 -1.1031  0.8241
15495TIP3    H267901   4.648   2.522  16.737 -1.3865 -0.5071  0.6227
15496TIP3   OH267902   2.417   5.604   0.857  0.3455  0.0283  0.2750
15496TIP3    H167903   2.325   5.629   0.864  0.2681 -0.2833  0.3915
15496TIP3    H267904   2.463   5.668   0.911  0.2168  0.2958  0.0689
15497TIP3   OH267905   3.905   5.255  12.691 -0.0710  0.0580  0.5663
15497TIP3    H167906   3.845   5.181  12.699 -2.1354  1.6803  0.8017
15497TIP3    H267907   3.979   5.231  12.747 -0.0328 -2.3658 -0.3815
15498TIP3   OH267908   0.930   1.382  13.529  0.7485  0.4010  0.1068
15498TIP3    H167909   0.921   1.415  13.618 -0.8725  0.2245  0.0400
15498TIP3    H267910   0.973   1.453  13.481 -2.1450  2.3068  0.0894
15499TIP3   OH267911   2.833   3.701   0.415  0.1399 -0.1366 -0.4378
15499TIP3    H167912   2.830   3.794   0.436  0.3984 -0.0875 -0.6137
15499TIP3    H267913   2.925   3.677   0.424  0.0875 -0.3564 -0.4756
15500TIP3   OH267914   4.292   3.372   1.719 -0.2552  0.7093  1.1481
15500TIP3    H167915   4.223   3.426   1.679 -1.8723 -0.4628  2.2611
15500TIP3    H267916   4.269   3.368   1.812  0.4942 -0.9028  1.2946
15501TIP3   OH267917   5.498   0.440  11.436  0.8002  0.6411 -0.6480
15501TIP3    H167918   5.573   0.473  11.486  1.5823 -1.5167 -0.2944
15501TIP3    H267919   5.513   0.471  11.347  2.1735  0.1700 -0.6010
15502TIP3   OH267920   1.725   1.533  12.858  0.4242  0.9289 -0.0475
15502TIP3    H167921   1.683   1.547  12.943  2.5008 -1.5552  1.5471
15502TIP3    H267922   1.817   1.554  12.873  1.5240 -2.8654 -0.5534
15503TIP3   OH267923   4.863   2.875   1.570 -0.3264  0.4661  0.1660
15503TIP3    H167924   4.828   2.922   1.495  0.2413 -0.9243 -1.0071
15503TIP3    H267925   4.787   2.859   1.626 -0.9206  0.6817 -0.5680
15504TIP3   OH267926   4.152   2.577  12.347  0.2924  0.0297 -0.2386
15504TIP3    H167927   4.151   2.667  12.380  1.3452 -0.7804  2.2566
15504TIP3    H267928   4.087   2.532  12.400 -0.4630 -0.6567 -1.6909
15505TIP3   OH267929   3.432   1.244   4.011 -0.0975 -0.2165  0.0163
15505TIP3    H167930   3.495   1.239   3.939 -0.0683  0.3290  0.0054
15505TIP3    H267931   3.408   1.152   4.027  0.0354 -0.3571 -0.5602
15506TIP3   OH267932   4.407   6.257  14.707 -0.4803 -0.0477  0.5720
15506TIP3    H167933   4.491   6.220  14.679 -0.1136  0.1821  1.3590
15506TIP3    H267934   4.428   6.308  14.785 -1.7710 -2.2205  2.4531
15507TIP3   OH267935   0.619   1.163  11.526  0.0170  0.2050 -0.6136
15507TIP3    H167936   0.640   1.210  11.445  0.2589  0.7576 -0.2385
15507TIP3    H267937   0.526   1.180  11.540  0.1235  0.6610 -0.4310
15508TIP3   OH267938   3.621   1.301  13.063 -0.6282  0.2992  0.6921
15508TIP3    H167939   3.597   1.283  12.972  0.9227  0.2362  0.2599
15508TIP3    H267940   3.565   1.373  13.090 -2.0477 -0.5636  0.1391
15509TIP3   OH267941   1.456   1.550  16.736  0.0928 -0.0822  0.5829
15509TIP3    H167942   1.417   1.637  16.744 -0.7014 -0.3522 -0.1642
15509TIP3    H267943   1.390   1.490  16.770 -0.5458 -0.6246 -1.4539
15510TIP3   OH267944   3.185   0.304   4.488  0.0149 -0.2310 -0.2369
15510TIP3    H167945   3.143   0.293   4.573 -0.6662 -0.4145 -0.5941
15510TIP3    H267946   3.113   0.306   4.425  0.4800  0.3557 -0.7692
15511TIP3   OH267947   4.902   5.344  16.723 -0.0846  0.0883 -0.1982
15511TIP3    H167948   4.828   5.392  16.760  0.4793  0.3910  0.5575
15511TIP3    H267949   4.971   5.410  16.711  0.4644 -0.3907  0.2150
15512TIP3   OH267950   4.753   4.366   0.718  0.6889  0.2676  0.1483
15512TIP3    H167951   4.749   4.274   0.743 -0.0177  0.2764  0.0805
15512TIP3    H267952   4.796   4.366   0.633 -0.3608 -0.1167 -0.4018
15513TIP3   OH267953   0.424   0.324   0.329 -0.2203  0.0338 -0.2676
15513TIP3    H167954   0.452   0.318   0.421  0.1697  1.8005 -0.2314
15513TIP3    H267955   0.501   0.300   0.279  0.6311  2.2585 -0.1312
15514TIP3   OH267956   4.034   5.702  13.222  0.2259 -0.6902  0.7070
15514TIP3    H167957   4.084   5.709  13.303  0.0209 -0.3334  0.8057
15514TIP3    H267958   4.101   5.701  13.152  0.3521  0.6454  0.7854
15515TIP3   OH267959   1.033   3.292   0.913 -0.3445 -0.0949  0.2179
15515TIP3    H167960   1.070   3.313   0.999 -0.4224 -1.6107  0.6430
15515TIP3    H267961   0.981   3.369   0.890  0.3416  0.6705  1.1434
15516TIP3   OH267962   5.401   4.421   4.062  0.3150 -0.1083  0.1435
15516TIP3    H167963   5.412   4.514   4.085  0.0041  0.4679 -1.8052
15516TIP3    H267964   5.483   4.399   4.017  1.0992 -1.3176  2.0382
15517TIP3   OH267965   3.976   2.451   5.611  0.6656  0.2371  0.1566
15517TIP3    H167966   3.928   2.482   5.535  1.0495 -0.6665 -0.4655
15517TIP3    H267967   3.908   2.434   5.677  0.0808 -1.0682 -0.7254
15518TIP3   OH267968   3.684   3.675  11.782  0.3406  0.0915 -0.6311
15518TIP3    H167969   3.736   3.595  11.789  0.5800  0.2600 -0.4967
15518TIP3    H267970   3.609   3.650  11.727  0.2890 -0.2882 -0.3943
15519TIP3   OH267971   6.749   2.061   4.372 -0.3565  0.5005  0.3877
15519TIP3    H167972   6.804   1.995   4.415 -1.9512 -0.3806  1.1603
15519TIP3    H267973   6.807   2.103   4.309  1.0883 -0.6640  0.8839
15520TIP3   OH267974   4.628   1.312  16.025 -0.3229 -0.1645  0.2938
15520TIP3    H167975   4.567   1.353  16.086  1.9019  1.3062  1.6639
15520TIP3    H267976   4.672   1.385  15.983  0.4611 -1.1853 -0.7150
15521TIP3   OH267977   5.098   1.777   2.654  0.3095  0.4849  0.2140
15521TIP3    H167978   5.113   1.829   2.733  2.4014 -1.4323  1.2026
15521TIP3    H267979   5.056   1.697   2.684 -2.7655  1.4062 -1.2643
15522TIP3   OH267980   6.728   4.968   3.199  0.0684 -0.1461  0.8753
15522TIP3    H167981   6.741   4.898   3.262 -1.6052 -1.2502  0.0717
15522TIP3    H267982   6.811   4.975   3.153  0.7333 -0.5454  1.9817
15523TIP3   OH267983   0.268   1.345   3.684  0.2667 -0.3443 -0.1140
15523TIP3    H167984   0.246   1.402   3.610  0.9728  1.3517  0.9138
15523TIP3    H267985   0.363   1.351   3.691  0.1006  0.9789  1.9649
15524TIP3   OH267986   4.808   3.596   5.804 -0.2068  0.8669  0.1061
15524TIP3    H167987   4.730   3.571   5.854  1.0301  0.7541  2.0733
15524TIP3    H267988   4.806   3.692   5.803 -0.9763  0.8650 -0.9273
15525TIP3   OH267989   4.236   4.430   2.092  0.2991  0.0520  0.5628
15525TIP3    H167990   4.331   4.439   2.084  0.0840  0.8564 -1.5525
15525TIP3    H267991   4.206   4.518   2.114 -0.0480 -0.0149  0.3505
15526TIP3   OH267992   4.836   4.575  15.986 -0.0956  0.3745  0.1123
15526TIP3    H167993   4.760   4.551  15.934  0.5903  1.3188 -1.3957
15526TIP3    H267994   4.807   4.566  16.077 -1.3206 -1.3573 -0.3947
15527TIP3   OH267995   1.527   3.624   1.494 -0.2752 -0.0687 -0.6886
15527TIP3    H167996   1.508   3.705   1.445  0.3115  0.9988  0.7595
15527TIP3    H267997   1.611   3.641   1.536  0.5370 -2.0094 -1.4485
15528TIP3   OH267998   3.795   5.889  16.327 -0.4675  0.0286  0.1527
15528TIP3    H167999   3.783   5.795  16.340 -0.6365  0.1863  1.2419
15528TIP3    H268000   3.872   5.911  16.380  0.7588  0.1829 -1.6083
15529TIP3   OH268001   6.263   3.474   4.513 -0.1696 -0.5593  0.0009
15529TIP3    H168002   6.179   3.470   4.466 -0.2883  1.8643 -0.1034
15529TIP3    H268003   6.328   3.494   4.445 -0.0664  1.0792  0.5403
15530TIP3   OH268004   0.101   4.776   6.760 -0.0671  0.7302 -0.2008
15530TIP3    H168005   0.063   4.859   6.733 -1.3123  0.0498 -0.6745
15530TIP3    H268006   0.155   4.796   6.836 -1.2549  1.8014  0.3942
15531TIP3   OH268007   5.172   0.779   2.573 -0.1788 -0.2358  0.1593
15531TIP3    H168008   5.110   0.718   2.613 -0.8109  0.8757  0.9208
15531TIP3    H268009   5.121   0.857   2.555  0.5663  0.0001 -1.0301
15532TIP3   OH268010   3.743   4.956   0.548  0.0350 -0.4172  0.0473
15532TIP3    H168011   3.670   4.896   0.533 -1.0930  0.9018  0.0870
15532TIP3    H268012   3.767   4.942   0.640 -1.2798  0.2847  0.5262
15533TIP3   OH268013   2.064   4.011  16.207  0.2361  0.0033 -0.0643
15533TIP3    H168014   1.999   4.001  16.137 -0.9162  0.1878  0.9328
15533TIP3    H268015   2.147   4.025  16.161 -0.2823 -1.0199 -1.3970
15534TIP3   OH268016   1.833   2.814   4.148 -0.4573  0.2840 -0.7585
15534TIP3    H168017   1.921   2.846   4.129 -0.1567 -1.0028 -1.6890
15534TIP3    H268018   1.846   2.736   4.202 -0.9123 -0.7526 -2.0729
15535TIP3   OH268019   2.937   0.526   5.358  1.4199 -0.2541  0.3046
15535TIP3    H168020   2.854   0.569   5.376  0.2216 -1.6034 -1.6520
15535TIP3    H268021   2.975   0.575   5.285  1.1853 -1.0477 -0.3660
15536TIP3   OH268022   5.815   0.599  16.751  0.1298 -0.6029 -0.7814
15536TIP3    H168023   5.786   0.556  16.671 -1.1045 -3.0448  0.8748
15536TIP3    H268024   5.818   0.530  16.817  3.1546  0.8733  0.8751
15537TIP3   OH268025   3.069   0.293   5.411  0.0978 -0.3202 -0.6084
15537TIP3    H168026   3.016   0.371   5.398 -1.0474 -0.8083  0.8344
15537TIP3    H268027   3.053   0.239   5.334 -0.0928  0.3190 -1.0212
15538TIP3   OH268028   4.763   1.349  10.913  0.1699  0.5762  0.6733
15538TIP3    H168029   4.750   1.437  10.877  1.1469  0.3188 -0.3678
15538TIP3    H268030   4.829   1.361  10.982  2.6672  0.2953 -1.4905
15539TIP3   OH268031   3.358   6.507   0.197  1.2648  0.1305  0.1293
15539TIP3    H168032   3.352   6.466   0.110  1.1296 -2.4386  1.2655
15539TIP3    H268033   3.419   6.580   0.185 -0.2346  1.1087 -2.5272
15540TIP3   OH268034   4.204   5.621   5.197  0.3525 -0.3964  0.3940
15540TIP3    H168035   4.139   5.612   5.126 -1.0522  0.0254  1.5751
15540TIP3    H268036   4.254   5.698   5.173  0.7805 -1.0071 -0.7910
15541TIP3   OH268037   3.439   5.155  13.496 -0.1256  0.2627 -0.0377
15541TIP3    H168038   3.502   5.201  13.553  0.7769  2.2821 -2.4767
15541TIP3    H268039   3.454   5.192  13.409 -1.7514 -2.3374 -1.5630
15542TIP3   OH268040   0.440   0.503  13.072  0.2231  0.1952 -0.0118
15542TIP3    H168041   0.528   0.527  13.046  0.1176 -0.3841 -0.9271
15542TIP3    H268042   0.450   0.465  13.160  0.4642  2.9573  1.2679
15543TIP3   OH268043   2.948   6.551   0.345 -0.2271  0.5484  0.3238
15543TIP3    H168044   2.991   6.637   0.347  0.6631  0.1121  1.0043
15543TIP3    H268045   2.919   6.537   0.435  1.1557 -0.5780  0.6323
15544TIP3   OH268046   6.090   1.627  12.171  0.0411  0.1342 -0.4068
15544TIP3    H168047   6.008   1.676  12.167  0.3971  0.8186  0.4442
15544TIP3    H268048   6.117   1.618  12.080 -1.3879 -0.8323 -0.7832
15545TIP3   OH268049   4.395   2.784   0.015  0.1375  0.8038 -0.3252
15545TIP3    H168050   4.363   2.740  -0.064 -0.8657  1.1040 -0.0951
15545TIP3    H268051   4.344   2.745   0.086  1.8786 -0.3648  0.3718
15546TIP3   OH268052   4.660   4.429   0.325  0.3968 -0.1964 -0.3668
15546TIP3    H168053   4.719   4.374   0.274  0.0817  0.6164 -1.6678
15546TIP3    H268054   4.710   4.454   0.403  1.2541 -0.6748 -0.7545
15547TIP3   OH268055   0.595   4.911  12.689  0.2130 -0.2514  0.2127
15547TIP3    H168056   0.634   4.965  12.757 -0.2746  0.7367 -0.2663
15547TIP3    H268057   0.514   4.878  12.727  1.1726 -1.8107  0.9947
15548TIP3   OH268058   1.822   3.834   2.312 -0.3777 -0.3492  0.2081
15548TIP3    H168059   1.799   3.761   2.255 -0.8700 -1.2072  1.4742
15548TIP3    H268060   1.772   3.908   2.278  0.0982 -0.5918 -1.0649
15549TIP3   OH268061   0.630   5.570  14.390 -0.5919  0.4584  0.1412
15549TIP3    H168062   0.604   5.479  14.403 -0.6134  0.4303 -0.0896
15549TIP3    H268063   0.677   5.570  14.306 -0.4345  0.6280  0.2278
15550TIP3   OH268064   4.828   2.697  15.177 -0.1571 -0.0171 -0.0195
15550TIP3    H168065   4.773   2.733  15.247  0.7121  2.2082 -0.4102
15550TIP3    H268066   4.767   2.647  15.123 -1.4365  0.7645  0.6406
15551TIP3   OH268067   2.492   3.009  11.911  0.5229 -0.1948 -0.1290
15551TIP3    H168068   2.440   3.014  11.831  0.9275  0.5682 -0.3571
15551TIP3    H268069   2.578   2.980  11.882  0.7389  0.3169 -0.0118
15552TIP3   OH268070   5.713   2.278  12.158 -0.3038 -0.0597 -0.1524
15552TIP3    H168071   5.779   2.305  12.095  0.6967 -1.0265  0.4375
15552TIP3    H268072   5.695   2.356  12.209  0.3633  0.2276 -0.3425
15553TIP3   OH268073   6.569   3.653   0.754 -0.6521  0.3999  0.3091
15553TIP3    H168074   6.511   3.607   0.814 -1.6961 -0.2560 -1.1658
15553TIP3    H268075   6.654   3.609   0.765 -1.2316 -0.8006  0.1255
15554TIP3   OH268076   5.448   5.885   0.045 -0.3858  0.8852  0.0830
15554TIP3    H168077   5.371   5.836   0.016 -2.5605  2.6085  2.4870
15554TIP3    H268078   5.453   5.868   0.139  2.7370  0.2110 -0.1171
15555TIP3   OH268079   0.612   0.012   4.376  0.0848  0.2914  0.6934
15555TIP3    H168080   0.630   0.059   4.295  0.8422 -0.8493  0.1709
15555TIP3    H268081   0.586  -0.076   4.347 -0.0933  0.0112  1.6727
15556TIP3   OH268082   3.735   0.860   2.134 -0.1192  0.2922 -0.3977
15556TIP3    H168083   3.778   0.799   2.074  0.4648 -0.7670  1.0520
15556TIP3    H268084   3.806   0.918   2.164 -0.0261 -0.3441  0.6484
15557TIP3   OH268085   6.732   3.040  12.159  0.6485  0.1071  0.7705
15557TIP3    H168086   6.770   2.953  12.160 -0.4180 -0.3952 -0.0988
15557TIP3    H268087   6.806   3.099  12.172  1.9678 -0.7640 -2.0497
15558TIP3   OH268088   6.694   5.385  14.258 -0.0822 -0.5577 -0.1410
15558TIP3    H168089   6.774   5.354  14.216 -0.1878 -0.5088 -0.3776
15558TIP3    H268090   6.721   5.405  14.348  0.3377  0.1269 -0.4068
15559TIP3   OH268091   1.895   6.375  11.405 -0.1683 -0.3815  0.2232
15559TIP3    H168092   1.933   6.421  11.331  0.5239 -0.0852  0.7452
15559TIP3    H268093   1.801   6.394  11.401 -0.0550  0.0732 -0.2588
15560TIP3   OH268094   1.463   0.327  12.707 -0.4438  0.5162  0.3076
15560TIP3    H168095   1.467   0.423  12.711 -1.5735  0.6585 -1.0839
15560TIP3    H268096   1.448   0.300  12.798  0.3603  1.6119  0.7930
15561TIP3   OH268097   3.382   2.686  13.798  0.1156 -0.1593  0.1920
15561TIP3    H168098   3.339   2.635  13.729  0.2188 -2.3742  1.6633
15561TIP3    H268099   3.387   2.626  13.873  2.2673  1.2986  1.3291
15562TIP3   OH268100   6.369   4.266   4.726 -0.1246 -0.4179 -0.5014
15562TIP3    H168101   6.406   4.346   4.763  0.0974 -1.0796  0.7734
15562TIP3    H268102   6.322   4.295   4.647 -0.0903  0.9603 -0.0384
15563TIP3   OH268103   1.373   4.736   2.767  0.2143  0.1766  0.1780
15563TIP3    H168104   1.441   4.747   2.700  0.0496 -1.2128 -0.2654
15563TIP3    H268105   1.404   4.663   2.820 -0.0818  0.7101  1.0928
15564TIP3   OH268106   5.233   1.867   4.946  0.4574 -0.9043 -0.3653
15564TIP3    H168107   5.213   1.949   4.902 -2.4058 -1.5816 -0.4982
15564TIP3    H268108   5.220   1.885   5.039 -0.5559 -1.2529 -0.4224
15565TIP3   OH268109   3.518   6.333   4.867  0.3462 -0.0279  0.0663
15565TIP3    H168110   3.533   6.254   4.919 -1.5450 -2.0793 -2.2645
15565TIP3    H268111   3.602   6.380   4.870  0.8443 -0.8468  3.4227
15566TIP3   OH268112   6.433   6.567   4.145  0.3342 -0.3503 -0.1058
15566TIP3    H168113   6.438   6.553   4.051  1.6232 -0.5019 -0.0388
15566TIP3    H268114   6.426   6.662   4.155 -0.8802 -0.3915 -0.3617
15567TIP3   OH268115   6.667   2.138   4.751  0.2645  0.5876  0.3004
15567TIP3    H168116   6.758   2.138   4.781 -0.4684  0.4003  2.6573
15567TIP3    H268117   6.650   2.046   4.729  0.5499  0.5888  0.0489
15568TIP3   OH268118   0.471   0.754   3.765 -0.2796 -0.2455 -0.2186
15568TIP3    H168119   0.524   0.742   3.686 -1.1009  0.2861 -0.8593
15568TIP3    H268120   0.381   0.752   3.735 -0.6041  0.2804  0.6635
15569TIP3   OH268121   2.878   4.035  14.927 -0.0282  0.0898 -0.1471
15569TIP3    H168122   2.887   4.051  14.833  0.7605  3.0166  0.3074
15569TIP3    H268123   2.918   3.950  14.941 -0.4241 -0.5579 -2.4756
15570TIP3   OH268124   2.071   6.775  11.695  0.1270  0.3178  0.0699
15570TIP3    H168125   2.117   6.692  11.701  0.3929  0.5695  2.2852
15570TIP3    H268126   2.002   6.769  11.761 -1.0116  1.1698 -1.0079
15571TIP3   OH268127   3.912   3.580   1.756  0.1278  0.1686 -0.0950
15571TIP3    H168128   3.902   3.605   1.848  0.2215  0.5231 -0.1802
15571TIP3    H268129   3.833   3.614   1.714 -0.2910 -0.6695 -0.0075
15572TIP3   OH268130   2.958   6.599   1.438  0.5245 -0.4240  0.1596
15572TIP3    H168131   2.995   6.634   1.518 -1.6755  1.2498  0.5491
15572TIP3    H268132   2.864   6.593   1.455 -0.0470  0.0900 -2.2700
15573TIP3   OH268133   0.427   6.526   1.217 -0.2807 -0.6571 -0.0844
15573TIP3    H168134   0.378   6.578   1.281  0.8918  1.5358 -0.8835
15573TIP3    H268135   0.495   6.483   1.269  0.4438  0.8290  0.2419
15574TIP3   OH268136   5.142   6.501   6.140 -0.0748  0.3092  0.1027
15574TIP3    H168137   5.055   6.506   6.100 -0.2238  0.4865  0.4453
15574TIP3    H268138   5.126   6.465   6.227  0.0045  1.7476  0.7329
15575TIP3   OH268139   5.052   0.597  16.470 -0.3979 -0.0712  0.0042
15575TIP3    H168140   4.980   0.630  16.417  1.3003  1.7276 -1.3424
15575TIP3    H268141   5.067   0.508  16.437 -2.9027 -1.1169  1.3849
15576TIP3   OH268142   1.423   5.452  12.054 -0.2376  0.2344 -0.1493
15576TIP3    H168143   1.400   5.520  12.116 -1.9832 -0.5290  0.1035
15576TIP3    H268144   1.359   5.461  11.983 -2.9641 -3.2692  1.5569
15577TIP3   OH268145   3.267   0.917  13.527 -0.6476  0.4522  0.5854
15577TIP3    H168146   3.209   0.918  13.450 -0.3059 -0.1876  0.3146
15577TIP3    H268147   3.345   0.965  13.500 -1.5077  2.3912  1.3407
15578TIP3   OH268148   1.425   5.258  12.495 -0.1714  0.1142 -0.1381
15578TIP3    H168149   1.467   5.343  12.479 -0.5790 -0.0092 -2.1328
15578TIP3    H268150   1.490   5.193  12.468 -0.5884 -0.1480 -0.5316
15579TIP3   OH268151   4.944   0.039  16.632  0.4880 -0.1459  0.0197
15579TIP3    H168152   4.910   0.007  16.548  0.4024 -1.9965  0.7024
15579TIP3    H268153   4.889  -0.003  16.698  0.5417  1.2945  1.0273
15580TIP3   OH268154   0.869   4.922   0.303 -0.1513 -0.0554  0.2698
15580TIP3    H168155   0.923   4.946   0.228  0.6427  0.8820  1.1211
15580TIP3    H268156   0.866   5.001   0.358 -2.6944  0.0760  0.0986
15581TIP3   OH268157   0.933   3.547  14.837  0.2789  0.3432 -0.6673
15581TIP3    H168158   0.869   3.548  14.909 -0.0622 -0.5699 -0.9427
15581TIP3    H268159   0.885   3.510  14.763  1.3636 -1.2364 -0.6287
15582TIP3   OH268160   2.600   4.115   1.590 -0.8179 -0.4494  0.0612
15582TIP3    H168161   2.584   4.135   1.682  0.4155 -0.5244  0.3164
15582TIP3    H268162   2.633   4.197   1.553  1.8164 -1.2218  0.4999
15583TIP3   OH268163   5.806   6.621   1.857  0.3645  0.1277  0.2606
15583TIP3    H168164   5.779   6.556   1.793  0.1919 -0.4321  0.8824
15583TIP3    H268165   5.834   6.569   1.933 -0.6842  0.7822  1.1277
15584TIP3   OH268166   1.582   0.579   5.983 -0.0926  0.2378 -0.3193
15584TIP3    H168167   1.583   0.559   5.889  0.5101  1.0400 -0.4925
15584TIP3    H268168   1.561   0.496   6.025  0.3926 -0.3022 -1.1228
15585TIP3   OH268169   1.205   0.667  15.955 -0.2871  0.3276  0.0689
15585TIP3    H168170   1.273   0.599  15.961 -0.9136 -0.4738 -1.3041
15585TIP3    H268171   1.143   0.632  15.890 -0.3150  2.4940 -1.1535
15586TIP3   OH268172   0.909   5.937   0.485 -0.8354  0.3770 -0.0942
15586TIP3    H168173   0.935   5.922   0.395 -1.3235  0.3018 -0.2264
15586TIP3    H268174   0.983   5.908   0.537 -1.5128 -2.0359 -0.3537
15587TIP3   OH268175   4.993   2.142  11.277  0.0950  0.6765 -0.4705
15587TIP3    H168176   4.966   2.233  11.264  1.0028  0.7597 -1.9891
15587TIP3    H268177   5.044   2.143  11.357 -1.5017  1.1346  0.5772
15588TIP3   OH268178   0.447   4.603   3.848  0.7953 -0.0091 -0.2531
15588TIP3    H168179   0.442   4.627   3.941 -0.5636 -0.6119 -0.1422
15588TIP3    H268180   0.521   4.543   3.843  0.3543 -0.6639  0.6306
15589TIP3   OH268181   3.931   1.646  12.573  0.0798  0.0937 -0.4396
15589TIP3    H168182   3.896   1.692  12.649  0.1802  1.5155 -1.2146
15589TIP3    H268183   3.984   1.575  12.610  2.8464  2.6654  1.0063
15590TIP3   OH268184   1.962   2.069   2.643  0.3330  0.0829  0.8378
15590TIP3    H168185   2.007   1.986   2.625  2.7850  1.5517 -0.3257
15590TIP3    H268186   1.947   2.107   2.557 -0.6369  0.9295  1.3628
15591TIP3   OH268187   6.308   2.623  13.356 -0.0090 -0.2373  0.4297
15591TIP3    H168188   6.353   2.661  13.432  1.3240 -1.0335  0.0776
15591TIP3    H268189   6.227   2.586  13.392 -0.0827  0.6464  1.2082
15592TIP3   OH268190   5.359   1.428  15.758  0.2414  0.4225 -0.0459
15592TIP3    H168191   5.291   1.367  15.729 -0.4437  1.7861 -1.4225
15592TIP3    H268192   5.317   1.481  15.826 -0.3091  1.6152 -1.2591
15593TIP3   OH268193   6.402   4.681  16.120 -0.7698  0.0282 -0.3092
15593TIP3    H168194   6.416   4.605  16.065 -0.9539  0.9715 -1.6994
15593TIP3    H268195   6.306   4.690  16.126 -0.8570 -1.5388  2.3202
15594TIP3   OH268196   0.560   2.978  16.920 -0.0582  0.0081 -0.1430
15594TIP3    H168197   0.558   2.999  16.827  1.1150 -0.4296 -0.2931
15594TIP3    H268198   0.591   3.059  16.962 -0.5655  0.1984 -0.1327
15595TIP3   OH268199   6.203   0.411   5.101 -0.3632 -0.5605  0.4036
15595TIP3    H168200   6.147   0.402   5.178 -1.5910 -1.5007 -0.5290
15595TIP3    H268201   6.240   0.323   5.089  1.9884  0.2346  1.4468
15596TIP3   OH268202   1.763   5.046  10.603  0.0817  0.4851  0.0718
15596TIP3    H168203   1.824   4.979  10.634 -0.0314  0.4223  0.1544
15596TIP3    H268204   1.774   5.119  10.663 -0.0561  0.4060  0.1925
15597TIP3   OH268205   3.180   4.818  12.160  0.0300  0.0764 -0.2903
15597TIP3    H168206   3.236   4.890  12.189  0.6783 -0.0769 -1.1181
15597TIP3    H268207   3.092   4.856  12.155 -0.1286  0.0818  1.8867
15598TIP3   OH268208   0.354   1.727  10.718 -0.1057  0.4219  0.0995
15598TIP3    H168209   0.432   1.765  10.760  0.3396 -0.8312  0.4395
15598TIP3    H268210   0.324   1.795  10.658  0.0039  1.7616  1.4938
15599TIP3   OH268211   5.898   4.497   0.145  0.2855  0.5897  0.0288
15599TIP3    H168212   5.847   4.556   0.089 -0.9545 -2.5404 -2.4715
15599TIP3    H268213   5.841   4.478   0.219 -0.0481  1.0728 -0.0983
15600TIP3   OH268214   1.598   2.830  10.278 -0.2067 -0.0108  0.3820
15600TIP3    H168215   1.522   2.889  10.276 -1.1181 -1.1045  1.2291
15600TIP3    H268216   1.648   2.853  10.200  0.0528  2.5874  1.2114
15601TIP3   OH268217   5.770   1.190  16.854 -0.0135  0.3431 -0.0804
15601TIP3    H168218   5.713   1.227  16.921  0.4094  0.6273  0.1281
15601TIP3    H268219   5.803   1.266  16.806 -0.6288  0.1208 -0.8774
15602TIP3   OH268220   5.484   0.759  12.530  0.4557 -0.1852  0.1453
15602TIP3    H168221   5.446   0.794  12.449  1.5527  1.0592  0.1309
15602TIP3    H268222   5.411   0.758  12.592  0.4387  2.8419  0.3414
15603TIP3   OH268223   0.056   3.964  16.672 -0.1508 -0.2068 -0.3129
15603TIP3    H168224  -0.036   3.951  16.696 -0.2217  0.8830  0.0581
15603TIP3    H268225   0.070   3.904  16.598 -1.7580  1.0761 -1.7462
15604TIP3   OH268226   0.024   3.342  15.646  0.3420  0.2526  0.0202
15604TIP3    H168227   0.108   3.295  15.647 -0.4862 -1.3261 -0.8611
15604TIP3    H268228   0.028   3.396  15.567  0.3143 -0.2213 -0.3053
15605TIP3   OH268229   0.263   6.266  17.098 -0.1512  0.1964 -0.1285
15605TIP3    H168230   0.251   6.211  17.175 -0.4219 -1.3002 -1.1799
15605TIP3    H268231   0.355   6.290  17.099 -0.2241  0.4677  0.8212
15606TIP3   OH268232   1.847   6.268   0.244 -0.3001 -0.1063  0.4800
15606TIP3    H168233   1.768   6.311   0.212  0.7873  1.2823 -0.4840
15606TIP3    H268234   1.918   6.329   0.224  1.2249 -1.9512 -0.1121
15607TIP3   OH268235   0.860   6.230  13.366 -0.5439  0.4710 -0.1772
15607TIP3    H168236   0.788   6.168  13.382 -0.8014  1.3045  2.2018
15607TIP3    H268237   0.934   6.175  13.342 -1.3099 -0.5915 -0.1866
15608TIP3   OH268238   3.061   5.649   3.298  0.5949  0.7694 -0.0334
15608TIP3    H168239   3.006   5.713   3.344  0.6978 -0.4452  1.8914
15608TIP3    H268240   3.143   5.648   3.348  1.1246  0.1628 -0.8972
15609TIP3   OH268241   2.883   6.068  16.666  0.2341 -0.4701 -0.3705
15609TIP3    H168242   2.940   6.087  16.591  0.6299 -2.0992 -0.5275
15609TIP3    H268243   2.936   6.013  16.723 -0.0390  0.8187  1.1730
15610TIP3   OH268244   3.995   3.780   1.227 -0.1328 -0.0955  0.1443
15610TIP3    H168245   3.963   3.755   1.140  0.7184  2.1005 -0.8823
15610TIP3    H268246   3.924   3.756   1.287 -1.4569 -0.1131 -1.3695
15611TIP3   OH268247   4.908   6.262   4.830  0.0085  0.1314 -0.0686
15611TIP3    H168248   4.821   6.304   4.826 -0.0555  0.0581  0.5334
15611TIP3    H268249   4.929   6.259   4.923  1.8271  2.5283 -0.2997
15612TIP3   OH268250   5.144   5.426  15.960 -0.3481  0.5042 -0.0275
15612TIP3    H168251   5.136   5.409  15.866 -1.9514 -0.2430  0.2172
15612TIP3    H268252   5.201   5.356  15.992 -0.3706  0.3510 -0.3219
15613TIP3   OH268253   0.380   5.174   2.865  0.0054  0.1957 -0.0579
15613TIP3    H168254   0.339   5.089   2.849  1.7679 -0.5957 -0.7116
15613TIP3    H268255   0.377   5.185   2.960 -2.2137  0.4835 -0.1105
15614TIP3   OH268256   3.791   3.327   1.982 -0.1877  0.0016  0.0413
15614TIP3    H168257   3.806   3.413   1.942  0.5449 -1.1733 -2.3801
15614TIP3    H268258   3.858   3.322   2.051 -0.9830  1.7885  1.0099
15615TIP3   OH268259   1.778   5.866  16.387  0.2462  0.1328  0.3776
15615TIP3    H168260   1.688   5.881  16.360  0.7644  0.5116 -1.2547
15615TIP3    H268261   1.809   5.797  16.329  0.9275 -0.2113  1.1237
15616TIP3   OH268262   3.631   3.024  15.158 -0.7338 -0.4940  0.0875
15616TIP3    H168263   3.643   3.007  15.251  0.7683 -0.1016  0.0093
15616TIP3    H268264   3.655   3.117  15.148 -0.0996 -0.7343 -0.7864
15617TIP3   OH268265   1.406   1.979  16.018 -0.0971  0.3848 -0.1966
15617TIP3    H168266   1.495   1.942  16.021  1.2133  3.1472 -1.2282
15617TIP3    H268267   1.369   1.945  15.937  0.8520  0.7998 -0.8323
15618TIP3   OH268268   4.364   0.839  15.057  0.0790  0.5750 -0.3909
15618TIP3    H168269   4.330   0.916  15.011 -1.5681  1.2827  1.8561
15618TIP3    H268270   4.313   0.766  15.020 -0.9963  1.0860  0.0338
15619TIP3   OH268271   5.175   2.810   2.288 -0.3113  0.0107 -0.5308
15619TIP3    H168272   5.239   2.880   2.279  1.1438 -1.2503 -0.4752
15619TIP3    H268273   5.145   2.792   2.199  0.7906 -0.5805 -0.8017
15620TIP3   OH268274   3.851   4.573   1.301 -0.0124 -0.1249 -0.6121
15620TIP3    H168275   3.795   4.627   1.357  0.6912 -0.1940  0.1899
15620TIP3    H268276   3.791   4.514   1.255 -0.5735 -0.4141  0.4690
15621TIP3   OH268277   1.217   2.570  12.454  0.5211 -0.0183  0.7184
15621TIP3    H168278   1.278   2.556  12.382 -1.3870  0.1288 -1.0000
15621TIP3    H268279   1.211   2.665  12.463  0.0454 -0.0187  0.4296
15622TIP3   OH268280   6.141   3.946   2.967 -0.4376  0.4212 -0.0816
15622TIP3    H168281   6.148   4.020   3.028  0.0740  0.2672  0.0574
15622TIP3    H268282   6.175   3.980   2.885 -0.7647  0.5155 -0.1782
15623TIP3   OH268283   1.383   5.351  15.497 -0.4681  0.0900  0.8552
15623TIP3    H168284   1.407   5.384  15.584  0.8484 -1.1388  0.9997
15623TIP3    H268285   1.438   5.402  15.437  0.6542 -0.9174  0.9849
15624TIP3   OH268286   4.464   6.151  16.542  0.2113 -0.3349  0.4646
15624TIP3    H168287   4.469   6.060  16.512 -0.1406 -0.3842  0.5443
15624TIP3    H268288   4.555   6.179  16.551  0.3511 -1.1452  1.8481
15625TIP3   OH268289   4.004   1.560  14.568  0.8410  0.4168  0.0252
15625TIP3    H168290   4.062   1.583  14.496 -0.2003 -0.4783 -1.1445
15625TIP3    H268291   3.917   1.589  14.539  0.3695 -0.1743  0.8111
15626TIP3   OH268292   1.947   1.400   0.219 -0.4893  0.4014 -0.0615
15626TIP3    H168293   2.007   1.401   0.145  0.6157  1.5458  0.8064
15626TIP3    H268294   1.895   1.479   0.209  0.4936  1.2046  1.0142
15627TIP3   OH268295   1.974   5.445  13.379 -0.3622  0.6258 -0.1586
15627TIP3    H168296   1.991   5.353  13.397 -0.1229  0.6431 -0.2958
15627TIP3    H268297   1.878   5.451  13.373 -0.5158  0.7555  1.8414
15628TIP3   OH268298   6.421   3.920  15.421 -0.2580  0.1421  0.2228
15628TIP3    H168299   6.481   3.846  15.436 -0.4867  0.2910  2.1960
15628TIP3    H268300   6.423   3.933  15.326  1.3428 -1.0929  0.0224
15629TIP3   OH268301   5.236   1.004   3.545 -0.3334  0.4643 -0.2973
15629TIP3    H168302   5.236   0.994   3.450 -0.3645 -0.8278 -0.1758
15629TIP3    H268303   5.144   0.999   3.571 -0.3933  1.4870 -0.2379
15630TIP3   OH268304   0.073   5.630   2.554  0.4872  0.1920 -0.1419
15630TIP3    H168305   0.003   5.672   2.505  0.7694 -0.1238 -0.8279
15630TIP3    H268306   0.112   5.568   2.493  0.5218 -0.5827  0.6363
15631TIP3   OH268307   0.536   3.612   5.025 -0.0292 -0.1794  0.2812
15631TIP3    H168308   0.613   3.624   4.970 -0.4335  1.2362 -0.0056
15631TIP3    H268309   0.556   3.535   5.078  2.1166  0.8777  1.1001
15632TIP3   OH268310   5.126   0.719  12.987  0.2606  0.1779  0.2506
15632TIP3    H168311   5.087   0.748  12.905  2.7730 -0.1051 -1.1403
15632TIP3    H268312   5.064   0.655  13.022 -0.6269 -0.0961 -1.6909
15633TIP3   OH268313   1.770   2.719   1.565 -0.3231 -0.5690 -0.1510
15633TIP3    H168314   1.769   2.800   1.615  0.2825 -0.9436  0.4900
15633TIP3    H268315   1.816   2.657   1.621  0.4445 -0.9827 -1.2041
15634TIP3   OH268316   3.533   5.738  15.512  0.5114 -0.0469  0.1594
15634TIP3    H168317   3.531   5.834  15.510  1.6762 -0.0140  0.0805
15634TIP3    H268318   3.522   5.716  15.604 -3.3648 -0.0032 -0.0981
15635TIP3   OH268319   5.312   5.809  15.175  0.6089  0.7440 -0.0540
15635TIP3    H168320   5.268   5.811  15.090  0.2591 -0.6323  0.0841
15635TIP3    H268321   5.260   5.867  15.230  0.5471  1.2509 -0.6278
15636TIP3   OH268322   2.466   3.226  16.947 -0.5702 -0.3013 -0.2753
15636TIP3    H168323   2.498   3.136  16.936 -0.8559 -0.4480  0.0845
15636TIP3    H268324   2.532   3.268  17.003  0.5246  0.2491 -1.9211
15637TIP3   OH268325   2.779   4.417  11.241 -0.3122 -0.3908 -0.0711
15637TIP3    H168326   2.776   4.502  11.286  1.2853 -0.8754  1.0052
15637TIP3    H268327   2.753   4.437  11.151 -1.6402  0.9379  0.5689
15638TIP3   OH268328   1.226   1.964   4.371 -0.8369  0.2245  0.4364
15638TIP3    H168329   1.148   1.979   4.318 -0.6167 -0.8527 -0.2050
15638TIP3    H268330   1.293   2.020   4.330 -0.2720 -1.6661 -1.3762
15639TIP3   OH268331   6.197   0.997  15.642 -0.1294 -0.0893 -0.4496
15639TIP3    H168332   6.120   1.019  15.589 -0.4137 -0.3151 -0.1274
15639TIP3    H268333   6.189   0.903  15.659 -0.5675  0.1740  0.8467
15640TIP3   OH268334   2.272   5.835  14.133  0.0597  0.2291 -0.3807
15640TIP3    H168335   2.303   5.874  14.215  0.4066  1.2677 -0.9899
15640TIP3    H268336   2.330   5.871  14.066  0.5684 -1.5662 -0.9575
15641TIP3   OH268337   6.564   0.888  14.635 -0.3317  0.3518 -0.7667
15641TIP3    H168338   6.538   0.796  14.647  1.3825 -0.1781 -0.7776
15641TIP3    H268339   6.594   0.916  14.721 -1.5218  1.1389 -0.6036
15642TIP3   OH268340   1.773   1.333   3.695  0.3165 -0.4197 -0.6702
15642TIP3    H168341   1.817   1.255   3.730  0.7689  0.0282 -0.2213
15642TIP3    H268342   1.801   1.337   3.604 -0.7578 -1.5176 -1.0604
15643TIP3   OH268343   1.806   6.000  15.691  0.6750  0.3681  0.4164
15643TIP3    H168344   1.734   5.994  15.629  1.5206  0.4093 -0.5952
15643TIP3    H268345   1.818   5.910  15.723 -1.3348  0.7177  2.4205
15644TIP3   OH268346   3.925   0.503  12.636  0.1143 -0.2564  0.0962
15644TIP3    H168347   3.971   0.426  12.670  0.3395  1.0237  2.9847
15644TIP3    H268348   3.834   0.475  12.629  0.6261 -1.6643 -2.0026
15645TIP3   OH268349   4.520   4.053   3.653 -0.0424 -0.4309  0.2451
15645TIP3    H168350   4.558   3.965   3.653 -1.6915 -1.1721  0.1973
15645TIP3    H268351   4.490   4.066   3.563  0.9750  0.5694  0.0203
15646TIP3   OH268352   1.920   4.979  14.808 -0.2357 -0.0028 -0.1770
15646TIP3    H168353   1.957   5.067  14.803  1.2334 -0.5331  0.7577
15646TIP3    H268354   1.995   4.923  14.827 -1.4442 -1.2193  1.1996
15647TIP3   OH268355   0.591   6.557   0.499 -0.4891  0.8498  0.3752
15647TIP3    H168356   0.533   6.622   0.461  0.1061  1.1272 -0.0866
15647TIP3    H268357   0.570   6.557   0.592 -1.5811  0.5706  0.1476
15648TIP3   OH268358   5.838   1.287  13.793  0.0858  0.3159 -0.6187
15648TIP3    H168359   5.848   1.208  13.741  0.7381  1.4053 -2.2353
15648TIP3    H268360   5.838   1.358  13.728 -1.4630  1.5814  0.6778
15649TIP3   OH268361   5.440   2.676  16.677  0.6828  0.5378 -0.0437
15649TIP3    H168362   5.471   2.761  16.644  2.5822 -0.4820 -1.0915
15649TIP3    H268363   5.464   2.676  16.770 -1.0440  1.8395  0.4584
15650TIP3   OH268364   3.627   3.314   3.972  0.1445 -0.6642 -0.2081
15650TIP3    H168365   3.581   3.346   4.049 -1.4691 -1.2700 -0.8872
15650TIP3    H268366   3.594   3.368   3.900  1.3768 -0.3339 -0.5526
15651TIP3   OH268367   0.539   4.616  15.879  0.0349  0.3222  0.4082
15651TIP3    H168368   0.607   4.680  15.898 -0.4540  0.5709  1.4063
15651TIP3    H268369   0.497   4.648  15.799  0.9068  0.2993 -0.0668
15652TIP3   OH268370   4.654   0.950  11.434 -0.1319 -0.1479 -0.1180
15652TIP3    H168371   4.673   0.950  11.528 -0.4378 -0.4076 -0.0569
15652TIP3    H268372   4.695   0.870  11.401 -1.0486 -0.6772  0.0025
15653TIP3   OH268373   0.756   4.492  16.943 -0.0356 -0.0104  0.0866
15653TIP3    H168374   0.712   4.409  16.962 -0.5976  0.5081  1.1728
15653TIP3    H268375   0.804   4.512  17.024 -0.3218  0.9659  0.0221
15654TIP3   OH268376   1.372   6.080   2.953  0.3066 -0.3952  0.3768
15654TIP3    H168377   1.276   6.080   2.961  0.2045 -1.4623 -0.6936
15654TIP3    H268378   1.400   6.012   3.014  0.3697 -0.2589  0.5004
15655TIP3   OH268379   2.709   4.567   5.462 -0.5463 -0.0913  0.4301
15655TIP3    H168380   2.694   4.628   5.390  0.2220 -1.0615 -0.5870
15655TIP3    H268381   2.792   4.596   5.501 -0.8422  0.2894  0.7888
15656TIP3   OH268382   1.761   1.281   0.039 -0.2001 -0.5014  0.3915
15656TIP3    H168383   1.817   1.203   0.036  1.8290  0.8813  0.0986
15656TIP3    H268384   1.794   1.331   0.114 -0.3267  0.8596 -0.4297
15657TIP3   OH268385   3.963   1.874   3.553 -0.8809 -0.4564  0.0894
15657TIP3    H168386   4.015   1.845   3.628 -3.0923 -1.1422  1.4666
15657TIP3    H268387   3.906   1.943   3.589 -0.4621  0.8068 -1.5349
15658TIP3   OH268388   3.124   3.303   2.201 -0.1815  0.6571 -0.1626
15658TIP3    H168389   3.208   3.349   2.211  0.1163  0.0896 -0.0240
15658TIP3    H268390   3.137   3.245   2.126 -0.9289  1.6029 -1.0391
15659TIP3   OH268391   4.781   4.931   3.144  0.1037  0.5071  0.1435
15659TIP3    H168392   4.705   4.904   3.092  0.3107 -0.7986  0.4975
15659TIP3    H268393   4.811   5.011   3.101 -0.4609  0.1193 -1.0228
15660TIP3   OH268394   1.809   4.915   1.267 -0.5179 -0.0433  0.1805
15660TIP3    H168395   1.802   4.968   1.188  1.7453 -0.3835 -0.3203
15660TIP3    H268396   1.731   4.936   1.317 -1.6500  0.7493 -1.7933
15661TIP3   OH268397   0.875   5.607   1.937 -0.0877  0.8255 -0.7291
15661TIP3    H168398   0.843   5.597   2.026 -0.0670  1.0840 -0.6931
15661TIP3    H268399   0.888   5.701   1.926  0.0308  0.7835 -0.9614
15662TIP3   OH268400   4.698   1.979  14.388 -0.3561  0.0920  0.0674
15662TIP3    H168401   4.787   2.013  14.392  0.9488 -2.5836 -2.0602
15662TIP3    H268402   4.691   1.920  14.463  0.3198 -0.8858 -0.6028
15663TIP3   OH268403   4.241   5.987   3.085 -0.1262 -0.4041  0.2006
15663TIP3    H168404   4.213   6.005   2.996  0.9732 -2.0613 -0.5265
15663TIP3    H268405   4.312   5.923   3.076  0.2521 -0.3540  2.2413
15664TIP3   OH268406   3.315   2.379  11.668 -0.2048  0.2258  0.3804
15664TIP3    H168407   3.364   2.313  11.717 -0.6977 -1.0656 -0.8223
15664TIP3    H268408   3.357   2.382  11.582 -2.1086 -0.8531 -0.6528
15665TIP3   OH268409   5.021   2.792  14.885  0.0588  0.3169 -0.4042
15665TIP3    H168410   5.009   2.708  14.841  1.5731  0.3493 -0.9176
15665TIP3    H268411   4.936   2.836  14.876 -1.7553 -2.2326  2.3493
15666TIP3   OH268412   6.577   3.620   6.785 -0.2064  0.1631  0.1062
15666TIP3    H168413   6.497   3.626   6.837 -0.2481  1.1378 -0.0700
15666TIP3    H268414   6.603   3.710   6.769  0.6692 -0.1415 -0.2473
15667TIP3   OH268415   5.862   1.777   3.663 -0.2626 -0.0743  0.1352
15667TIP3    H168416   5.799   1.710   3.689  1.3771 -0.8573  2.4249
15667TIP3    H268417   5.886   1.754   3.574  0.1029 -2.4782  0.7819
15668TIP3   OH268418   5.230   5.814   2.099 -0.4072  0.0041  0.6611
15668TIP3    H168419   5.213   5.723   2.124 -0.5570 -0.0797  0.2520
15668TIP3    H268420   5.280   5.807   2.017 -0.9827  0.2990  0.2831
15669TIP3   OH268421   0.341   2.913   3.487  0.2450  0.7831  0.5139
15669TIP3    H168422   0.423   2.951   3.454  0.3926  2.4529  2.6209
15669TIP3    H268423   0.277   2.984   3.479  0.2320  1.1980  3.3965
15670TIP3   OH268424   6.400   5.720  14.788 -0.2643  0.4579 -0.6063
15670TIP3    H168425   6.473   5.699  14.846 -0.0316 -0.5020 -1.2238
15670TIP3    H268426   6.363   5.801  14.824  0.8976  0.7824 -0.0991
15671TIP3   OH268427   5.623   4.174   5.388 -0.0295  0.0921 -0.3002
15671TIP3    H168428   5.553   4.216   5.340  0.5649 -1.0154 -2.2537
15671TIP3    H268429   5.586   4.156   5.474 -1.8529  0.2531 -1.0138
15672TIP3   OH268430   4.903   3.383  14.697 -0.3055  0.4205 -0.4829
15672TIP3    H168431   4.958   3.439  14.642  2.2718 -1.5077 -0.0436
15672TIP3    H268432   4.826   3.364  14.643  0.5195  1.3602 -2.0595
15673TIP3   OH268433   2.165   0.585  12.952 -0.2157  0.0050 -0.1392
15673TIP3    H168434   2.139   0.580  12.860  0.1545  0.1690 -0.2587
15673TIP3    H268435   2.085   0.568  13.001 -0.6577  0.9852 -0.4911
15674TIP3   OH268436   5.981   2.593   2.846  0.1736 -0.4969  0.0791
15674TIP3    H168437   5.965   2.598   2.752 -0.2376  0.1128  0.1749
15674TIP3    H268438   6.071   2.624   2.857  0.1441 -0.3452 -0.0958
15675TIP3   OH268439   4.790   1.191   1.202  0.4755 -0.1712 -0.1462
15675TIP3    H168440   4.808   1.226   1.289 -0.7440  1.5610 -0.5273
15675TIP3    H268441   4.858   1.229   1.146 -0.7248  1.5629 -0.5207
15676TIP3   OH268442   0.915   6.214   2.389 -0.3928  0.4059 -0.1082
15676TIP3    H168443   0.969   6.293   2.385  0.1909 -0.0157 -1.8865
15676TIP3    H268444   0.913   6.191   2.481  0.7032  1.6432  0.2648
15677TIP3   OH268445   0.572   1.323   2.934  0.3261 -0.1028 -0.1494
15677TIP3    H168446   0.504   1.391   2.939  0.0860 -0.3945  0.8276
15677TIP3    H268447   0.634   1.347   3.003 -0.4815 -1.6113  1.1933
15678TIP3   OH268448   6.576   2.669   2.524 -0.4423 -0.3903 -0.4330
15678TIP3    H168449   6.496   2.662   2.472 -0.3528 -1.1887 -0.4793
15678TIP3    H268450   6.647   2.656   2.460 -0.3209 -1.0125 -0.1792
15679TIP3   OH268451   6.232   0.838   4.977 -0.4810 -0.0330  0.2506
15679TIP3    H168452   6.157   0.780   4.992 -0.9743  0.7649  0.9063
15679TIP3    H268453   6.248   0.880   5.061  0.5652 -0.0138  0.0595
15680TIP3   OH268454   0.726   2.619  11.000 -0.7707 -0.1210  0.5739
15680TIP3    H168455   0.746   2.639  10.909  2.4797  1.1337  1.4247
15680TIP3    H268456   0.793   2.556  11.027  0.4145  1.9109  2.8484
15681TIP3   OH268457   3.228   1.009   5.906 -0.5662 -0.1720  0.0322
15681TIP3    H168458   3.172   0.993   5.982 -1.4470 -0.2201 -0.6150
15681TIP3    H268459   3.181   1.074   5.855  0.7068  0.9648  0.2325
15682TIP3   OH268460   1.379   0.751   6.073 -0.3362 -0.4755  0.4990
15682TIP3    H168461   1.389   0.833   6.025 -0.4292 -1.6660 -1.6634
15682TIP3    H268462   1.457   0.700   6.051 -0.7196 -1.3287  1.0633
15683TIP3   OH268463   4.656   5.296   0.130 -0.6572 -0.0659 -0.5540
15683TIP3    H168464   4.691   5.321   0.216  0.0450 -1.2106 -0.4766
15683TIP3    H268465   4.607   5.373   0.100  0.1702  0.8210  0.2968
15684TIP3   OH268466   1.108   2.196  12.104 -0.3999  0.0385 -0.4932
15684TIP3    H168467   1.072   2.248  12.032 -1.6077 -0.8838 -0.5853
15684TIP3    H268468   1.036   2.189  12.167 -0.6374 -2.3571 -0.9392
15685TIP3   OH268469   6.152   6.650   1.074 -0.5054 -0.9713  0.3334
15685TIP3    H168470   6.167   6.714   1.144  1.1039 -2.2210  1.2160
15685TIP3    H268471   6.065   6.670   1.041  0.0474  1.8788  0.3378
15686TIP3   OH268472   5.104   4.183   5.028 -0.2174 -0.1564  0.0788
15686TIP3    H168473   5.120   4.220   4.941 -2.1310 -0.2310 -0.3330
15686TIP3    H268474   5.118   4.256   5.088  0.7001  0.0035 -0.3098
15687TIP3   OH268475   3.705   6.076  16.539 -0.0781 -0.5139 -0.0639
15687TIP3    H168476   3.667   6.156  16.503 -0.3251 -0.4896  0.2450
15687TIP3    H268477   3.751   6.036  16.466  0.0205 -0.1048 -0.2282
15688TIP3   OH268478   3.205   2.261   1.781  0.2456 -0.2612 -0.4025
15688TIP3    H168479   3.157   2.259   1.699 -1.5458  0.1424  0.5875
15688TIP3    H268480   3.156   2.203   1.839  1.1144 -0.0567  0.5652
15689TIP3   OH268481   1.885   5.752  12.927  0.2976 -0.7792 -0.0393
15689TIP3    H168482   1.978   5.732  12.919  0.6671  0.0006  1.7316
15689TIP3    H268483   1.867   5.814  12.857  1.1351 -0.8852 -0.3589
15690TIP3   OH268484   3.281   1.628  14.075 -0.1297  0.4551  0.1354
15690TIP3    H168485   3.229   1.688  14.127 -1.4291  0.1557 -0.7578
15690TIP3    H268486   3.223   1.602  14.003  0.5864 -1.4124  0.1730
15691TIP3   OH268487   3.319   4.586  11.357  0.3287  0.2124 -0.1197
15691TIP3    H168488   3.341   4.605  11.448 -0.0261 -2.7695  0.7003
15691TIP3    H268489   3.283   4.667  11.323  0.1584  1.3218  2.4888
15692TIP3   OH268490   4.517   5.227  16.934  0.6825  0.3232 -0.3562
15692TIP3    H168491   4.509   5.318  16.964  1.0465 -0.3505  2.0466
15692TIP3    H268492   4.605   5.222  16.898  0.8404  0.8079 -0.0572
15693TIP3   OH268493   4.064   3.163   6.226 -0.3491  0.3826  0.6541
15693TIP3    H168494   4.085   3.169   6.133  0.8295  0.4994  0.9070
15693TIP3    H268495   4.036   3.073   6.238 -2.5041  0.8838 -0.1715
15694TIP3   OH268496   3.133   1.737   3.647 -0.1443 -0.4268  0.0815
15694TIP3    H168497   3.125   1.642   3.634 -0.0656 -0.1343 -2.9013
15694TIP3    H268498   3.051   1.763   3.689 -0.9746 -1.6049 -0.7452
15695TIP3   OH268499   0.191   2.273   1.632  0.1229 -0.2369  0.1248
15695TIP3    H168500   0.226   2.198   1.680  0.4896  0.7676  1.4955
15695TIP3    H268501   0.265   2.334   1.627 -0.2620  0.1808 -0.6736
15696TIP3   OH268502   3.033   5.327   4.179 -0.2782  0.6845  0.3601
15696TIP3    H168503   3.001   5.252   4.128  3.1276 -0.4272 -0.4137
15696TIP3    H268504   2.987   5.403   4.142 -1.0804 -0.6211 -1.4590
15697TIP3   OH268505   1.295   6.762   0.209 -0.3539 -0.0795  0.1980
15697TIP3    H168506   1.352   6.817   0.155 -1.3847 -0.4163 -1.2836
15697TIP3    H268507   1.280   6.814   0.288  3.3412 -0.6825  1.4566
15698TIP3   OH268508   2.958   2.743   5.711  0.1713  0.5754 -0.3971
15698TIP3    H168509   2.950   2.781   5.623  0.5871 -0.9424 -1.1212
15698TIP3    H268510   3.037   2.689   5.706 -0.3116 -0.2388  0.6403
15699TIP3   OH268511   6.238   2.563  13.075  0.3228  0.2720  0.0189
15699TIP3    H168512   6.263   2.584  13.165  0.3485  1.8443 -0.3281
15699TIP3    H268513   6.302   2.496  13.047  0.7711  0.3164  0.9141
15700TIP3   OH268514   6.137   0.069   3.280  0.2796  0.0341  0.8036
15700TIP3    H168515   6.108   0.159   3.261 -0.0981  0.0866  1.5707
15700TIP3    H268516   6.179   0.040   3.200 -1.4139  0.1666 -0.1800
15701TIP3   OH268517   3.234   3.814  14.323  0.2522 -0.1586  0.6967
15701TIP3    H168518   3.212   3.734  14.370  0.4113 -0.2827  0.5619
15701TIP3    H268519   3.154   3.867  14.326 -0.4450 -1.0684 -0.7458
15702TIP3   OH268520   0.860   2.792  15.676 -0.5765 -0.0083  0.0599
15702TIP3    H168521   0.866   2.765  15.584 -0.1875 -0.9882  0.3558
15702TIP3    H268522   0.908   2.875  15.680  1.2362 -0.9923 -0.2432
15703TIP3   OH268523   3.134   2.974  10.357 -0.1481  0.2111 -0.1577
15703TIP3    H168524   3.044   2.984  10.326 -0.5075  0.0914  0.8318
15703TIP3    H268525   3.162   3.062  10.380  0.6849  0.5693 -2.2626
15704TIP3   OH268526   2.875   3.609  10.771 -0.4951  0.0127  0.2547
15704TIP3    H168527   2.823   3.633  10.847  0.3004  0.1929  0.7410
15704TIP3    H268528   2.896   3.692  10.728 -1.9616 -0.1392 -0.8751
15705TIP3   OH268529   4.929   5.143   1.247  0.2853  0.0643  0.2451
15705TIP3    H168530   4.870   5.214   1.225  0.3103  0.7932  2.2960
15705TIP3    H268531   5.015   5.184   1.253  0.2896 -0.0762  1.5103
15706TIP3   OH268532   0.527   4.734   4.791  0.5546 -0.1059  0.3380
15706TIP3    H168533   0.456   4.752   4.852  2.2222  1.8321  1.8349
15706TIP3    H268534   0.545   4.818   4.748  0.7124 -0.9935 -1.4426
15707TIP3   OH268535   5.098   2.616  15.931  0.1058  0.0134 -0.0217
15707TIP3    H168536   5.161   2.679  15.966  0.0685  0.3818 -0.5960
15707TIP3    H268537   5.099   2.543  15.993 -1.0656  1.2669  1.5879
15708TIP3   OH268538   0.896   6.576   2.650 -0.0606 -0.2973  0.0237
15708TIP3    H168539   0.872   6.588   2.558 -1.0527 -1.2457  0.1411
15708TIP3    H268540   0.899   6.665   2.686  3.3464  0.4114 -1.5913
15709TIP3   OH268541   5.579   4.180  17.088  0.0778 -0.5001 -0.6856
15709TIP3    H168542   5.638   4.237  17.136 -0.2761 -1.0294  0.3891
15709TIP3    H268543   5.621   4.168  17.003  1.8492 -1.4212  0.2868
15710TIP3   OH268544   5.010   6.329  11.345  0.2627 -0.3765  0.5962
15710TIP3    H168545   4.949   6.274  11.394  1.6775 -1.7224  0.9365
15710TIP3    H268546   5.000   6.416  11.382 -2.5708 -0.1524 -0.4449
15711TIP3   OH268547   4.275   2.758   4.213  0.1995 -0.0484  0.5996
15711TIP3    H168548   4.300   2.825   4.150  2.2354  0.3587  1.7452
15711TIP3    H268549   4.225   2.695   4.162 -0.3344  1.4834 -0.8689
15712TIP3   OH268550   4.231   6.737   4.624  0.2371 -0.1953 -0.2308
15712TIP3    H168551   4.259   6.789   4.549 -0.7795 -1.2972 -1.4351
15712TIP3    H268552   4.137   6.755   4.631  0.3015 -0.1760  0.7474
15713TIP3   OH268553   2.279   4.507  15.931 -0.0187  0.1361  0.5205
15713TIP3    H168554   2.229   4.588  15.920 -1.4207 -0.5166  1.8568
15713TIP3    H268555   2.240   4.464  16.007  1.2589 -1.3940  0.3620
15714TIP3   OH268556   1.451   5.557   0.184  0.2399  0.1411 -0.0490
15714TIP3    H168557   1.497   5.479   0.216  0.4602 -0.2209 -1.2089
15714TIP3    H268558   1.519   5.609   0.141  0.3179  1.5360  1.6568
15715TIP3   OH268559   6.165   5.136  15.354 -0.3994 -0.5187  0.3630
15715TIP3    H168560   6.228   5.100  15.416  0.3434 -1.4061 -0.8466
15715TIP3    H268561   6.203   5.219  15.327  0.8790 -1.5386 -1.1763
15716TIP3   OH268562   2.030   1.054   2.311 -0.6364  0.0774 -0.1469
15716TIP3    H168563   1.988   0.975   2.277  1.4604 -1.3931  0.4258
15716TIP3    H268564   2.062   1.029   2.398  0.7743  1.2807 -0.2666
15717TIP3   OH268565   5.302   0.538   5.639 -0.0560 -0.1912 -0.5214
15717TIP3    H168566   5.335   0.461   5.687  1.6203  0.6779 -0.2182
15717TIP3    H268567   5.244   0.582   5.701  0.6592 -0.0710  0.0754
15718TIP3   OH268568   6.457   2.372   0.860 -0.0142  0.5605 -0.4861
15718TIP3    H168569   6.447   2.423   0.779 -0.7887  0.2773 -0.5754
15718TIP3    H268570   6.514   2.299   0.835  1.4138  1.5585 -0.2653
15719TIP3   OH268571   3.622   0.552  16.726 -0.2836  0.0958  0.2830
15719TIP3    H168572   3.554   0.499  16.767  1.0947  0.6662  3.5562
15719TIP3    H268573   3.654   0.498  16.653 -2.2722 -1.3488  0.3934
15720TIP3   OH268574   4.527   3.204   6.344 -0.6658 -0.2434 -0.5678
15720TIP3    H168575   4.571   3.125   6.312 -0.7467 -1.1760  1.4371
15720TIP3    H268576   4.598   3.266   6.360  0.0129 -1.5231  2.0578
15721TIP3   OH268577   6.544   4.764  13.647  0.1076  0.0082 -0.5758
15721TIP3    H168578   6.540   4.772  13.552 -0.0146 -1.4626 -0.7237
15721TIP3    H268579   6.602   4.689  13.662 -0.7365 -0.4598  0.4657
15722TIP3   OH268580   5.462   0.035  15.087 -0.6755 -1.2855 -0.0808
15722TIP3    H168581   5.454   0.131  15.090  0.5834 -1.1000 -1.4301
15722TIP3    H268582   5.478   0.009  15.177  0.2709 -0.0742  0.1244
15723TIP3   OH268583   3.319   5.645  13.540 -0.0591 -0.2339 -0.0975
15723TIP3    H168584   3.278   5.590  13.607  0.9896 -1.4744 -0.4283
15723TIP3    H268585   3.413   5.631  13.551  0.2761  1.8106  0.0390
15724TIP3   OH268586   6.724   1.537  13.011  0.0099 -0.0662  0.7775
15724TIP3    H168587   6.657   1.503  13.070 -0.7409 -0.7533 -0.4402
15724TIP3    H268588   6.804   1.535  13.063 -0.5150 -1.2246  1.5920
15725TIP3   OH268589   2.012   1.037  16.985  0.0508  0.4100  0.2034
15725TIP3    H168590   1.952   1.111  16.995  0.8088  1.1458 -0.5313
15725TIP3    H268591   2.013   1.020  16.891  0.0343 -0.4272  0.3447
15726TIP3   OH268592   4.698   1.875   3.540 -0.9413  0.2185  0.0899
15726TIP3    H168593   4.747   1.907   3.464 -0.3598  1.8897  1.0977
15726TIP3    H268594   4.691   1.781   3.527 -1.8524  0.5769 -2.5841
15727TIP3   OH268595   1.832   3.188   3.939 -0.2168 -0.0438 -0.2191
15727TIP3    H168596   1.858   3.275   3.969 -0.6602 -0.4295  1.4099
15727TIP3    H268597   1.743   3.176   3.972 -0.1705 -1.0915 -0.4306
15728TIP3   OH268598   3.045   2.517   6.064 -0.5035 -0.2956  0.3844
15728TIP3    H168599   3.121   2.559   6.104 -0.6018  0.9940 -0.7143
15728TIP3    H268600   3.054   2.424   6.088  1.2192 -0.1156  0.5759
15729TIP3   OH268601   3.963   2.453   6.294 -0.0304  0.3283 -0.1715
15729TIP3    H168602   4.028   2.440   6.362  0.8848 -1.8720 -1.3783
15729TIP3    H268603   3.911   2.373   6.293 -1.5696  1.2746 -0.5116
15730TIP3   OH268604   0.616   0.877   3.050  0.2759  0.3412 -0.3434
15730TIP3    H168605   0.577   0.849   3.132  1.1706 -0.4211 -0.1641
15730TIP3    H268606   0.597   0.807   2.988  0.7078  0.3066 -0.4428
15731TIP3   OH268607   0.948   6.549  12.592 -0.0102  0.0611 -0.2045
15731TIP3    H168608   0.862   6.510  12.578 -0.3856  0.5787  0.5977
15731TIP3    H268609   0.944   6.633  12.546 -1.4502  2.0378  3.1697
15732TIP3   OH268610   0.984   1.861   3.319 -0.3006  0.5300 -0.4669
15732TIP3    H168611   1.022   1.949   3.311 -0.9465  0.9222  0.5162
15732TIP3    H268612   1.015   1.830   3.405 -1.0177  0.2753 -0.2931
15733TIP3   OH268613   1.539   4.622   0.044 -0.3793  0.2272  0.5924
15733TIP3    H168614   1.545   4.576   0.128  0.7264  0.9403  0.9225
15733TIP3    H268615   1.467   4.684   0.055  0.2224  0.8202  1.2830
15734TIP3   OH268616   1.308   0.786   4.391 -0.3022 -0.2866 -0.2174
15734TIP3    H168617   1.308   0.823   4.303  0.5633 -1.3829 -0.7134
15734TIP3    H268618   1.401   0.777   4.413 -0.4708  1.3973  1.4596
15735TIP3   OH268619   6.176   1.800  13.203  0.8022  0.2995  0.3898
15735TIP3    H168620   6.199   1.863  13.271  1.1659 -0.9532  1.4614
15735TIP3    H268621   6.238   1.816  13.132  0.2437  1.8003  0.2131
15736TIP3   OH268622   6.076   2.633   3.778 -0.4628 -0.3608 -0.0970
15736TIP3    H168623   5.995   2.671   3.744 -1.7002 -1.1735  1.7690
15736TIP3    H268624   6.116   2.590   3.702 -1.8614 -0.0831 -1.0343
15737TIP3   OH268625   5.909   6.505   4.909 -0.2286  0.3972  0.0975
15737TIP3    H168626   5.821   6.504   4.946 -0.3714  1.4834 -0.1740
15737TIP3    H268627   5.896   6.511   4.815  0.0714  2.9454  0.1340
15738TIP3   OH268628   5.906   5.965  14.852 -0.5664 -0.4081 -0.7054
15738TIP3    H168629   5.968   5.928  14.914  1.6174  3.7384 -0.0725
15738TIP3    H268630   5.901   5.900  14.781  2.0549 -2.3246  0.6979
15739TIP3   OH268631   3.254   1.418  17.206  0.3177 -0.5208 -0.4141
15739TIP3    H168632   3.286   1.397  17.118  0.7842  1.0894 -0.6749
15739TIP3    H268633   3.241   1.334  17.249  0.9556 -1.3069 -1.7252
15740TIP3   OH268634   1.870   1.938   5.174 -0.7203 -0.1468  0.0273
15740TIP3    H168635   1.846   1.939   5.267 -0.4754  1.0530  0.0942
15740TIP3    H268636   1.966   1.942   5.174 -0.4380 -3.5015 -0.2565
15741TIP3   OH268637   3.703   5.416  13.905  0.5401  0.4446 -0.2963
15741TIP3    H168638   3.744   5.500  13.922  1.7500 -0.2189  0.1718
15741TIP3    H268639   3.745   5.355  13.966 -0.4410 -0.4677 -0.4835
15742TIP3   OH268640   3.045   0.908  13.272 -0.0528  0.1148 -0.1224
15742TIP3    H168641   2.959   0.942  13.296  0.2719 -0.6741  2.5361
15742TIP3    H268642   3.027   0.819  13.240 -0.1847 -0.9758  2.6389
15743TIP3   OH268643   2.710   5.166   0.143  0.5810 -0.5464 -0.8657
15743TIP3    H168644   2.703   5.093   0.204  1.1746 -1.5251 -1.9260
15743TIP3    H268645   2.687   5.129   0.058  3.2539 -0.1702 -1.8528
15744TIP3   OH268646   0.951   4.363   0.514 -0.2991  0.0518 -0.0053
15744TIP3    H168647   0.974   4.447   0.554  0.7417  0.6240 -1.6919
15744TIP3    H268648   0.864   4.377   0.478 -1.0712 -0.3400  1.6554
15745TIP3   OH268649   3.259   5.642   2.811  0.5130  0.0801 -0.1278
15745TIP3    H168650   3.207   5.699   2.754  1.3042  1.1175  0.1603
15745TIP3    H268651   3.211   5.643   2.894 -0.8286 -1.7082 -0.8201
15746TIP3   OH268652   3.790   1.751  13.174  0.2094  0.2014 -0.0113
15746TIP3    H168653   3.718   1.750  13.237  0.3535 -0.0358  0.1483
15746TIP3    H268654   3.772   1.678  13.115 -0.7816  1.3687 -1.2155
15747TIP3   OH268655   1.915   0.130  13.655  0.1127 -0.0156  0.1282
15747TIP3    H168656   1.982   0.181  13.701 -0.8877  1.2545  0.2551
15747TIP3    H268657   1.834   0.180  13.669 -1.3035 -2.5880  1.7602
15748TIP3   OH268658   5.291   1.881   5.429 -0.7357 -0.1551  0.0467
15748TIP3    H168659   5.258   1.798   5.463  1.0762 -0.7737  0.3574
15748TIP3    H268660   5.380   1.863   5.401  0.4032  2.0743  1.8253
15749TIP3   OH268661   2.870   3.586  11.555 -0.2610 -0.4638  0.4554
15749TIP3    H168662   2.869   3.490  11.563  2.0280 -0.5751  0.1860
15749TIP3    H268663   2.927   3.603  11.480 -0.7196  1.1178  0.4299
15750TIP3   OH268664   1.446   2.127  11.311  0.0381 -0.4686 -0.1147
15750TIP3    H168665   1.410   2.152  11.225 -0.5482 -0.1997  0.1990
15750TIP3    H268666   1.528   2.175  11.318  1.2899 -2.2347 -1.4888
15751TIP3   OH268667   4.292   2.126   0.864  0.1855 -0.2962 -0.0168
15751TIP3    H168668   4.332   2.212   0.875 -0.9784  0.4237 -1.1686
15751TIP3    H268669   4.233   2.117   0.938 -0.0645  0.1221 -0.1643
15752TIP3   OH268670   2.973   4.528   4.527  0.2255  0.6085 -0.5677
15752TIP3    H168671   2.919   4.594   4.484 -1.1604 -0.6869 -0.8669
15752TIP3    H268672   2.985   4.460   4.461  2.9060  1.1764 -0.7814
15753TIP3   OH268673   2.194   4.077  17.131 -0.3975 -0.0856 -0.3910
15753TIP3    H168674   2.243   4.010  17.178  0.4739  1.2479  0.6625
15753TIP3    H268675   2.105   4.041  17.124 -0.1546 -1.0027  0.8581
15754TIP3   OH268676   5.400   5.047  10.941  0.8077  0.1661  0.8123
15754TIP3    H168677   5.399   5.057  10.846  1.8389 -0.1677  0.7629
15754TIP3    H268678   5.309   5.063  10.968  0.6867  1.1792 -0.1314
15755TIP3   OH268679   6.733   0.727   1.581 -0.1240  0.3534 -0.9356
15755TIP3    H168680   6.790   0.781   1.525 -1.0406  1.9481 -0.4051
15755TIP3    H268681   6.791   0.660   1.617  1.4063  1.7999 -0.5595
15756TIP3   OH268682   0.993   5.267  10.348  0.0915 -0.0448 -0.7444
15756TIP3    H168683   1.069   5.250  10.404 -0.9115  2.2273  1.5167
15756TIP3    H268684   0.935   5.192  10.363  0.9796 -0.7845 -0.8999
15757TIP3   OH268685   5.942   6.338  13.116  0.2670 -0.5165 -0.2088
15757TIP3    H168686   5.985   6.282  13.051 -0.0179 -2.1922  0.9874
15757TIP3    H268687   5.879   6.281  13.159  0.2881  0.6081  1.3869
15758TIP3   OH268688   3.956   5.189   3.552  0.3925 -0.3060  0.0646
15758TIP3    H168689   4.041   5.147   3.538 -0.0405 -2.0135  2.0463
15758TIP3    H268690   3.958   5.219   3.643 -0.5406  1.1138 -0.3512
15759TIP3   OH268691   5.003   1.177   4.730 -0.2195  0.4773  0.0688
15759TIP3    H168692   4.970   1.266   4.724 -2.0487 -0.0604  1.2289
15759TIP3    H268693   4.953   1.138   4.803  0.0684 -1.6640 -0.8062
15760TIP3   OH268694   1.873   2.512   0.461  0.7051  0.5005  0.3285
15760TIP3    H168695   1.940   2.549   0.518  0.7500  0.1966  0.4763
15760TIP3    H268696   1.918   2.443   0.413  0.5047  0.3148  0.4071
15761TIP3   OH268697   3.088   1.772  13.340 -0.1922  0.2437 -0.3763
15761TIP3    H168698   3.077   1.704  13.407 -2.3141  0.6949 -0.2023
15761TIP3    H268699   3.145   1.731  13.274  2.0009 -0.2034  1.6425
15762TIP3   OH268700   6.315   6.661  14.668 -1.0268  0.1003 -0.1902
15762TIP3    H168701   6.358   6.634  14.749 -0.4168  0.5234 -0.3679
15762TIP3    H268702   6.233   6.610  14.666 -1.0047  0.0222  0.6405
15763TIP3   OH268703   2.562   6.443  12.604 -0.2674  0.1846 -0.4823
15763TIP3    H168704   2.617   6.471  12.531 -1.0799  0.8937 -0.8322
15763TIP3    H268705   2.500   6.382  12.566 -0.1718 -0.0798 -0.2183
15764TIP3   OH268706   4.628   0.279  14.600  0.3954  0.0728  0.2208
15764TIP3    H168707   4.640   0.365  14.640  1.5031 -0.4331  1.0519
15764TIP3    H268708   4.716   0.242  14.598  0.0424 -0.7496 -0.8197
15765TIP3   OH268709   5.884   0.575   3.955  0.0422 -0.0698 -0.5408
15765TIP3    H168710   5.923   0.537   4.033 -0.7353  0.4572  0.1261
15765TIP3    H268711   5.844   0.500   3.910 -1.0419 -0.1500  0.4969
15766TIP3   OH268712   5.406   4.467  13.321 -0.3492 -0.1016  0.1827
15766TIP3    H168713   5.441   4.393  13.372  0.1785 -0.9408 -1.3263
15766TIP3    H268714   5.311   4.452  13.319 -0.1446 -1.4723 -1.1318
15767TIP3   OH268715   4.504   0.568  16.173 -0.1351 -0.1852 -0.1156
15767TIP3    H168716   4.508   0.618  16.091  0.6321 -0.7140 -0.4093
15767TIP3    H268717   4.495   0.477  16.145 -0.5137 -0.3108  0.4051
15768TIP3   OH268718   1.903   3.482   4.854 -0.3684 -0.1773  0.1751
15768TIP3    H168719   1.844   3.552   4.825  1.4086  1.0983 -0.6008
15768TIP3    H268720   1.984   3.528   4.875  0.5484 -1.9250  0.6175
15769TIP3   OH268721   4.166   3.597   1.601  0.0084  0.3094 -0.3585
15769TIP3    H168722   4.131   3.546   1.527  0.6350 -0.4549 -0.1335
15769TIP3    H268723   4.127   3.683   1.590 -0.3619  0.0421 -1.2637
15770TIP3   OH268724   1.220   5.575   2.584 -0.3173 -0.2970 -0.0910
15770TIP3    H168725   1.193   5.484   2.601  1.6228 -1.2840 -1.8780
15770TIP3    H268726   1.291   5.567   2.521  0.8324  2.4267  0.7493
15771TIP3   OH268727   0.787   4.868   3.708  0.7118  0.1787 -0.0483
15771TIP3    H168728   0.808   4.955   3.744 -1.4204  0.3742  0.8156
15771TIP3    H268729   0.732   4.887   3.632  1.4834 -0.4009 -0.7685
15772TIP3   OH268730   5.029   1.780  16.855 -0.3599  0.7342 -0.7927
15772TIP3    H168731   5.003   1.689  16.872  0.2490  0.5372 -0.8922
15772TIP3    H268732   5.062   1.779  16.765 -0.3200  1.0473 -0.7831
15773TIP3   OH268733   3.132   3.758  17.049  0.4031 -0.2170 -0.3057
15773TIP3    H168734   3.073   3.813  16.998  0.0701 -0.5397 -0.2664
15773TIP3    H268735   3.113   3.669  17.021  0.2123 -0.3976  0.3832
15774TIP3   OH268736   1.614   4.219   4.072  0.1128 -0.3685  0.1333
15774TIP3    H168737   1.694   4.262   4.043 -0.5322  3.1225  2.7522
15774TIP3    H268738   1.634   4.186   4.160 -1.2869  0.8542  0.9706
15775TIP3   OH268739   2.706   3.625   0.756  0.3437  0.2380  0.5041
15775TIP3    H168740   2.675   3.541   0.790 -0.7978  0.5131  0.1947
15775TIP3    H268741   2.801   3.617   0.756  0.3190 -2.5134 -3.1253
15776TIP3   OH268742   0.231   0.203  14.409 -0.1153 -0.3052 -0.2683
15776TIP3    H168743   0.141   0.186  14.436  0.3391 -1.0199  0.8514
15776TIP3    H268744   0.234   0.298  14.395 -0.5160  0.0859  1.8532
15777TIP3   OH268745   3.051   0.802  16.065  0.2555  0.2078 -0.3467
15777TIP3    H168746   3.104   0.857  16.007  0.0865  0.1127 -0.5937
15777TIP3    H268747   3.046   0.718  16.020 -0.4338  0.3349 -0.5208
15778TIP3   OH268748   3.724   6.268   1.303  0.0575 -0.3954 -0.2765
15778TIP3    H168749   3.673   6.232   1.375  0.6234 -3.5022 -1.2538
15778TIP3    H268750   3.696   6.217   1.227  1.8194  0.5024 -1.5921
15779TIP3   OH268751   1.226   3.201  13.514 -0.3317  0.3981 -0.7059
15779TIP3    H168752   1.180   3.123  13.483 -2.1493  0.5513  1.4124
15779TIP3    H268753   1.304   3.168  13.557 -1.0548 -0.2867  0.1143
15780TIP3   OH268754   1.596   4.845  13.091 -0.1406  0.6457  0.5187
15780TIP3    H168755   1.643   4.919  13.130  0.2086  1.0995 -0.7208
15780TIP3    H268756   1.665   4.782  13.070 -0.3369  0.3579  0.7346
15781TIP3   OH268757   2.091   6.307  13.086 -0.6132  0.3150  0.4734
15781TIP3    H168758   2.149   6.366  13.135  0.5796  0.6570 -1.2459
15781TIP3    H268759   2.144   6.229  13.070  0.0357  1.2604 -2.4899
15782TIP3   OH268760   1.580   4.593  13.663 -0.3180 -0.4012 -0.1286
15782TIP3    H168761   1.637   4.594  13.587  1.8383  1.6981  1.3580
15782TIP3    H268762   1.557   4.684  13.677 -0.9911 -0.7768  1.4691
15783TIP3   OH268763   0.574   0.941  15.799  0.5527 -0.4371  0.1236
15783TIP3    H168764   0.523   1.018  15.773 -1.2703 -1.5916  0.0850
15783TIP3    H268765   0.573   0.945  15.895 -0.6795 -1.0739  0.1593
15784TIP3   OH268766   6.023   3.815   6.021  0.0963  0.4683  0.6567
15784TIP3    H168767   5.935   3.787   6.048  0.1941 -0.3900  0.1287
15784TIP3    H268768   6.023   3.910   6.034 -0.7769  0.4313  1.0245
15785TIP3   OH268769   1.972   6.077   5.193  0.1001 -0.2132 -0.3458
15785TIP3    H168770   1.951   6.137   5.122  1.4575 -0.1265 -0.7106
15785TIP3    H268771   1.992   5.994   5.149  3.1607  0.4001 -0.3769
15786TIP3   OH268772   2.878   4.174   4.158 -0.2498  0.2816 -0.6656
15786TIP3    H168773   2.858   4.081   4.166  1.9274 -0.3235 -1.6855
15786TIP3    H268774   2.956   4.187   4.211  0.8212  1.0228 -2.3597
15787TIP3   OH268775   3.028   0.752  16.557 -0.3953 -0.0201  0.4678
15787TIP3    H168776   2.945   0.769  16.601 -0.8028 -1.9987  0.5929
15787TIP3    H268777   3.004   0.731  16.467 -0.3187 -2.5671  0.9641
15788TIP3   OH268778   5.600   2.085   4.102 -0.2087 -0.0068 -0.3983
15788TIP3    H168779   5.648   2.032   4.165  0.4106  0.7427 -0.2247
15788TIP3    H268780   5.588   2.028   4.027  2.7185  0.3535 -1.2571
15789TIP3   OH268781   1.123   1.854  16.135 -0.7217 -0.4008  0.0470
15789TIP3    H168782   1.132   1.926  16.072 -0.0057  0.2389  0.8580
15789TIP3    H268783   1.208   1.851  16.180 -1.1263 -1.0295  0.7935
15790TIP3   OH268784   6.572   1.507   0.377  0.7306  0.1636 -0.1222
15790TIP3    H168785   6.503   1.511   0.444  1.5986 -1.0240  0.8926
15790TIP3    H268786   6.533   1.548   0.300 -0.3370  1.5206  1.0799
15791TIP3   OH268787   5.873   0.979   1.186 -0.1469 -0.1623 -0.1934
15791TIP3    H168788   5.781   0.963   1.169 -0.1516 -0.3885  0.0331
15791TIP3    H268789   5.891   1.065   1.147 -1.1846  1.3392  2.4160
15792TIP3   OH268790   6.452   0.935  11.698 -0.0752  0.3589 -0.0429
15792TIP3    H168791   6.518   0.950  11.630 -0.5220  1.7159 -0.2123
15792TIP3    H268792   6.400   0.862  11.666 -0.1841  0.8745 -1.1048
15793TIP3   OH268793   0.681   0.334   5.169  0.6460  0.2289  0.0281
15793TIP3    H168794   0.635   0.397   5.114 -1.9758 -0.1193  1.6115
15793TIP3    H268795   0.770   0.331   5.134  0.2782  3.1354 -1.4464
15794TIP3   OH268796   4.990   6.513  15.771 -0.2371  0.3384  0.0268
15794TIP3    H168797   5.079   6.477  15.770 -0.0426  0.8343 -0.8352
15794TIP3    H268798   4.982   6.562  15.689 -0.5477  2.1713  1.1063
15795TIP3   OH268799   0.190   3.078  13.403 -0.5594  0.1260 -0.5746
15795TIP3    H168800   0.197   3.150  13.340 -1.7778  0.7530 -0.0229
15795TIP3    H268801   0.101   3.045  13.391 -0.0090 -1.3066 -0.8199
15796TIP3   OH268802   4.832   6.240   1.751 -0.4216  0.2375 -0.6370
15796TIP3    H168803   4.803   6.207   1.666  1.6517  1.2910 -1.8494
15796TIP3    H268804   4.818   6.335   1.746 -0.7061  0.2668  0.4091
15797TIP3   OH268805   2.269   0.762   4.858  0.0051 -0.5838  0.1387
15797TIP3    H168806   2.314   0.695   4.909  0.7570 -0.3203 -0.1714
15797TIP3    H268807   2.336   0.799   4.800 -0.7960 -0.7720 -0.9431
15798TIP3   OH268808   0.804   2.023  17.104 -0.6783 -0.3175 -0.4603
15798TIP3    H168809   0.847   2.108  17.097  1.1850 -1.1886 -0.0595
15798TIP3    H268810   0.774   2.004  17.015 -2.2351  1.2558 -0.3429
15799TIP3   OH268811   5.415   0.530   4.008 -0.2098  0.2719 -0.2659
15799TIP3    H168812   5.326   0.566   4.005 -0.3177  0.1471  0.9518
15799TIP3    H268813   5.429   0.508   4.100  0.2551 -1.8013 -0.7882
15800TIP3   OH268814   4.982   1.357  16.483  0.0577  0.1460 -0.2048
15800TIP3    H168815   5.023   1.272  16.463 -0.3866 -0.1873  0.2818
15800TIP3    H268816   4.936   1.380  16.403 -1.2608 -0.9210  0.1970
15801TIP3   OH268817   4.857   4.307   0.149  0.3405 -0.4048  0.0161
15801TIP3    H168818   4.950   4.306   0.127  0.0744 -1.1520 -1.1811
15801TIP3    H268819   4.830   4.215   0.147 -0.3023 -0.2560  0.9491
15802TIP3   OH268820   6.012   4.042  11.002 -0.1684 -0.0099  0.1397
15802TIP3    H168821   6.084   4.105  11.004  0.7713 -1.0520  0.1088
15802TIP3    H268822   6.010   4.010  10.912 -0.6455 -0.0226  0.1522
15803TIP3   OH268823   6.606   5.704  14.537 -0.4309  0.3986  0.1243
15803TIP3    H168824   6.533   5.642  14.544 -0.6069  0.5481 -0.3680
15803TIP3    H268825   6.591   5.766  14.608  0.4294 -0.8161  1.4272
15804TIP3   OH268826   1.791   0.510  14.572 -0.2893 -0.3851  0.1091
15804TIP3    H168827   1.799   0.449  14.645 -2.5860 -0.9900 -0.0840
15804TIP3    H268828   1.701   0.500  14.541  0.3135  0.5480 -2.2024
15805TIP3   OH268829   6.047   4.712  16.848 -0.7408 -0.1861  0.0192
15805TIP3    H168830   6.008   4.630  16.877 -1.8301 -0.2540 -1.5719
15805TIP3    H268831   6.132   4.686  16.811 -0.4401 -0.3920  0.8217
15806TIP3   OH268832   0.188   3.913  15.118 -0.1027  0.2573 -0.0035
15806TIP3    H168833   0.259   3.924  15.055  0.0716 -1.1607 -0.0968
15806TIP3    H268834   0.221   3.847  15.180 -1.6215 -1.0646 -0.5324
15807TIP3   OH268835   3.480   6.287  11.671 -0.4693 -0.0111  0.1634
15807TIP3    H168836   3.511   6.334  11.748  0.5339  1.5206 -1.1371
15807TIP3    H268837   3.506   6.341  11.597 -1.8685 -1.1822 -1.2515
15808TIP3   OH268838   3.330   6.645   3.700 -0.5623  0.2883  0.7532
15808TIP3    H168839   3.252   6.655   3.755 -0.4138  1.0041  0.8450
15808TIP3    H268840   3.383   6.723   3.720  0.8989 -0.9132  1.8552
15809TIP3   OH268841   5.939   4.145   5.491  0.1565 -0.3380 -0.1956
15809TIP3    H168842   5.942   4.054   5.463  0.8011 -0.4505  0.2181
15809TIP3    H268843   5.851   4.155   5.530  0.2268 -0.8951  0.1178
15810TIP3   OH268844   5.025   3.955  12.966  0.4348 -0.1733  0.1163
15810TIP3    H168845   5.117   3.969  12.989 -0.0035 -0.6574  2.4462
15810TIP3    H268846   4.982   4.039  12.985  0.1336 -0.4419  0.6493
15811TIP3   OH268847   3.377   4.498   1.647 -0.3659  0.7261  0.5730
15811TIP3    H168848   3.284   4.516   1.637 -0.6104  0.2182  1.7740
15811TIP3    H268849   3.383   4.403   1.652  0.1845  0.7656  0.7972
15812TIP3   OH268850   5.746   3.399   3.015 -0.2232  0.0344 -0.0599
15812TIP3    H168851   5.807   3.325   3.006  0.4150  0.3249  1.5968
15812TIP3    H268852   5.777   3.447   3.091 -3.2634 -0.5169  1.7027
15813TIP3   OH268853   3.921   3.238  12.869 -0.1226 -0.0270 -0.0275
15813TIP3    H168854   3.978   3.285  12.929  1.0593 -1.7227  0.2465
15813TIP3    H268855   3.962   3.250  12.783 -0.1365 -0.0800 -0.0416
15814TIP3   OH268856   1.050   5.231  14.579 -0.3908  0.3241 -0.2230
15814TIP3    H168857   1.046   5.247  14.673  0.3710  1.7315 -0.3933
15814TIP3    H268858   1.007   5.146  14.567 -1.2505  0.4984  1.2847
15815TIP3   OH268859   1.832   6.505   1.973  0.4313  0.1106 -0.4287
15815TIP3    H168860   1.857   6.598   1.967  0.9175 -0.0830 -1.6966
15815TIP3    H268861   1.791   6.485   1.889 -0.9338 -0.4889  0.3480
15816TIP3   OH268862   0.595   3.337  10.836 -0.0424 -0.5053  0.1226
15816TIP3    H168863   0.638   3.337  10.751  2.5484  0.9975  1.2816
15816TIP3    H268864   0.553   3.423  10.842  1.2716  0.1124  0.9679
15817TIP3   OH268865   6.248   1.647   5.077 -0.1928 -0.2042  0.3968
15817TIP3    H168866   6.312   1.611   5.139 -1.6398  0.2309  2.2488
15817TIP3    H268867   6.198   1.571   5.047  0.5422 -0.4231 -0.3030
15818TIP3   OH268868   5.029   4.408  16.288 -0.1579 -0.4024 -0.1363
15818TIP3    H168869   4.956   4.378  16.343 -0.0085 -0.6714 -0.0809
15818TIP3    H268870   5.026   4.504  16.294  0.0866 -0.4368  0.6516
15819TIP3   OH268871   1.776   0.872   2.961  0.1579 -0.0406  0.4236
15819TIP3    H168872   1.834   0.947   2.951  1.6684 -1.4223 -2.9851
15819TIP3    H268873   1.834   0.800   2.984 -0.7930 -0.7359  0.7203
15820TIP3   OH268874   0.671   2.792   5.361  0.3789  0.0158 -0.5695
15820TIP3    H168875   0.635   2.870   5.404  1.6544  0.3097  0.0157
15820TIP3    H268876   0.686   2.730   5.431  0.6341 -0.2493 -0.8556
15821TIP3   OH268877   3.538   6.470  11.454 -0.1208  0.0486 -0.0136
15821TIP3    H168878   3.631   6.495  11.452  0.2096 -1.1313 -1.3262
15821TIP3    H268879   3.516   6.454  11.363 -1.1682 -1.2474  0.4341
15822TIP3   OH268880   5.106   1.326   2.732  0.3486  0.1393  0.0900
15822TIP3    H168881   5.151   1.301   2.651 -0.6037 -0.2620 -0.3273
15822TIP3    H268882   5.058   1.405   2.710  0.3709  0.2318  0.3683
15823TIP3   OH268883   1.766   0.439   2.092 -0.0120  0.5458 -0.4820
15823TIP3    H168884   1.702   0.452   2.161 -1.1704  0.3528 -1.4871
15823TIP3    H268885   1.767   0.522   2.044  1.7164  1.1306  0.4780
15824TIP3   OH268886   4.047   0.360   5.615 -0.0618 -0.5980  0.0259
15824TIP3    H168887   4.026   0.309   5.693  0.6950 -0.6510  0.2068
15824TIP3    H268888   4.138   0.386   5.627 -0.3256  0.5051 -0.2338
15825TIP3   OH268889   4.219   2.237  16.085 -0.1267  0.1979 -0.0979
15825TIP3    H168890   4.225   2.278  15.999  0.4016  0.7444  0.1986
15825TIP3    H268891   4.308   2.209  16.106 -0.0985  0.8008  0.6253
15826TIP3   OH268892   0.655   6.634   5.867  0.2221 -0.5829 -0.0466
15826TIP3    H168893   0.715   6.576   5.821  1.6493 -0.0662  1.0873
15826TIP3    H268894   0.568   6.609   5.834  0.7657 -3.2763  0.2881
15827TIP3   OH268895   3.912   1.076  13.238  0.3347 -0.2711  0.0136
15827TIP3    H168896   4.005   1.083  13.215 -0.1014 -2.9496 -3.1387
15827TIP3    H268897   3.866   1.094  13.157 -2.2141  3.2985  1.9596
15828TIP3   OH268898   2.239   4.974   5.620  0.5384  0.0491  0.5225
15828TIP3    H168899   2.335   4.972   5.616  0.5338  0.3714 -2.2006
15828TIP3    H268900   2.218   5.063   5.648  1.0367  0.0293  0.9697
15829TIP3   OH268901   0.941   4.442  17.157  0.4041  0.0646 -0.1937
15829TIP3    H168902   0.944   4.394  17.240  1.2610  1.7897  0.8520
15829TIP3    H268903   1.014   4.407  17.106  1.6391  0.8603  0.9486
15830TIP3   OH268904   4.598   0.808   2.909 -0.3169  0.3092 -0.0911
15830TIP3    H168905   4.523   0.824   2.852  0.6165  1.2260 -1.1105
15830TIP3    H268906   4.602   0.712   2.916 -0.5092  0.1625 -1.5285
15831TIP3   OH268907   0.562   4.947  14.609  0.1817  0.8238 -0.5270
15831TIP3    H168908   0.580   4.885  14.538 -0.3840  0.8757 -0.7210
15831TIP3    H268909   0.595   4.903  14.687 -0.1672  0.2894 -0.6718
15832TIP3   OH268910   3.668   6.755   3.861  0.1559  0.0356 -0.4175
15832TIP3    H168911   3.685   6.660   3.864 -1.8372 -0.3332  1.1934
15832TIP3    H268912   3.718   6.785   3.785  0.0516 -2.4692 -1.5915
15833TIP3   OH268913   2.280   5.542   2.166 -0.3075 -0.3505  0.7825
15833TIP3    H168914   2.258   5.631   2.139  0.6985 -0.4611 -0.4667
15833TIP3    H268915   2.195   5.499   2.178 -0.7904  0.2927 -0.2432
15834TIP3   OH268916   0.138   2.996   2.634  0.0917  0.2369  0.1305
15834TIP3    H168917   0.068   3.048   2.597  1.2726  1.9735  0.2308
15834TIP3    H268918   0.106   2.906   2.630 -1.0000  0.6600 -2.3647
15835TIP3   OH268919   1.605   3.982  14.707  0.6816  0.3041  0.5729
15835TIP3    H168920   1.617   4.063  14.756  0.5286  1.3669 -1.0613
15835TIP3    H268921   1.694   3.949  14.693  0.6883 -0.6257  2.4424
15836TIP3   OH268922   0.230   3.506   4.541  0.1582 -0.7079  0.4990
15836TIP3    H168923   0.279   3.463   4.612 -0.2418 -0.5075  0.8998
15836TIP3    H268924   0.200   3.589   4.579 -1.1000 -1.1449  0.4862
15837TIP3   OH268925   3.638   2.894   1.659  0.2943  0.2244 -0.2782
15837TIP3    H168926   3.677   2.975   1.692  2.2450 -1.0603  0.7071
15837TIP3    H268927   3.613   2.845   1.737  0.1911 -0.6124 -0.8200
15838TIP3   OH268928   2.453   2.375  16.322  0.0459 -0.0463 -0.0235
15838TIP3    H168929   2.473   2.431  16.396  0.8375  1.7852 -1.5380
15838TIP3    H268930   2.526   2.314  16.316 -0.9623 -1.5315  1.8139
15839TIP3   OH268931   1.136   4.013  17.025  0.6313 -0.3091 -0.2395
15839TIP3    H168932   1.144   3.945  16.958 -2.4668  0.7202 -1.8120
15839TIP3    H268933   1.060   3.987  17.077 -1.2713  2.2757 -1.4837
15840TIP3   OH268934   0.432   2.065   0.165 -0.3295 -0.0867 -0.4936
15840TIP3    H168935   0.478   2.008   0.103 -1.4490 -0.7669 -0.7166
15840TIP3    H268936   0.400   2.137   0.111 -1.3205 -0.6885 -0.7219
15841TIP3   OH268937   5.307   4.100   4.210 -0.5198 -0.2009 -0.0087
15841TIP3    H168938   5.399   4.108   4.186 -0.6115 -0.2792 -0.3916
15841TIP3    H268939   5.301   4.016   4.254 -0.4694 -0.3504 -0.2830
15842TIP3   OH268940   1.441   1.590   3.460 -0.7417  0.3401  0.5917
15842TIP3    H168941   1.505   1.613   3.527  0.8386  0.2265 -0.7886
15842TIP3    H268942   1.491   1.595   3.378 -2.8759  1.6955 -0.7198
15843TIP3   OH268943   0.272   4.290  15.600  0.2813  0.0179  0.2036
15843TIP3    H168944   0.366   4.274  15.608  0.5780  2.3891  3.5501
15843TIP3    H268945   0.231   4.204  15.614  1.8523 -1.2300 -2.2368
15844TIP3   OH268946   1.991   6.001  11.635  0.0730 -0.6019  0.1173
15844TIP3    H168947   2.020   6.082  11.594  2.0617 -0.3665  1.8123
15844TIP3    H268948   1.976   5.941  11.562  1.1828  0.4898 -1.0583
15845TIP3   OH268949   2.719   3.056  16.232  0.3445  0.2671  0.0755
15845TIP3    H168950   2.639   3.044  16.284  1.0459  0.9372  1.3708
15845TIP3    H268951   2.745   3.146  16.249  1.1249  0.1987 -0.7070
15846TIP3   OH268952   5.084   4.199  14.847  0.1245  0.3241 -0.4562
15846TIP3    H168953   4.991   4.188  14.863  0.1106  1.4816  0.4223
15846TIP3    H268954   5.122   4.112  14.858 -0.7073  0.0452  0.2664
15847TIP3   OH268955   1.427   5.649  11.241  0.0102 -0.0275  0.3569
15847TIP3    H168956   1.338   5.646  11.207 -0.2583 -0.4761  1.0729
15847TIP3    H268957   1.450   5.742  11.240  0.3015 -0.0818 -1.7134
15848TIP3   OH268958   1.315   6.402   5.294  0.7785 -0.4921  0.5289
15848TIP3    H168959   1.402   6.364   5.290  0.5102 -1.1265  0.6874
15848TIP3    H268960   1.313   6.451   5.376  1.1682 -0.0072  0.2566
15849TIP3   OH268961   5.906   3.304   2.708  0.2509 -0.0423 -0.1926
15849TIP3    H168962   5.998   3.289   2.684 -0.0651  1.1276 -2.3298
15849TIP3    H268963   5.910   3.377   2.770  0.7719 -0.0117 -0.2514
15850TIP3   OH268964   2.418   6.274  15.914 -0.1807  0.1713 -0.1901
15850TIP3    H168965   2.503   6.240  15.940 -0.3047 -0.7164 -0.8897
15850TIP3    H268966   2.359   6.250  15.986 -0.0307 -0.0724 -0.1486
15851TIP3   OH268967   6.416   5.806   1.664  0.4062  0.0442  0.4314
15851TIP3    H168968   6.398   5.750   1.588  0.9969  0.4423 -0.0116
15851TIP3    H268969   6.508   5.828   1.655  0.3638  0.4685  1.0267
15852TIP3   OH268970   0.428   2.959   5.905  0.3575 -0.5628  0.2082
15852TIP3    H168971   0.393   3.034   5.856 -0.9433 -0.7357  0.8443
15852TIP3    H268972   0.394   2.882   5.860  0.5614 -0.7542  0.3773
15853TIP3   OH268973   4.036   0.297  13.117  0.7938 -0.8308 -0.2828
15853TIP3    H168974   4.091   0.366  13.153  1.3366 -1.2001 -0.3886
15853TIP3    H268975   4.098   0.228  13.092  0.3450 -0.9923 -0.9878
15854TIP3   OH268976   2.532   1.774   5.712  0.1170 -0.3366 -0.5173
15854TIP3    H168977   2.459   1.749   5.769  0.5005 -0.8581 -0.2449
15854TIP3    H268978   2.514   1.729   5.629 -0.3962  0.3528 -0.7840
15855TIP3   OH268979   4.715   2.907  12.597  0.0183 -0.1766  0.6893
15855TIP3    H168980   4.647   2.897  12.662 -0.3154  0.7704  0.4996
15855TIP3    H268981   4.797   2.909  12.647  0.0782 -2.6816  0.8255
15856TIP3   OH268982   2.300   2.647   3.058  0.1352 -0.2809 -0.1049
15856TIP3    H168983   2.371   2.635   3.121  0.4023  0.6365 -0.2063
15856TIP3    H268984   2.343   2.684   2.981 -0.3754 -0.1754 -0.3405
15857TIP3   OH268985   2.894   1.618  12.532  0.0656  0.1757  0.2049
15857TIP3    H168986   2.832   1.571  12.588  1.1267  1.4330  2.5876
15857TIP3    H268987   2.976   1.569  12.540  0.7424  1.4147  1.4026
15858TIP3   OH268988   4.412   4.205  12.754 -0.0127 -0.1245  0.2856
15858TIP3    H168989   4.453   4.162  12.829 -2.4395 -0.6536  1.4326
15858TIP3    H268990   4.401   4.296  12.782 -0.7761 -0.2865  0.5373
15859TIP3   OH268991   2.854   0.844  12.934  0.0819 -0.3648 -0.0519
15859TIP3    H168992   2.835   0.750  12.932 -1.5127 -0.0621 -0.5323
15859TIP3    H268993   2.769   0.885  12.950  0.9541  0.9571  1.4040
15860TIP3   OH268994   5.500   1.981  16.051  0.6535 -0.6807 -0.3002
15860TIP3    H168995   5.582   1.932  16.051  0.9297 -0.2521 -1.4516
15860TIP3    H268996   5.500   2.029  15.968 -0.2872  0.1307  0.1384
15861TIP3   OH268997   2.513   5.533  14.744  0.7157 -0.0834 -0.2289
15861TIP3    H168998   2.566   5.574  14.813  0.7298 -0.0054 -0.2865
15861TIP3    H268999   2.535   5.440  14.750  1.6981  0.0857 -0.9854
15862TIP3   OH269000   4.964   3.261  11.851 -0.2320  0.0067 -0.4214
15862TIP3    H169001   4.950   3.181  11.800  0.3033  0.0988 -0.7188
15862TIP3    H269002   5.033   3.308  11.804  1.1562 -0.4782  1.0171
15863TIP3   OH269003   4.353   1.667   0.166 -0.4066 -0.0477 -0.1869
15863TIP3    H169004   4.350   1.757   0.135 -0.1646 -0.0967 -0.3522
15863TIP3    H269005   4.446   1.650   0.183 -0.3336 -0.5773 -1.0615
15864TIP3   OH269006   3.934   1.926   1.319 -0.0435 -0.4593  0.6672
15864TIP3    H169007   3.858   1.946   1.263 -2.0858 -2.9543  2.2791
15864TIP3    H269008   3.922   1.981   1.396  1.3359  1.0840 -0.1728
15865TIP3   OH269009   3.648   1.274  16.732  0.1702  0.1679 -0.2818
15865TIP3    H169010   3.598   1.193  16.728  0.7185 -0.1096 -1.9995
15865TIP3    H269011   3.585   1.343  16.709  0.2281 -0.0172 -0.9942
15866TIP3   OH269012   5.536   6.110   3.310 -0.1725 -0.7536  0.1454
15866TIP3    H169013   5.484   6.190   3.316  1.1418  0.1904 -0.4916
15866TIP3    H269014   5.474   6.043   3.282 -1.2115  0.1440  0.2444
15867TIP3   OH269015   6.039   5.620  11.998  0.1042  1.0134  0.5588
15867TIP3    H169016   6.116   5.668  11.966  0.6288  0.1195  0.4525
15867TIP3    H269017   5.967   5.651  11.943  0.7076  0.6341 -0.4884
15868TIP3   OH269018   0.840   0.680   3.344 -0.0532 -0.1430 -0.5822
15868TIP3    H169019   0.911   0.617   3.330  0.6467 -0.2778  2.7124
15868TIP3    H269020   0.873   0.762   3.308  0.8434 -0.7159 -1.1151
15869TIP3   OH269021   6.006   5.209  14.376  0.0404  0.6002 -0.0117
15869TIP3    H169022   5.931   5.179  14.428 -0.0688  1.6995  0.4845
15869TIP3    H269023   6.030   5.133  14.323 -1.0506  0.0512  0.2566
15870TIP3   OH269024   0.272   3.811   1.922 -0.3431  0.1615  0.1898
15870TIP3    H169025   0.294   3.859   1.842  0.0215  1.8288  1.2413
15870TIP3    H269026   0.356   3.795   1.964 -0.5158 -0.8986  0.1505
15871TIP3   OH269027   0.324   0.696   4.105 -0.4569  0.0090 -0.2366
15871TIP3    H169028   0.341   0.790   4.114 -0.3331 -0.0814  0.5597
15871TIP3    H269029   0.230   0.687   4.117 -0.4311  0.0072 -0.0207
15872TIP3   OH269030   6.333   3.234   1.769 -0.0597 -0.2978 -0.0202
15872TIP3    H169031   6.315   3.142   1.747  1.3154 -0.1270 -2.2243
15872TIP3    H269032   6.424   3.233   1.798 -0.9893 -0.0433  3.2596
15873TIP3   OH269033   5.235   1.784  12.636 -0.3343  0.1903 -0.5092
15873TIP3    H169034   5.166   1.792  12.570 -0.9325 -0.5458  0.0028
15873TIP3    H269035   5.227   1.693  12.667  1.3410 -0.1395 -0.9550
15874TIP3   OH269036   2.163   5.035  13.844  0.2539 -0.0404  0.6423
15874TIP3    H169037   2.142   5.120  13.805  0.1187 -0.8749 -1.2378
15874TIP3    H269038   2.183   4.978  13.769 -0.0480 -1.7738  1.8020
15875TIP3   OH269039   5.386   5.947  16.250  0.1663  0.3483 -0.2455
15875TIP3    H169040   5.428   6.027  16.217 -0.1399  1.4569  1.8551
15875TIP3    H269041   5.451   5.878  16.236  1.0938  1.2800 -0.6483
15876TIP3   OH269042   4.075   5.052   4.021  0.3437 -0.1527  0.5255
15876TIP3    H169043   4.141   4.994   4.061  0.1069 -0.5223  0.3901
15876TIP3    H269044   4.068   5.020   3.930 -0.1926 -0.2707  0.6047
15877TIP3   OH269045   3.820   0.133   4.413  0.1140 -0.1979 -0.4790
15877TIP3    H169046   3.818   0.115   4.319  0.1620  2.0013 -0.9376
15877TIP3    H269047   3.736   0.172   4.432 -0.4641 -1.8888  0.7329
15878TIP3   OH269048   0.448   0.397  14.715 -0.0544  0.2272  0.2296
15878TIP3    H169049   0.527   0.391  14.662  0.8346  1.2237  1.3789
15878TIP3    H269050   0.407   0.479  14.690 -0.0498  0.3157  0.5008
15879TIP3   OH269051   0.868   2.708  14.439  0.2017 -0.4105 -0.3516
15879TIP3    H169052   0.813   2.630  14.433  1.5767 -1.4372 -0.2631
15879TIP3    H269053   0.901   2.722  14.351  0.8586 -0.6384 -0.1523
15880TIP3   OH269054   1.900   0.459  17.242  0.1236 -0.0688  0.1642
15880TIP3    H169055   1.887   0.417  17.327  0.5380  1.1478  0.8345
15880TIP3    H269056   1.963   0.402  17.197  1.4634  0.3268  1.4515
15881TIP3   OH269057   0.920   2.336   5.441 -0.3995  0.3714  0.6200
15881TIP3    H169058   0.995   2.373   5.487 -0.5021  0.4967  0.6883
15881TIP3    H269059   0.946   2.246   5.422 -0.1226  0.4972  0.3967
15882TIP3   OH269060   6.773   4.929   3.875 -0.1384  0.1736 -0.4050
15882TIP3    H169061   6.786   4.908   3.968 -2.2535 -0.0078 -0.1017
15882TIP3    H269062   6.835   5.000   3.858  1.4789 -0.9086  0.6769
15883TIP3   OH269063   5.995   3.507   3.581  0.1675 -0.0683  0.0522
15883TIP3    H169064   6.033   3.561   3.650 -0.3435  0.5387 -0.1281
15883TIP3    H269065   6.018   3.553   3.500 -1.5746  0.7433 -0.0254
15884TIP3   OH269066   4.592   5.189   5.016 -0.3462 -0.5423  0.5632
15884TIP3    H169067   4.505   5.229   5.020 -0.3739 -0.4061 -0.8792
15884TIP3    H269068   4.585   5.121   4.948  0.5430 -0.8620  0.7680
15885TIP3   OH269069   5.397   0.703   2.118  0.2904  0.5509  0.4122
15885TIP3    H169070   5.378   0.682   2.209  0.6625 -0.8778  0.1795
15885TIP3    H269071   5.467   0.769   2.123 -0.8281  1.7235  1.1562
15886TIP3   OH269072   0.049   1.472  17.043  0.0675  0.7997  0.1824
15886TIP3    H169073  -0.038   1.444  17.017  0.3059  0.3610 -0.1530
15886TIP3    H269074   0.054   1.451  17.136  0.1537 -0.0620 -0.0095
15887TIP3   OH269075   0.500   3.700   1.611 -0.2370  0.0637  0.4359
15887TIP3    H169076   0.564   3.667   1.674 -0.6450 -1.0805  0.2771
15887TIP3    H269077   0.514   3.647   1.533 -1.4653 -0.3200  0.4479
15888TIP3   OH269078   2.705   4.358   1.489 -0.3047  0.4358  0.1325
15888TIP3    H169079   2.673   4.418   1.421 -1.1823 -0.5246 -0.3448
15888TIP3    H269080   2.797   4.345   1.469 -0.2875  1.0551 -0.1998
15889TIP3   OH269081   1.515   2.278  14.051  0.2360  0.6039  0.0952
15889TIP3    H169082   1.467   2.316  14.125  1.3024  1.6322  0.2864
15889TIP3    H269083   1.474   2.193  14.037 -0.8243  0.9387  1.0426
15890TIP3   OH269084   0.997   2.055   4.227  0.0339  0.5059 -0.1184
15890TIP3    H169085   0.936   2.051   4.301 -1.3915 -1.6510 -1.3226
15890TIP3    H269086   0.941   2.047   4.150  1.8394 -3.0130 -1.2467
15891TIP3   OH269087   5.000   4.320   3.357 -0.4960  0.2059  0.7466
15891TIP3    H169088   4.978   4.366   3.438  0.3246  1.3195  0.3615
15891TIP3    H269089   5.083   4.359   3.329 -1.0936  0.3234 -0.9853
15892TIP3   OH269090   4.594   4.138  12.942  0.6269  0.1092  0.5340
15892TIP3    H169091   4.583   4.070  13.009  0.1381 -0.2082  0.1350
15892TIP3    H269092   4.600   4.220  12.992 -1.5556  0.0913  0.9170
15893TIP3   OH269093   3.024   1.531   4.617  0.4039 -0.7937 -0.9580
15893TIP3    H169094   3.067   1.510   4.700 -2.1044  1.9575  1.2673
15893TIP3    H269095   3.064   1.614   4.590 -0.5241 -0.3856 -1.1268
15894TIP3   OH269096   1.386   3.542   2.662  0.4505 -0.1474 -0.2194
15894TIP3    H169097   1.442   3.620   2.654  0.0223  0.0944 -0.9816
15894TIP3    H269098   1.364   3.520   2.572  0.1903 -0.8852  0.0212
15895TIP3   OH269099   1.886   1.548  16.760 -0.1701 -0.1419 -0.0168
15895TIP3    H169100   1.891   1.577  16.669  0.9814  1.9043  0.6337
15895TIP3    H269101   1.942   1.470  16.764  0.7079  0.4287 -0.8470
15896TIP3   OH269102   1.924   5.350   3.797  0.4938  0.2683  0.5718
15896TIP3    H169103   1.940   5.293   3.872 -0.7134  0.6873  1.1672
15896TIP3    H269104   1.949   5.437   3.827 -1.5562  0.7343  1.1230
15897TIP3   OH269105   6.518   2.086  12.838 -0.1936  0.5126 -0.0166
15897TIP3    H169106   6.492   2.124  12.754 -0.2638  2.8699  0.9885
15897TIP3    H269107   6.436   2.068  12.883 -0.1851 -1.7958 -0.8273
15898TIP3   OH269108   4.522   1.554   5.333  0.0234 -0.4449 -0.2998
15898TIP3    H169109   4.518   1.573   5.427  0.9463 -0.2770 -0.2816
15898TIP3    H269110   4.600   1.601   5.303 -0.6503  0.0758 -1.2939
15899TIP3   OH269111   1.105   3.280  12.819 -0.3534  0.0647  0.0316
15899TIP3    H169112   1.032   3.293  12.758 -1.9590  1.5133  2.1047
15899TIP3    H269113   1.065   3.241  12.897  1.1585  0.4162  1.0463
15900TIP3   OH269114   5.606   0.101  12.877 -0.0434  0.7107  0.0412
15900TIP3    H169115   5.599   0.184  12.925 -0.9525  0.2047  0.8070
15900TIP3    H269116   5.575   0.035  12.939  2.1285 -0.4312  0.0002
15901TIP3   OH269117   6.715   5.678   1.000  0.3644 -0.1794  0.3151
15901TIP3    H169118   6.642   5.671   0.939  0.3101  1.8413  0.0845
15901TIP3    H269119   6.792   5.654   0.949  0.1955  0.4997 -0.2651
15902TIP3   OH269120   0.678   5.672  10.643  1.0866  0.2078 -0.5896
15902TIP3    H169121   0.764   5.702  10.615  0.8195  0.4833 -1.1229
15902TIP3    H269122   0.618   5.740  10.613  0.4784 -0.8196 -1.7893
15903TIP3   OH269123   2.750   2.603  13.611 -0.0396 -1.0516  0.5656
15903TIP3    H169124   2.758   2.698  13.602 -2.1655 -0.8604  0.1837
15903TIP3    H269125   2.835   2.569  13.585  0.4053  0.6794 -0.3897
15904TIP3   OH269126   1.496   3.215  16.314  0.1263  0.0386  0.3579
15904TIP3    H169127   1.464   3.250  16.231  0.3917  0.8659  0.5950
15904TIP3    H269128   1.421   3.225  16.374 -0.0055 -0.3919  0.2699
15905TIP3   OH269129   5.601   3.561  14.509 -0.2387  0.4576  0.0993
15905TIP3    H169130   5.685   3.606  14.524 -0.7931  1.6041 -0.1573
15905TIP3    H269131   5.626   3.470  14.496  0.9698  0.7544  0.1597
15906TIP3   OH269132   5.901   6.040  16.597  0.5154  0.2934  0.2904
15906TIP3    H169133   5.901   6.097  16.674  0.8209 -1.0156  1.2814
15906TIP3    H269134   5.814   6.000  16.597  0.3970  0.5394 -0.2562
15907TIP3   OH269135   4.644   0.914   5.446  0.1194  0.3666 -0.0263
15907TIP3    H169136   4.634   0.935   5.353 -1.7082  0.3454  0.1205
15907TIP3    H269137   4.593   0.981   5.491 -0.8755 -0.8977  0.8071
15908TIP3   OH269138   0.699   5.846  15.350 -0.0839 -0.2436  0.1946
15908TIP3    H169139   0.735   5.821  15.265 -1.3261  0.4555 -0.5567
15908TIP3    H269140   0.699   5.941  15.350 -2.4458 -0.1995 -0.0851
15909TIP3   OH269141   3.836   4.202   2.761  0.1857 -0.5314 -0.4809
15909TIP3    H169142   3.845   4.123   2.815  0.4136  1.0536  1.9710
15909TIP3    H269143   3.744   4.228   2.772  0.1862 -0.2813 -1.0377
15910TIP3   OH269144   5.215   1.020   0.686 -0.1517  0.4197 -0.1967
15910TIP3    H169145   5.221   0.956   0.758  0.7884  0.4213 -0.2720
15910TIP3    H269146   5.241   0.971   0.608  0.2656  0.8132 -0.3049
15911TIP3   OH269147   4.379   5.267  11.797  0.1002  0.7976  0.2221
15911TIP3    H169148   4.448   5.202  11.790  0.3054  1.0983 -0.7184
15911TIP3    H269149   4.384   5.316  11.715 -0.3076  1.7415  0.7472
15912TIP3   OH269150   0.981   0.195   3.388 -0.1426 -0.5468 -0.1495
15912TIP3    H169151   0.943   0.160   3.469  0.4128  0.4178  0.5581
15912TIP3    H269152   1.075   0.202   3.406 -0.0862  0.1877 -0.6699
15913TIP3   OH269153   2.015   1.538  12.876 -0.2743  0.0337 -0.5235
15913TIP3    H169154   2.075   1.524  12.802  1.8512 -1.4260  1.3564
15913TIP3    H269155   2.051   1.485  12.947 -3.6068 -0.5688  0.8978
15914TIP3   OH269156   5.507   6.661  13.026  0.2954  0.3566 -0.5430
15914TIP3    H169157   5.479   6.650  13.117 -0.8460  0.6707 -0.8361
15914TIP3    H269158   5.433   6.628  12.974  0.2879  1.5806 -1.3555
15915TIP3   OH269159   5.479   3.159  16.315 -0.3785 -0.0733 -0.9586
15915TIP3    H169160   5.460   3.227  16.251 -1.0252  1.3930  0.7198
15915TIP3    H269161   5.575   3.155  16.317 -0.3051  1.3152 -0.5802
15916TIP3   OH269162   2.749   3.727  15.449 -0.1795  0.0554  0.3315
15916TIP3    H169163   2.806   3.721  15.372 -1.6658 -2.9309 -0.6785
15916TIP3    H269164   2.810   3.740  15.522  1.4440  0.8482 -1.0787
15917TIP3   OH269165   0.374   0.199  11.276  0.0858  0.2161 -0.6223
15917TIP3    H169166   0.366   0.122  11.220  1.7497 -1.1430  0.8650
15917TIP3    H269167   0.284   0.224  11.297 -0.5020 -1.6422 -0.7507
15918TIP3   OH269168   5.406   0.674   2.382  0.5424 -0.3782  0.0460
15918TIP3    H169169   5.348   0.650   2.454 -2.2779  1.6558 -1.3338
15918TIP3    H269170   5.465   0.738   2.419 -1.8732  1.8270  0.3797
15919TIP3   OH269171   3.065   3.150  15.595  0.2419 -0.1548 -0.6265
15919TIP3    H169172   2.973   3.125  15.600  0.8753 -2.4733  0.8271
15919TIP3    H269173   3.083   3.194  15.678  1.0010 -2.0245  0.2584
15920TIP3   OH269174   2.742   2.563  15.268  1.0315  0.7681  0.2533
15920TIP3    H169175   2.781   2.528  15.188  0.8302 -0.1175  0.5295
15920TIP3    H269176   2.744   2.658  15.256 -0.2638  0.6298 -1.4202
15921TIP3   OH269177   3.581   2.405  15.614 -0.1738  0.3138 -0.4369
15921TIP3    H169178   3.522   2.472  15.579 -1.0489  0.8472  1.8604
15921TIP3    H269179   3.527   2.325  15.617  0.1656  0.0510 -1.0446
15922TIP3   OH269180   3.583   0.729  13.403  0.1644 -0.4240 -0.5094
15922TIP3    H169181   3.662   0.719  13.350 -0.3750 -0.7094 -1.2765
15922TIP3    H269182   3.586   0.819  13.434  1.7445 -0.9545  1.0536
15923TIP3   OH269183   2.466   0.215  17.063 -0.5318  0.6037 -0.3138
15923TIP3    H169184   2.546   0.238  17.109  0.2354 -1.1963 -0.6747
15923TIP3    H269185   2.482   0.242  16.972 -0.4888  0.6176 -0.3022
15924TIP3   OH269186   4.154   0.581  13.277 -0.0194 -0.3681  0.2767
15924TIP3    H169187   4.152   0.664  13.324  0.7831 -0.2546  0.1142
15924TIP3    H269188   4.132   0.516  13.343 -2.6603  0.1260 -0.0033
15925TIP3   OH269189   3.023   6.490   2.549 -0.3544  0.1491  0.2442
15925TIP3    H169190   3.055   6.399   2.548 -0.6976 -0.0538  2.6515
15925TIP3    H269191   2.955   6.492   2.481  0.1955 -1.1626 -0.3944
15926TIP3   OH269192   5.184   5.136   1.538  0.0960 -1.0243 -0.2390
15926TIP3    H169193   5.193   5.160   1.446  1.4038  1.5065  0.4689
15926TIP3    H269194   5.090   5.136   1.554 -0.0811  0.5946 -1.1176
15927TIP3   OH269195   3.340   4.779  14.885  0.0801 -0.2829  0.5956
15927TIP3    H169196   3.391   4.836  14.941  0.1164 -0.2099  0.4880
15927TIP3    H269197   3.249   4.798  14.908  0.0833  0.0765  0.3039
15928TIP3   OH269198   4.571   4.916  16.313 -0.0390 -0.1239  0.3391
15928TIP3    H169199   4.652   4.870  16.336  0.2860  0.5423  0.5329
15928TIP3    H269200   4.599   5.001  16.281 -0.7392  0.7945  2.0524
15929TIP3   OH269201   0.115   4.982   6.455 -0.5768  0.4478  0.3390
15929TIP3    H169202   0.029   4.947   6.476 -0.9801  0.3595 -1.3485
15929TIP3    H269203   0.097   5.070   6.420  0.0250  0.4887  0.1200
15930TIP3   OH269204   2.806   2.909  12.055 -0.3785 -0.6627  0.3192
15930TIP3    H169205   2.715   2.903  12.083 -0.0726  0.3026  1.5655
15930TIP3    H269206   2.856   2.915  12.136  0.8509 -1.6539 -0.3265
15931TIP3   OH269207   0.687   4.206   2.503  0.2555  0.0993 -0.5002
15931TIP3    H169208   0.763   4.170   2.549  1.5932 -1.9246 -3.9236
15931TIP3    H269209   0.716   4.291   2.470 -0.2467  0.9237  1.0737
15932TIP3   OH269210   1.308   1.664  14.354  0.1882  0.0914  0.2646
15932TIP3    H169211   1.224   1.635  14.389  0.6795  0.7646  2.1367
15932TIP3    H269212   1.366   1.667  14.430  1.6497  0.5965 -0.8150
15933TIP3   OH269213   1.231   4.298  15.768  0.0664 -0.0635 -0.1908
15933TIP3    H169214   1.248   4.216  15.723  0.9286 -1.0171  1.7421
15933TIP3    H269215   1.154   4.281  15.822 -0.5416  0.8436 -0.7278
15934TIP3   OH269216   6.425   6.614   1.153  0.3656 -0.2654 -0.1592
15934TIP3    H169217   6.330   6.621   1.165  0.1038 -2.8968  0.0013
15934TIP3    H269218   6.439   6.636   1.061 -0.6436 -1.2067 -0.5708
15935TIP3   OH269219   5.342   4.190  14.044 -0.3258  0.4356 -0.6220
15935TIP3    H169220   5.273   4.124  14.045 -1.3119  1.4377  0.3221
15935TIP3    H269221   5.298   4.270  14.015  0.6732  0.8766 -0.9827
15936TIP3   OH269222   4.757   6.735  15.571 -0.2000  0.2077 -0.1267
15936TIP3    H169223   4.738   6.691  15.653 -1.0125  2.1020  0.7685
15936TIP3    H269224   4.800   6.669  15.517  1.8638 -0.6928  2.3847
15937TIP3   OH269225   2.132   6.700  16.639  0.8433 -0.4062  0.0731
15937TIP3    H169226   2.134   6.640  16.713 -0.1339 -0.3802  0.1370
15937TIP3    H269227   2.074   6.657  16.575  0.0283  0.4978  0.1699
15938TIP3   OH269228   6.069   5.627   5.005 -0.2622  0.1240 -0.2175
15938TIP3    H169229   6.137   5.630   5.072  0.4797 -1.3501 -0.8703
15938TIP3    H269230   6.071   5.714   4.965  0.6421  0.3754  0.3543
15939TIP3   OH269231   4.513   5.397  10.618 -0.1637  0.1975  0.3134
15939TIP3    H169232   4.472   5.464  10.564 -1.1137 -0.2561  0.4663
15939TIP3    H269233   4.599   5.433  10.639  0.6115  0.0281 -2.2224
15940TIP3   OH269234   5.566   1.594  11.214  0.0527 -0.0541  0.7517
15940TIP3    H169235   5.572   1.688  11.202 -1.7073 -0.0194 -0.1267
15940TIP3    H269236   5.656   1.566  11.229  0.6423  1.7149  0.7047
15941TIP3   OH269237   6.435   0.206  13.839  0.0208 -0.2920  0.2372
15941TIP3    H169238   6.406   0.285  13.884 -1.9708 -0.2039 -1.1106
15941TIP3    H269239   6.444   0.141  13.909  0.2313  0.6982  1.1602
15942TIP3   OH269240   3.819   3.996  17.010 -0.0549 -0.0498 -0.1615
15942TIP3    H169241   3.862   3.919  16.973 -1.6532 -0.8890 -0.3568
15942TIP3    H269242   3.730   3.994  16.974 -0.0470  2.0867 -0.4333
15943TIP3   OH269243   2.685   1.371  14.081  0.1383 -0.0549 -0.0827
15943TIP3    H169244   2.698   1.292  14.028  0.5909 -0.4305  0.5827
15943TIP3    H269245   2.632   1.428  14.025  0.2636 -0.6068 -0.7851
15944TIP3   OH269246   1.048   4.207  12.498 -0.5944 -0.0303 -0.5047
15944TIP3    H169247   1.011   4.295  12.492 -2.2282 -0.4494  1.7863
15944TIP3    H269248   0.985   4.151  12.453  0.1835 -0.1410 -1.5081
15945TIP3   OH269249   0.213   2.081  16.215 -0.5479 -0.2250 -0.1573
15945TIP3    H169250   0.277   2.074  16.144 -0.8515  0.7101 -0.5442
15945TIP3    H269251   0.132   2.046  16.179 -0.2960 -1.3025  0.2956
15946TIP3   OH269252   4.659   3.153  13.792  0.7176 -0.2371  0.3300
15946TIP3    H169253   4.665   3.181  13.701  0.7615 -0.5610  0.2328
15946TIP3    H269254   4.748   3.126  13.814  0.3658 -1.8032 -0.0640
15947TIP3   OH269255   6.417   2.805  13.510  0.6628  0.1841  0.3503
15947TIP3    H169256   6.448   2.773  13.595  2.5203  0.9405  0.0126
15947TIP3    H269257   6.391   2.896  13.527 -0.2166 -0.0645  0.3655
15948TIP3   OH269258   3.105   2.244  11.041  0.4341 -0.3933 -0.2497
15948TIP3    H169259   3.179   2.239  10.979 -0.0005 -0.2975 -0.7841
15948TIP3    H269260   3.139   2.295  11.114 -0.1085  2.7942 -2.0168
15949TIP3   OH269261   3.813   2.760   5.930 -0.2195  0.0373  0.1907
15949TIP3    H169262   3.885   2.802   5.882 -0.8879 -0.3769 -1.2087
15949TIP3    H269263   3.857   2.698   5.989  0.5679 -0.7486 -1.1728
15950TIP3   OH269264   0.678   3.289   4.641  0.5326  0.0032 -0.4577
15950TIP3    H169265   0.650   3.298   4.733 -0.8574  1.0750 -0.9528
15950TIP3    H269266   0.623   3.218   4.607  1.7269 -1.0560 -0.2269
15951TIP3   OH269267   1.928   6.700   5.745  0.4356 -0.0116  0.4111
15951TIP3    H169268   1.901   6.619   5.701  1.2422  1.0375 -2.2344
15951TIP3    H269269   1.863   6.713   5.814 -3.4133  0.2050 -2.8985
15952TIP3   OH269270   6.225   4.889  12.479 -0.4761  0.0448 -0.7140
15952TIP3    H169271   6.139   4.906  12.440  0.0029  0.2549 -1.7136
15952TIP3    H269272   6.283   4.879  12.404  0.5811  0.9632 -0.0379
15953TIP3   OH269273   3.283   6.586  13.998 -0.1980 -0.4589 -0.0436
15953TIP3    H169274   3.217   6.533  14.042  0.5140  0.2702  1.9774
15953TIP3    H269275   3.324   6.525  13.936  1.1951 -2.6023  2.7928
15954TIP3   OH269276   6.566   6.128  14.506  0.3124 -0.0431 -0.1704
15954TIP3    H169277   6.493   6.065  14.510 -0.2530  0.6084  0.0488
15954TIP3    H269278   6.562   6.174  14.589 -0.1101  1.1788 -0.8461
15955TIP3   OH269279   2.336   1.628   1.236 -0.3611  0.3437  0.3377
15955TIP3    H169280   2.428   1.643   1.259 -0.6669  1.1505  1.0662
15955TIP3    H269281   2.289   1.703   1.272 -1.0927  0.8934 -1.6035
15956TIP3   OH269282   2.556   4.707  11.589 -0.0534  1.0122  0.3136
15956TIP3    H169283   2.572   4.793  11.627  1.4522  1.0536 -0.3595
15956TIP3    H269284   2.523   4.725  11.501  1.6048  0.9364 -0.3556
15957TIP3   OH269285   5.084   6.172   3.274 -0.2639 -0.4271  0.4194
15957TIP3    H169286   5.130   6.255   3.275  0.1318 -0.6404  0.1248
15957TIP3    H269287   4.998   6.193   3.238 -0.8806  0.2060  2.1348
15958TIP3   OH269288   6.556   6.710  13.730 -0.2367 -0.5552 -0.2498
15958TIP3    H169289   6.650   6.695  13.720 -0.4008 -0.7777 -1.6846
15958TIP3    H269290   6.547   6.805  13.730 -0.1645 -0.4950 -2.2862
15959TIP3   OH269291   4.910   4.656  15.429 -0.9384 -0.2844 -0.1181
15959TIP3    H169292   4.873   4.682  15.513 -0.1614 -0.0649  0.1670
15959TIP3    H269293   4.842   4.678  15.364 -0.6135  1.8117  0.1743
15960TIP3   OH269294   0.931   2.674  13.844 -0.3214  0.2134 -0.2008
15960TIP3    H169295   0.860   2.610  13.841 -1.4910  1.4943 -0.4723
15960TIP3    H269296   0.941   2.693  13.937  0.4832 -0.8157 -0.0531
15961TIP3   OH269297   3.331   4.054  11.688 -0.3703  0.3653  0.2752
15961TIP3    H169298   3.282   3.972  11.684 -0.2463  0.2930 -3.3191
15961TIP3    H269299   3.264   4.121  11.702 -0.6800 -0.1511  1.4212
15962TIP3   OH269300   5.197   6.237  13.729  0.0757  0.2073 -0.0338
15962TIP3    H169301   5.239   6.234  13.815 -0.3482  0.4113  0.1827
15962TIP3    H269302   5.112   6.196  13.742 -1.2391  2.8778  0.3594
15963TIP3   OH269303   5.439   3.906  12.208 -0.9881  0.5371  0.0764
15963TIP3    H169304   5.379   3.963  12.161 -0.1578 -0.2790 -2.1432
15963TIP3    H269305   5.526   3.929  12.174 -0.5636 -1.4859 -0.3833
15964TIP3   OH269306   0.072   4.415  13.193  0.1713 -0.3061 -0.1809
15964TIP3    H169307  -0.021   4.438  13.195  0.3879  0.6520 -0.5592
15964TIP3    H269308   0.097   4.410  13.286  0.0855  0.9513 -0.0669
15965TIP3   OH269309   5.680   0.354   1.622 -0.1318  0.5436  0.3934
15965TIP3    H169310   5.611   0.294   1.650  0.7459 -0.9753 -0.5935
15965TIP3    H269311   5.751   0.341   1.685  0.5942 -0.5149 -0.6051
15966TIP3   OH269312   3.841   2.394  15.706  0.1083  0.2669 -0.2650
15966TIP3    H169313   3.856   2.482  15.739 -1.4460  0.2696  0.4890
15966TIP3    H269314   3.759   2.400  15.658 -0.4825 -0.9515  0.5504
15967TIP3   OH269315   6.412   2.922  11.454 -0.4829  0.4429 -0.1032
15967TIP3    H169316   6.472   2.995  11.440  0.1684 -0.0352  0.1942
15967TIP3    H269317   6.400   2.917  11.548  2.0905 -1.8760  0.2199
15968TIP3   OH269318   0.589   3.271   2.671 -0.0605 -0.4083 -0.5461
15968TIP3    H169319   0.501   3.237   2.687  0.1811 -1.3959 -1.1762
15968TIP3    H269320   0.647   3.205   2.710  0.3984  0.2863 -0.0457
15969TIP3   OH269321   4.962   5.396  13.771  0.1357  0.7852 -0.1123
15969TIP3    H169322   4.985   5.489  13.778 -0.6120  1.0623 -1.1832
15969TIP3    H269323   4.886   5.386  13.828  0.8453  0.5778  0.8362
15970TIP3   OH269324   2.163   6.260  16.533 -0.2625 -0.2832 -0.2686
15970TIP3    H169325   2.148   6.323  16.463  1.5913  0.3372 -0.1449
15970TIP3    H269326   2.197   6.182  16.489  1.2628  0.2361 -0.0821
15971TIP3   OH269327   1.260   4.530   4.628  0.4522 -0.3375  0.1851
15971TIP3    H169328   1.326   4.598   4.610  0.9888 -0.6066  1.0790
15971TIP3    H269329   1.297   4.450   4.591 -0.4333 -0.0575 -1.3666
15972TIP3   OH269330   1.271   6.468  13.848  0.0530 -0.3002  0.3824
15972TIP3    H169331   1.196   6.474  13.788 -0.9456  1.8385  1.7597
15972TIP3    H269332   1.292   6.558  13.870  1.4542 -0.9712  1.9997
15973TIP3   OH269333   0.566   4.802   6.186  0.6335 -0.2000  0.4684
15973TIP3    H169334   0.504   4.844   6.246  0.7778 -0.9443  1.1583
15973TIP3    H269335   0.510   4.759   6.122  0.4688  0.2533  0.2976
15974TIP3   OH269336   3.884   1.043  13.717  0.6072  0.0458 -0.1236
15974TIP3    H169337   3.871   1.083  13.631 -0.9107  1.5802  0.7595
15974TIP3    H269338   3.806   0.990  13.730 -0.2586  1.5335  1.1451
15975TIP3   OH269339   2.154   0.912  17.234  0.1121  0.0695 -0.2706
15975TIP3    H169340   2.089   0.953  17.177  0.0417  0.7572  0.2796
15975TIP3    H269341   2.165   0.974  17.306 -0.3991 -1.1257  0.8812
15976TIP3   OH269342   6.571   5.989  12.922  0.4663  0.3468 -0.4928
15976TIP3    H169343   6.492   6.003  12.974  0.5036 -1.6913  0.1824
15976TIP3    H269344   6.626   6.064  12.943 -1.1613  1.6913 -0.7920
15977TIP3   OH269345   2.206   1.854  14.209 -0.3816  0.0079  0.9016
15977TIP3    H169346   2.164   1.934  14.241  0.2824 -0.4655  3.1884
15977TIP3    H269347   2.287   1.848  14.260  1.3666 -0.3198 -1.7100
15978TIP3   OH269348   0.575   0.860  11.481 -0.0556 -0.2355 -0.0413
15978TIP3    H169349   0.550   0.917  11.408 -0.6718 -1.1564 -0.5718
15978TIP3    H269350   0.661   0.891  11.508 -1.2128  2.3265  1.0912
15979TIP3   OH269351   6.288   4.950   2.455 -0.3384 -1.1164 -0.2946
15979TIP3    H169352   6.243   4.879   2.500  3.2816 -3.1065  0.5372
15979TIP3    H269353   6.284   4.925   2.362  1.2557 -2.7441  0.0222
15980TIP3   OH269354   0.203   4.791   4.894 -0.3903  0.4294  0.0482
15980TIP3    H169355   0.116   4.801   4.932 -0.7432 -0.9015 -0.3799
15980TIP3    H269356   0.188   4.773   4.802  0.4126  1.8336 -0.3930
15981TIP3   OH269357   6.442   6.349   3.197 -0.5055 -0.0337  0.5862
15981TIP3    H169358   6.425   6.259   3.222  1.3328 -0.8255 -0.8174
15981TIP3    H269359   6.358   6.393   3.208 -1.7536 -2.1785  0.1363
15982TIP3   OH269360   2.518   0.868   5.372  0.2021 -0.5760  0.4915
15982TIP3    H169361   2.461   0.793   5.353 -0.3421 -0.3847  1.3059
15982TIP3    H269362   2.597   0.852   5.321  0.2817 -1.9470  1.0051
15983TIP3   OH269363   1.304   4.522   5.981  1.0799  0.6221  0.3817
15983TIP3    H169364   1.247   4.471   6.038 -0.2154 -0.2945 -1.6226
15983TIP3    H269365   1.322   4.602   6.031 -0.4577  0.1327  1.8272
15984TIP3   OH269366   6.534   6.432  16.812 -0.1422 -0.1451 -0.1216
15984TIP3    H169367   6.572   6.452  16.726  0.3455 -2.4414 -0.5325
15984TIP3    H269368   6.610   6.409  16.866 -0.6610 -1.7931 -0.0455
15985TIP3   OH269369   0.261   5.056   2.410 -0.1126  0.0233 -0.7135
15985TIP3    H169370   0.206   5.003   2.468  1.9354 -0.4764  0.9057
15985TIP3    H269371   0.288   5.131   2.463 -0.4651  1.0933 -1.9810
15986TIP3   OH269372   1.635   2.566  10.783  0.1735  0.6924  0.2288
15986TIP3    H169373   1.716   2.522  10.809 -0.3159  0.4159  1.3497
15986TIP3    H269374   1.566   2.506  10.810 -0.3918  0.4509 -1.6421
15987TIP3   OH269375   1.956   5.650   3.823  0.1337 -0.2110 -0.1859
15987TIP3    H169376   2.014   5.723   3.845 -1.8585  1.6688 -0.7257
15987TIP3    H269377   1.888   5.691   3.769 -0.8575 -2.5913 -0.8339
15988TIP3   OH269378   3.787   2.633  14.384 -0.1793  0.3576 -0.7848
15988TIP3    H169379   3.752   2.688  14.454 -1.3862 -0.8047 -0.4134
15988TIP3    H269380   3.808   2.550  14.428  1.8792  0.5760 -1.2608
15989TIP3   OH269381   4.470   3.438   0.375  0.0654  0.1415 -0.1085
15989TIP3    H169382   4.489   3.460   0.466  1.5791 -1.5257  0.0450
15989TIP3    H269383   4.553   3.403   0.341 -1.6327 -3.9881 -0.6005
15990TIP3   OH269384   0.533   4.009   1.494  0.1832 -0.1379 -0.8646
15990TIP3    H169385   0.598   4.064   1.537  0.6446 -0.6000 -0.9540
15990TIP3    H269386   0.537   4.035   1.402 -1.5096  1.5524 -0.5169
15991TIP3   OH269387   3.691   0.642  11.761 -0.3925  0.4678  0.0661
15991TIP3    H169388   3.657   0.553  11.758  0.5986 -0.1840  3.7233
15991TIP3    H269389   3.614   0.697  11.771 -0.8447 -0.3100  1.0190
15992TIP3   OH269390   0.682   0.118   2.556 -0.9445  0.6031 -0.1758
15992TIP3    H169391   0.764   0.136   2.602  0.2113  0.1263 -1.9163
15992TIP3    H269392   0.618   0.103   2.625  0.8358 -0.8084  1.2925
15993TIP3   OH269393   3.855   1.570   1.373  0.5142 -0.0739 -0.2547
15993TIP3    H169394   3.929   1.611   1.416  0.1132 -1.0041  1.4159
15993TIP3    H269395   3.779   1.598   1.423 -0.0974 -0.3777 -0.9793
15994TIP3   OH269396   0.168   3.626   2.482  0.1758  0.1613 -0.0908
15994TIP3    H169397   0.224   3.699   2.459 -0.0146  0.4891  0.4647
15994TIP3    H269398   0.152   3.580   2.400  1.9404 -0.4396 -0.1426
15995TIP3   OH269399   3.978   3.020   0.676  0.4621  0.3531  0.2707
15995TIP3    H169400   3.992   2.926   0.673  0.4861  0.3390  0.7725
15995TIP3    H269401   3.921   3.038   0.601 -1.0245 -0.3202  1.1935
15996TIP3   OH269402   4.529   0.659  10.659 -0.2040 -0.1618 -0.1771
15996TIP3    H169403   4.455   0.648  10.598 -1.2230  0.5433  0.8958
15996TIP3    H269404   4.493   0.711  10.731  1.4838  0.5891  0.1503
15997TIP3   OH269405   1.777   4.099   3.371 -0.4584  0.3763  0.0850
15997TIP3    H169406   1.808   4.058   3.290 -0.0829 -0.2107  0.5151
15997TIP3    H269407   1.683   4.082   3.373 -0.0188 -2.4457  1.3211
15998TIP3   OH269408   2.867   5.086  13.233 -0.2146 -0.3509  0.5343
15998TIP3    H169409   2.799   5.119  13.291  0.2547 -2.3181  2.3212
15998TIP3    H269410   2.846   4.994  13.221  2.0489 -0.9823  1.0504
15999TIP3   OH269411   2.034   2.011  17.237 -0.1883  0.5166 -0.2340
15999TIP3    H169412   2.075   2.027  17.322 -1.5641 -0.5740  0.6717
15999TIP3    H269413   2.019   1.916  17.235  0.8122  0.3417 -2.1837
16000TIP3   OH269414   3.338   3.928  15.039  0.2328  0.1126 -0.2165
16000TIP3    H169415   3.301   3.958  15.121  0.7722  1.6209 -0.4888
16000TIP3    H269416   3.319   3.998  14.976  3.0453  0.8020 -0.4688
16001TIP3   OH269417   5.701   3.692   0.568 -0.2593 -0.3526 -0.2550
16001TIP3    H169418   5.619   3.646   0.552 -0.0281 -1.3996  1.3711
16001TIP3    H269419   5.680   3.755   0.637  0.0742  0.1083 -0.5673
16002TIP3   OH269420   5.005   0.953  11.854  0.4402  0.3004 -0.1233
16002TIP3    H169421   4.949   0.981  11.925 -3.0635 -0.7242 -2.2486
16002TIP3    H269422   5.014   0.858  11.866  2.3474  0.5102  0.5080
16003TIP3   OH269423   2.925   5.365  15.368  0.6512  0.1053  0.4480
16003TIP3    H169424   3.007   5.324  15.396 -0.4531 -0.2792  3.4717
16003TIP3    H269425   2.929   5.454  15.402 -0.0975  0.1507  0.4299
16004TIP3   OH269426   5.466   4.931  15.529 -0.2921  0.5692 -0.7381
16004TIP3    H169427   5.445   5.022  15.507  0.5495  0.6927 -1.0836
16004TIP3    H269428   5.455   4.884  15.447 -0.4389  0.4116 -0.6278
16005TIP3   OH269429   3.938   0.198  10.730 -0.9196  0.0530 -0.2503
16005TIP3    H169430   4.002   0.238  10.789 -0.4808  0.4161 -0.9633
16005TIP3    H269431   3.897   0.130  10.783  0.1874 -0.3133  0.1736
16006TIP3   OH269432   4.726   0.585   5.674  0.0458 -0.2466  0.2517
16006TIP3    H169433   4.716   0.490   5.665 -1.1530 -0.0112 -1.2450
16006TIP3    H269434   4.655   0.622   5.622 -1.9117  1.4886  3.7718
16007TIP3   OH269435   2.753   4.001  10.975  0.1069 -0.3024 -0.2894
16007TIP3    H169436   2.725   4.066  10.911  1.8385  0.7991  0.0267
16007TIP3    H269437   2.740   3.917  10.931  0.6412  0.3970 -1.8430
16008TIP3   OH269438   1.065   3.741   6.298 -0.4550  0.0283  0.4328
16008TIP3    H169439   1.151   3.738   6.258 -0.3847  0.6732  0.5317
16008TIP3    H269440   1.081   3.723   6.391 -0.3980  0.3862  0.4928
16009TIP3   OH269441   0.751   3.471  12.146 -0.6485 -0.1505  0.0808
16009TIP3    H169442   0.749   3.500  12.237 -2.1308  0.2345 -0.0469
16009TIP3    H269443   0.665   3.494  12.112  0.0771  0.2359 -1.5881
16010TIP3   OH269444   4.874   0.363  11.362 -0.3095  0.1482  0.1211
16010TIP3    H169445   4.930   0.315  11.301  1.8198  1.6262  0.7879
16010TIP3    H269446   4.811   0.408  11.306 -0.9541 -1.6131 -0.6506
16011TIP3   OH269447   0.705   0.624  12.384  0.4469  0.3448  0.4000
16011TIP3    H169448   0.736   0.588  12.467 -0.6247 -1.0411  0.2339
16011TIP3    H269449   0.768   0.591  12.319  1.8444  2.2032  0.7103
16012TIP3   OH269450   3.403   3.018   3.139  0.1451 -0.2558  0.0749
16012TIP3    H169451   3.371   2.988   3.224  0.6858  1.4924  0.9525
16012TIP3    H269452   3.491   2.982   3.133  1.5384  2.4225  1.9832
16013TIP3   OH269453   5.279   3.832   2.370 -0.2345  0.1644 -0.1408
16013TIP3    H169454   5.335   3.759   2.344  0.3429  0.6193 -0.2015
16013TIP3    H269455   5.333   3.910   2.353 -0.7053  0.5809  0.2696
16014TIP3   OH269456   4.388   2.655  15.271  0.5174 -0.7410  0.3113
16014TIP3    H169457   4.330   2.712  15.221  0.0746 -1.1353  0.3650
16014TIP3    H269458   4.356   2.661  15.361  1.1321 -0.2577  0.5071
16015TIP3   OH269459   2.936   0.028   4.196 -0.3713 -0.1594 -0.3687
16015TIP3    H169460   3.000  -0.030   4.154  0.6960  0.2280  0.6495
16015TIP3    H269461   2.867  -0.031   4.228 -0.5232 -0.5839 -1.4602
16016TIP3   OH269462   6.396   5.259  15.632  0.0539 -0.5879  0.2561
16016TIP3    H169463   6.455   5.237  15.704 -0.0141 -0.6366  0.2975
16016TIP3    H269464   6.403   5.354  15.624 -0.2651 -0.5275  0.6171
16017TIP3   OH269465   5.672   1.955  16.328 -0.2460  0.4140 -0.3129
16017TIP3    H169466   5.678   2.040  16.285  0.4077  0.3264 -0.4149
16017TIP3    H269467   5.669   1.892  16.256 -0.6549  0.3453 -0.2368
16018TIP3   OH269468   0.925   3.004  14.282  0.3107 -1.3112  0.6562
16018TIP3    H169469   0.900   3.092  14.253 -0.9672 -1.6059  0.7722
16018TIP3    H269470   0.874   2.990  14.361  0.3535 -2.2269  0.5326
16019TIP3   OH269471   0.883   6.091   5.451  0.4083 -0.0818  0.4167
16019TIP3    H169472   0.943   6.033   5.403  1.4908  0.5240  1.0067
16019TIP3    H269473   0.806   6.097   5.394  1.9450  1.2402 -1.6727
16020TIP3   OH269474   1.594   2.972   5.016 -0.0241 -0.3793  0.6376
16020TIP3    H169475   1.574   3.058   4.979  0.0392 -0.3531  0.6635
16020TIP3    H269476   1.514   2.922   5.005 -0.1376 -0.2440  0.8313
16021TIP3   OH269477   5.252   5.297  12.179  0.0761  0.3627  0.0993
16021TIP3    H169478   5.177   5.343  12.141 -0.4987  0.2717  1.0926
16021TIP3    H269479   5.217   5.211  12.204  0.7262  0.0055 -0.2025
16022TIP3   OH269480   1.837   5.225   0.529  0.0783  0.0315  0.0775
16022TIP3    H169481   1.836   5.132   0.505  2.7068 -0.1768  0.4951
16022TIP3    H269482   1.897   5.230   0.603 -1.0977  1.9065  0.9662
16023TIP3   OH269483   3.431   3.478   0.323 -0.1664 -0.1062  0.4131
16023TIP3    H169484   3.410   3.459   0.414  0.6440  1.7095  1.0158
16023TIP3    H269485   3.389   3.562   0.306 -0.8171 -0.6939 -1.1008
16024TIP3   OH269486   2.348   1.438   5.587  0.0315 -0.2041 -0.4482
16024TIP3    H169487   2.257   1.409   5.587  0.1149 -0.4725 -1.1026
16024TIP3    H269488   2.382   1.409   5.672 -0.8320  1.0125  0.3464
16025TIP3   OH269489   6.686   4.877   6.109 -0.2224  0.3004 -0.2645
16025TIP3    H169490   6.700   4.798   6.160 -1.3510 -0.1365 -0.6056
16025TIP3    H269491   6.662   4.944   6.174  1.8346  0.6998  0.1603
16026TIP3   OH269492   3.727   2.958  16.365  0.6094  0.0139  0.2191
16026TIP3    H169493   3.696   2.998  16.447  2.8466  1.9167  0.2440
16026TIP3    H269494   3.669   2.993  16.298 -2.1986 -2.6877  0.9766
16027TIP3   OH269495   0.749   4.655  13.990 -0.1395 -0.1694 -0.0122
16027TIP3    H169496   0.709   4.591  14.049 -0.8552 -1.0445 -1.3912
16027TIP3    H269497   0.695   4.733  13.998 -0.8402 -0.6263 -0.2539
16028TIP3   OH269498   2.449   6.677  13.252  0.6794 -0.1813  0.2384
16028TIP3    H169499   2.537   6.702  13.280  0.8317  0.6052 -0.8779
16028TIP3    H269500   2.402   6.760  13.243  0.3222 -0.4745 -0.7567
16029TIP3   OH269501   0.848   2.932   2.568 -0.0565 -0.1412  0.2523
16029TIP3    H169502   0.885   2.988   2.500  0.1667 -0.3442  0.2081
16029TIP3    H269503   0.922   2.880   2.600 -0.1834 -0.1243  0.5714
16030TIP3   OH269504   3.127   0.650   1.909 -0.1913  0.7049  0.1206
16030TIP3    H169505   3.101   0.688   1.825 -1.0712 -1.0217 -0.4445
16030TIP3    H269506   3.212   0.609   1.891  0.6490  2.1295  0.6696
16031TIP3   OH269507   4.195   3.445   2.261  0.0511 -0.5247 -0.3040
16031TIP3    H169508   4.200   3.541   2.258  1.4361 -0.5999 -1.7924
16031TIP3    H269509   4.274   3.419   2.308 -0.1482 -0.9467 -0.1991
16032TIP3   OH269510   5.984   3.895  11.501 -0.3549  0.6296 -0.2593
16032TIP3    H169511   6.012   3.805  11.486  0.3438  0.6813  0.5916
16032TIP3    H269512   5.936   3.919  11.422 -1.1663 -0.7122 -0.2037
16033TIP3   OH269513   6.070   0.176  16.296 -0.2449 -0.4725  0.1148
16033TIP3    H169514   5.992   0.179  16.240 -1.4876  0.4053  1.8003
16033TIP3    H269515   6.110   0.262  16.285 -0.1275 -0.5308  0.0868
16034TIP3   OH269516   1.903   3.395  14.978  0.0742  0.7461  0.5868
16034TIP3    H169517   1.880   3.329  15.044  3.2127 -2.0654 -0.8612
16034TIP3    H269518   1.998   3.403  14.984  0.0849  2.9507 -1.3650
16035TIP3   OH269519   4.344   1.626   1.851 -0.7541 -0.5129 -0.0274
16035TIP3    H169520   4.283   1.698   1.866  0.2803  0.1070  1.3904
16035TIP3    H269521   4.429   1.659   1.881 -0.0809 -2.0292 -0.1431
16036TIP3   OH269522   2.458   1.645  15.254  0.2178  0.3398  0.4857
16036TIP3    H169523   2.486   1.662  15.164  0.7033 -1.1276  0.3234
16036TIP3    H269524   2.539   1.646  15.305  0.1367 -0.2567  0.6436
16037TIP3   OH269525   5.151   5.782  12.940  0.3334  0.4616  0.0668
16037TIP3    H169526   5.203   5.706  12.968  1.4889  0.9743 -0.6158
16037TIP3    H269527   5.069   5.744  12.908 -0.1693 -0.2913  2.0913
16038TIP3   OH269528   2.588   4.950  16.034 -0.2083 -0.2864  0.0082
16038TIP3    H169529   2.548   5.030  15.999 -1.1072 -1.8046 -2.7439
16038TIP3    H269530   2.532   4.925  16.107  0.5368  1.9187  1.4525
16039TIP3   OH269531   3.020   1.170   6.014 -0.0453 -0.8351  0.4570
16039TIP3    H169532   3.033   1.170   6.109  0.6243  1.0432  0.4062
16039TIP3    H269533   2.944   1.226   6.000  0.8287  0.2506 -0.1747
16040TIP3   OH269534   2.104   4.998   4.756  0.1001  0.4235  0.3236
16040TIP3    H169535   2.146   4.914   4.772 -0.4362 -0.1267 -1.0038
16040TIP3    H269536   2.177   5.057   4.735  0.2596 -0.8092 -3.1820
16041TIP3   OH269537   1.556   1.329  15.189 -0.1962  0.1288  0.0499
16041TIP3    H169538   1.631   1.280  15.155 -1.4335 -2.1782  0.4642
16041TIP3    H269539   1.591   1.416  15.208  2.2320 -0.7035 -0.2903
16042TIP3   OH269540   5.289   2.016   1.220 -0.0356 -0.0232 -0.2488
16042TIP3    H169541   5.359   2.017   1.285 -0.5961 -0.1887  0.3566
16042TIP3    H269542   5.281   1.924   1.194  0.4307  0.0889 -0.8325
16043TIP3   OH269543   0.771   4.799  12.295 -0.4531 -0.5933  0.4892
16043TIP3    H169544   0.755   4.891  12.316  0.6188 -0.0105 -1.0597
16043TIP3    H269545   0.734   4.751  12.369 -0.2428  1.1161  1.7807
16044TIP3   OH269546   5.970   5.910  12.277 -0.2808  0.4129  0.1695
16044TIP3    H169547   5.909   5.863  12.335  0.2431 -0.9126 -0.3231
16044TIP3    H269548   5.914   5.953  12.213 -0.9164  2.3147  1.8762
16045TIP3   OH269549   4.547   5.992   4.789  0.1405 -0.1698  0.1252
16045TIP3    H169550   4.567   5.902   4.814 -1.0743 -0.3088  0.6377
16045TIP3    H269551   4.469   5.986   4.734  0.4672  0.5071 -0.4289
16046TIP3   OH269552   5.008   1.323   1.131 -0.1853  0.6544  0.4936
16046TIP3    H169553   5.096   1.336   1.096  0.3116  0.8375  1.7665
16046TIP3    H269554   5.017   1.334   1.225 -1.0635 -1.9534  0.9825
16047TIP3   OH269555   3.469   3.370  14.965 -0.0257  0.0297 -0.2500
16047TIP3    H169556   3.553   3.399  14.928 -0.6863  2.7705  0.2155
16047TIP3    H269557   3.493   3.326  15.047  0.9825  1.2400  0.1453
16048TIP3   OH269558   5.285   5.933  13.770 -0.8031  0.4594 -0.2986
16048TIP3    H169559   5.269   5.998  13.838  2.0363  0.9510  0.0395
16048TIP3    H269560   5.294   5.984  13.690 -1.7835  0.1182 -0.6400
16049TIP3   OH269561   5.248   3.324  11.378  0.3962  0.1045  0.2619
16049TIP3    H169562   5.207   3.246  11.340  3.8666 -0.9668 -1.7294
16049TIP3    H269563   5.238   3.313  11.472 -0.5244 -1.9719 -0.0226
16050TIP3   OH269564   6.643   3.832   4.015 -0.2567  0.4905  0.3212
16050TIP3    H169565   6.550   3.810   4.009 -0.6670  1.7317  1.7791
16050TIP3    H269566   6.681   3.760   4.066 -0.6512  0.5962  0.7721
16051TIP3   OH269567   5.991   2.215  14.475  0.2941 -0.0399  0.4734
16051TIP3    H169568   6.029   2.241  14.391 -1.8962  1.0630 -0.2447
16051TIP3    H269569   5.981   2.120  14.469 -1.4664  0.2095 -1.2811
16052TIP3   OH269570   0.314   3.634  11.116 -0.4100 -0.0087 -0.3612
16052TIP3    H169571   0.377   3.668  11.179 -1.0357  2.2024 -0.8209
16052TIP3    H269572   0.361   3.564  11.070  2.0445  2.0670 -1.2598
16053TIP3   OH269573   5.553   4.514  12.677  0.2795  0.3334 -0.3123
16053TIP3    H169574   5.595   4.590  12.716 -0.4948  0.5538  0.1200
16053TIP3    H269575   5.620   4.446  12.680  0.5244  0.5913  0.6182
16054TIP3   OH269576   3.785   1.927   0.395  0.4202  0.1048  0.7059
16054TIP3    H169577   3.734   1.850   0.416  2.3599 -1.2641  0.6472
16054TIP3    H269578   3.721   1.998   0.389 -1.5222 -1.6493 -0.1552
16055TIP3   OH269579   1.064   2.300  10.917 -0.3218 -0.2623  0.0106
16055TIP3    H169580   1.127   2.228  10.909 -1.5140 -1.3753  0.1735
16055TIP3    H269581   1.009   2.292  10.838 -1.7413 -0.8481  1.0206
16056TIP3   OH269582   1.423   2.336   1.297 -0.1121  0.5171 -0.4619
16056TIP3    H169583   1.487   2.293   1.240 -0.9046  0.3302 -1.2342
16056TIP3    H269584   1.364   2.266   1.324  0.2340  0.6107  0.5858
16057TIP3   OH269585   1.120   5.046  11.276 -0.3612 -0.0070 -0.1796
16057TIP3    H169586   1.054   5.115  11.284  0.9588  1.1852  1.1341
16057TIP3    H269587   1.141   5.043  11.183 -2.5236 -0.7268 -0.7039
16058TIP3   OH269588   4.645   0.881   3.972  0.1453  0.0498  0.2111
16058TIP3    H169589   4.659   0.795   3.932  1.3424 -0.0428  0.7556
16058TIP3    H269590   4.593   0.863   4.050 -0.9291  0.0412 -0.4845
16059TIP3   OH269591   5.659   6.639  14.545 -0.4064  0.3382 -0.0895
16059TIP3    H169592   5.581   6.615  14.495  0.9218 -1.6764 -1.2774
16059TIP3    H269593   5.633   6.625  14.637 -1.7402  0.6900 -0.3845
16060TIP3   OH269594   1.517   3.351   2.284 -0.2635  0.7909  0.3669
16060TIP3    H169595   1.585   3.398   2.236  0.6265 -1.7658 -1.1191
16060TIP3    H269596   1.565   3.303   2.352 -1.0669  1.5330  1.4976
16061TIP3   OH269597   6.073   1.987  11.297  0.1355  0.5332  0.5178
16061TIP3    H169598   6.110   2.073  11.281  1.1003 -0.4003 -3.4265
16061TIP3    H269599   6.004   1.978  11.232  0.8076 -2.0056  0.0369
16062TIP3   OH269600   5.055   5.922   4.011 -0.3695 -0.1479  0.4563
16062TIP3    H169601   5.089   5.845   4.057  0.2005 -1.3392 -1.7532
16062TIP3    H269602   5.132   5.978   3.999 -0.8490  0.9887  2.3543
16063TIP3   OH269603   5.058   1.795  12.365  0.1544 -0.1816  0.0146
16063TIP3    H169604   5.003   1.725  12.331 -0.7036  0.3184  0.3467
16063TIP3    H269605   4.999   1.849  12.418  0.4284  1.6421 -1.4310
16064TIP3   OH269606   0.003   5.506  14.502 -0.1088 -0.2028  0.2587
16064TIP3    H169607   0.004   5.442  14.574  0.1607  1.3090  1.6539
16064TIP3    H269608  -0.081   5.551  14.512 -0.1873 -0.1572 -0.5660
16065TIP3   OH269609   5.749   1.408  14.574  0.8534 -0.0946 -0.5979
16065TIP3    H169610   5.778   1.322  14.607 -0.9040 -0.2935  0.5668
16065TIP3    H269611   5.668   1.426  14.622 -0.2112  1.0459 -2.6750
16066TIP3   OH269612   5.722   3.385  15.886  0.0492 -0.7460 -0.4163
16066TIP3    H169613   5.689   3.333  15.813 -0.5260  2.4276 -2.6240
16066TIP3    H269614   5.645   3.430  15.920  1.0231  2.1296 -1.6993
16067TIP3   OH269615   2.733   6.778  15.885 -0.1637 -0.3731 -0.4577
16067TIP3    H169616   2.743   6.703  15.945 -0.7566  0.2576  0.4484
16067TIP3    H269617   2.653   6.821  15.913  1.0272  1.5988  0.1578
16068TIP3   OH269618   3.570   4.473  12.649  0.6917  0.2786 -0.1784
16068TIP3    H169619   3.536   4.423  12.575  0.6273  0.3746 -0.2127
16068TIP3    H269620   3.624   4.410  12.697  1.2571  0.3815 -0.6636
16069TIP3   OH269621   5.116   3.830   2.037 -0.0212 -0.0700  0.3312
16069TIP3    H169622   5.157   3.903   1.993 -0.8505  0.7667  0.9037
16069TIP3    H269623   5.103   3.860   2.127 -1.8708 -0.2681  0.1770
16070TIP3   OH269624   6.284   2.849   2.672  0.2551 -0.0865 -0.0689
16070TIP3    H169625   6.272   2.887   2.585 -1.5130 -0.2159  0.0745
16070TIP3    H269626   6.213   2.887   2.725 -0.2333 -1.8637  0.6534
16071TIP3   OH269627   0.056   0.454   5.508 -0.0422 -0.3403  0.3241
16071TIP3    H169628   0.113   0.380   5.529  1.8839  1.1487  0.6162
16071TIP3    H269629   0.050   0.504   5.589  1.7982  1.7804 -0.7397
16072TIP3   OH269630   4.514   5.528  13.553 -0.2895 -0.1415 -0.2099
16072TIP3    H169631   4.549   5.455  13.501 -1.4801  0.3122 -1.7348
16072TIP3    H269632   4.530   5.605  13.499  0.8417  0.7600  1.3253
16073TIP3   OH269633   3.061   2.275   2.934 -0.4246  0.4755 -0.1325
16073TIP3    H169634   3.154   2.293   2.946 -0.3210  0.0049 -0.2351
16073TIP3    H269635   3.057   2.214   2.861 -0.9544  2.1796 -1.5998
16074TIP3   OH269636   5.856   0.229   1.195  0.6314 -0.4180  0.0157
16074TIP3    H169637   5.826   0.195   1.279 -1.4552  2.4383  0.5855
16074TIP3    H269638   5.929   0.286   1.217 -0.0069  0.4438 -0.0385
16075TIP3   OH269639   4.757   6.734  11.644  0.5207 -0.3974  0.4241
16075TIP3    H169640   4.756   6.697  11.732  0.3946  0.5069  0.8079
16075TIP3    H269641   4.673   6.778  11.635  0.5615 -0.4188 -0.1290
16076TIP3   OH269642   0.686   3.223  15.791  0.2426 -0.2391  0.2794
16076TIP3    H169643   0.744   3.169  15.736 -1.6227 -0.9973 -1.0605
16076TIP3    H269644   0.702   3.312  15.761  1.7762 -0.2304  0.9994
16077TIP3   OH269645   5.873   5.600  11.005 -0.2147  0.4326  0.2863
16077TIP3    H169646   5.834   5.548  10.935  0.5608 -0.3830  0.4478
16077TIP3    H269647   5.823   5.682  11.005 -1.2065 -0.1656 -0.2033
16078TIP3   OH269648   1.622   3.714  11.332 -0.0347 -0.1303 -0.0854
16078TIP3    H169649   1.678   3.640  11.309 -0.7503 -0.6751 -0.1005
16078TIP3    H269650   1.544   3.703  11.278 -0.2179  0.5432  0.0359
16079TIP3   OH269651   2.811   4.472   1.959 -0.0703  0.0734  0.0927
16079TIP3    H169652   2.738   4.418   1.932  1.1632 -1.8196  0.3932
16079TIP3    H269653   2.886   4.440   1.909  1.2206 -0.2214  2.1068
16080TIP3   OH269654   0.906   4.401   7.063  0.1246 -0.3531  0.3802
16080TIP3    H169655   0.863   4.357   6.990 -0.6854 -0.8623  1.1437
16080TIP3    H269656   0.990   4.356   7.072 -0.7081 -1.8410  1.1808
16081TIP3   OH269657   3.521   5.228   4.137  0.4184 -0.2303 -0.1637
16081TIP3    H169658   3.495   5.312   4.175 -0.1018 -1.2085  1.7470
16081TIP3    H269659   3.441   5.195   4.097 -0.0155 -0.8466  1.1445
16082TIP3   OH269660   0.949   6.185  16.105  0.1659 -0.1983 -0.6201
16082TIP3    H169661   0.913   6.211  16.020 -0.3525 -0.9851 -0.6485
16082TIP3    H269662   0.905   6.242  16.168  1.1903  0.9912 -0.9427
16083TIP3   OH269663   3.927   2.754  16.408 -0.0057  0.4218  0.4746
16083TIP3    H169664   3.993   2.803  16.359  0.4452 -0.2174  0.4204
16083TIP3    H269665   3.851   2.811  16.410  0.7083  1.3734  0.9616
16084TIP3   OH269666   3.245   5.369  13.539  0.3288  0.5611 -0.0396
16084TIP3    H169667   3.166   5.328  13.503  0.9251 -0.2060 -0.5015
16084TIP3    H269668   3.303   5.296  13.559  0.9841  1.1265  0.1623
16085TIP3   OH269669   3.747   5.224   4.887 -0.0813  0.8171 -0.1738
16085TIP3    H169670   3.769   5.286   4.958  0.4746 -0.2312  0.5925
16085TIP3    H269671   3.832   5.192   4.857 -0.3543  0.6906 -0.8125
16086TIP3   OH269672   2.959   0.493  15.054  0.4510  0.1059  0.5408
16086TIP3    H169673   2.994   0.548  14.984 -1.6016  2.0615  0.9538
16086TIP3    H269674   2.916   0.420  15.007  0.8728  0.2851 -0.1358
16087TIP3   OH269675   6.333   4.359   0.006  0.5705  0.1027 -0.2103
16087TIP3    H169676   6.400   4.421  -0.025 -0.4985  1.3870 -0.0608
16087TIP3    H269677   6.357   4.342   0.097  0.2465  1.2559  0.1189
16088TIP3   OH269678   6.710   4.781  16.460 -0.0539  0.0732  0.0797
16088TIP3    H169679   6.751   4.840  16.523 -1.8101  0.8868  0.5229
16088TIP3    H269680   6.617   4.804  16.462 -0.5380 -1.5850 -0.9842
16089TIP3   OH269681   1.875   2.036  15.923  0.0259 -0.0693  0.1671
16089TIP3    H169682   1.942   2.069  15.862 -0.5029 -0.8648 -0.8874
16089TIP3    H269683   1.891   2.083  16.005  0.3334  1.5404 -0.7794
16090TIP3   OH269684   2.475   0.139   5.440  0.5103 -0.2525  0.0978
16090TIP3    H169685   2.430   0.056   5.420 -1.5350  0.3803  1.7478
16090TIP3    H269686   2.494   0.133   5.534 -0.3627  1.4399  0.4084
16091TIP3   OH269687   3.443   2.142  17.074 -0.0519 -0.1507 -0.1561
16091TIP3    H169688   3.495   2.180  17.144 -1.6580 -0.0554  1.0449
16091TIP3    H269689   3.501   2.079  17.032  0.6950 -0.8503  1.8307
16092TIP3   OH269690   1.707   3.884   0.561  0.5023  0.0664  0.7921
16092TIP3    H169691   1.731   3.951   0.497  0.7478 -1.2651 -0.5550
16092TIP3    H269692   1.640   3.831   0.517 -0.6126  0.1430  2.2986
16093TIP3   OH269693   4.417   4.643  16.689 -0.2791 -0.3829  0.2045
16093TIP3    H169694   4.365   4.697  16.629 -1.9578  1.4876  3.1030
16093TIP3    H269695   4.363   4.564  16.702  0.4402 -1.1479 -1.2034
16094TIP3   OH269696   4.439   1.852  12.159  0.3405 -0.2555  0.0291
16094TIP3    H169697   4.449   1.835  12.065 -0.1541 -0.7342  0.0567
16094TIP3    H269698   4.345   1.863  12.171  0.2185 -1.7066  0.7039
16095TIP3   OH269699   5.404   2.704  13.004  0.0624  0.3315  0.3660
16095TIP3    H169700   5.422   2.667  12.917  0.5403  0.2846  0.4842
16095TIP3    H269701   5.481   2.681  13.056 -1.2757 -1.8042  1.5155
16096TIP3   OH269702   5.601   2.053   0.860  0.0019  0.2193 -0.9431
16096TIP3    H169703   5.533   2.120   0.864 -0.0359  0.1390  0.4088
16096TIP3    H269704   5.568   1.983   0.917 -0.1938 -1.1905 -2.7087
16097TIP3   OH269705   0.479   5.338  13.117  0.0949 -0.1050 -0.1109
16097TIP3    H169706   0.538   5.323  13.190 -0.1953  1.8466  0.5852
16097TIP3    H269707   0.511   5.419  13.076 -0.8474 -0.1476 -0.9883
16098TIP3   OH269708   0.491   3.056  14.935  0.4882 -0.7406 -0.1130
16098TIP3    H169709   0.396   3.066  14.946  0.7940  0.7928  1.5879
16098TIP3    H269710   0.505   2.961  14.940 -1.0436 -1.0978 -1.6184
16099TIP3   OH269711   2.912   1.640  12.923 -0.1894 -0.2996 -0.9371
16099TIP3    H169712   2.862   1.621  13.002 -0.3809  1.1266 -0.6867
16099TIP3    H269713   2.945   1.554  12.894  2.6686 -0.6348  2.4841
16100TIP3   OH269714   3.522   1.591  11.963 -0.6142 -0.1599  0.7894
16100TIP3    H169715   3.565   1.561  11.883 -1.4162 -0.4069  0.4374
16100TIP3    H269716   3.556   1.680  11.976 -0.4870 -0.1090  0.1623
16101TIP3   OH269717   1.086   4.356  13.759 -0.1484  0.0395 -0.2886
16101TIP3    H169718   1.064   4.376  13.850  0.7092  1.8071 -0.4245
16101TIP3    H269719   1.049   4.269  13.744  1.1949 -1.1180  2.2887
16102TIP3   OH269720   0.711   4.863  14.390  0.0112  0.5715  0.3858
16102TIP3    H169721   0.685   4.890  14.302 -0.9515 -1.8291 -0.1426
16102TIP3    H269722   0.779   4.926  14.415  1.1652  0.6428 -2.5523
16103TIP3   OH269723   6.511   3.978   5.400 -0.3819 -0.2183  0.2677
16103TIP3    H169724   6.604   3.975   5.423 -0.5846  1.2985  1.4852
16103TIP3    H269725   6.475   3.899   5.440  0.0334  0.2671  1.6880
16104TIP3   OH269726   5.482   1.920  13.760  0.3619 -0.4638 -0.1414
16104TIP3    H169727   5.528   1.962  13.687  1.1028 -0.1273  0.4978
16104TIP3    H269728   5.462   1.832  13.729  0.5444 -0.2825 -0.7959
16105TIP3   OH269729   0.579   5.099  16.589 -0.1203 -0.3784 -0.2750
16105TIP3    H169730   0.517   5.106  16.662 -0.5792 -0.8011 -0.6122
16105TIP3    H269731   0.646   5.038  16.620 -1.0864 -1.7194 -0.7138
16106TIP3   OH269732   0.165   1.646   2.464  0.1470 -0.4034 -0.5949
16106TIP3    H169733   0.080   1.633   2.505  0.1467 -2.0022 -1.0311
16106TIP3    H269734   0.202   1.558   2.455  1.7182  0.2212 -0.6999
16107TIP3   OH269735   1.054   2.591  16.109  0.7290  0.2291  0.6449
16107TIP3    H169736   1.060   2.565  16.017  0.2034  0.4749  0.5367
16107TIP3    H269737   1.121   2.539  16.153  0.8393 -0.0489  0.1552
16108TIP3   OH269738   2.006   0.188  10.560 -0.3564  0.1019 -0.0742
16108TIP3    H169739   1.913   0.185  10.539 -0.3624 -1.1469  0.0335
16108TIP3    H269740   2.048   0.134  10.493 -0.0083 -1.2677  1.1853
16109TIP3   OH269741   0.049   1.019   5.391  0.0884  0.0697 -0.3191
16109TIP3    H169742   0.136   1.006   5.354  1.1984  0.1614  2.0620
16109TIP3    H269743   0.018   0.930   5.411  0.3265  0.1130  0.2648
16110TIP3   OH269744   6.211   2.206  17.047 -0.1031 -0.0540 -0.2146
16110TIP3    H169745   6.224   2.196  17.142  1.4756  0.2310 -0.3676
16110TIP3    H269746   6.127   2.250  17.039 -0.3404 -0.2381  1.0605
16111TIP3   OH269747   4.176   1.009   5.822  0.3195  0.5203 -0.8313
16111TIP3    H169748   4.217   0.927   5.794  0.5647  0.7954 -1.2862
16111TIP3    H269749   4.116   0.983   5.892  0.8985  0.0442 -0.5017
16112TIP3   OH269750   6.290   6.511  12.238 -0.0808  0.2376 -0.2117
16112TIP3    H169751   6.325   6.533  12.325  1.0121 -0.5100 -0.4392
16112TIP3    H269752   6.317   6.585  12.183  0.5794 -0.0186 -0.2393
16113TIP3   OH269753   1.364   4.759   3.600  0.4212 -0.5761 -0.6619
16113TIP3    H169754   1.450   4.738   3.564 -0.5699 -1.2044 -2.8948
16113TIP3    H269755   1.349   4.850   3.575  0.1724 -0.6737 -0.8713
16114TIP3   OH269756   5.701   2.965  13.061 -0.8925 -0.3027 -0.0278
16114TIP3    H169757   5.794   2.962  13.083 -1.1656 -0.7986  1.1605
16114TIP3    H269758   5.686   2.887  13.009 -0.6642 -0.2940 -0.1072
16115TIP3   OH269759   6.545   3.492   3.120  0.6080 -0.8853 -0.4875
16115TIP3    H169760   6.579   3.482   3.031 -0.0637  0.8445 -0.9702
16115TIP3    H269761   6.500   3.576   3.119 -2.4985 -2.3945  0.5202
16116TIP3   OH269762   5.282   4.049  13.031  0.4251 -0.0034  0.8426
16116TIP3    H169763   5.257   4.138  13.004  1.6259  0.3364  0.8019
16116TIP3    H269764   5.322   4.011  12.953 -0.8721 -0.9238  0.5825
16117TIP3   OH269765   2.869   4.728  12.815  0.0988  0.4091 -0.1762
16117TIP3    H169766   2.962   4.714  12.800  0.0008 -2.7717  1.2973
16117TIP3    H269767   2.852   4.817  12.783  2.8988 -0.0985 -3.6000
16118TIP3   OH269768   1.505   0.795  15.123 -0.2629  0.0446 -0.5501
16118TIP3    H169769   1.459   0.739  15.185  0.5009 -0.1854 -0.1805
16118TIP3    H269770   1.533   0.871  15.174  0.5611 -0.2490 -0.5547
16119TIP3   OH269771   6.351   1.066   3.954 -0.0736 -0.0788  0.1011
16119TIP3    H169772   6.375   1.017   3.876  2.9900 -2.0039  2.0038
16119TIP3    H269773   6.379   1.156   3.936 -2.3649  0.2877 -2.0780
16120TIP3   OH269774   2.166   5.612   2.708 -0.0511  0.2346  0.1234
16120TIP3    H169775   2.211   5.576   2.631  0.5721  0.9342  0.1412
16120TIP3    H269776   2.232   5.667   2.750 -0.3914 -0.1274  1.1568
16121TIP3   OH269777   3.294   0.600   6.067  0.3008 -0.2766  0.2031
16121TIP3    H169778   3.343   0.631   6.143  0.7683  0.5469 -0.4245
16121TIP3    H269779   3.202   0.620   6.088  0.4127 -0.1777  0.5994
16122TIP3   OH269780   2.642   1.917   1.468 -0.4812 -0.0611 -0.4845
16122TIP3    H169781   2.617   1.968   1.545  0.1073  1.7901 -1.4510
16122TIP3    H269782   2.737   1.907   1.474 -0.3478  0.6178 -1.2356
16123TIP3   OH269783   3.227   0.183  14.701 -0.3066  0.3249  0.2497
16123TIP3    H169784   3.173   0.235  14.641  1.8903  0.0694 -2.0892
16123TIP3    H269785   3.196   0.093  14.689 -1.2701  0.5142  1.1406
16124TIP3   OH269786   5.828   3.347  14.463  0.2066 -0.2066 -0.4109
16124TIP3    H169787   5.855   3.364  14.373 -0.0283 -1.4454 -0.7277
16124TIP3    H269788   5.874   3.267  14.487 -1.3973 -1.1089 -0.1909
16125TIP3   OH269789   1.001   3.593  16.962 -0.2622  0.7310  0.8861
16125TIP3    H169790   0.988   3.569  17.054 -1.0017  0.8379  0.8210
16125TIP3    H269791   0.964   3.681  16.955 -0.6471  0.5354  0.3886
16126TIP3   OH269792   1.274   1.054   0.475 -0.0609  0.2050  0.8808
16126TIP3    H169793   1.283   1.105   0.394 -2.2361 -0.8782 -0.1266
16126TIP3    H269794   1.231   1.114   0.536 -0.9885  0.1695  0.2836
16127TIP3   OH269795   3.712   3.764   5.250  0.3022  0.1710  0.1946
16127TIP3    H169796   3.798   3.764   5.292  0.6708  1.5785 -0.5091
16127TIP3    H269797   3.675   3.849   5.272  0.2465  0.7017 -1.7539
16128TIP3   OH269798   6.152   1.528  13.847 -0.1024 -0.3564 -0.4699
16128TIP3    H169799   6.094   1.596  13.882  1.0072  0.7392 -0.6716
16128TIP3    H269800   6.125   1.519  13.755 -0.7393 -0.7270 -0.2495
16129TIP3   OH269801   5.811   3.648  14.034  0.3587 -0.0494  0.4180
16129TIP3    H169802   5.787   3.676  13.946 -1.9511 -0.6875  0.7627
16129TIP3    H269803   5.775   3.716  14.091 -0.4079 -0.8906  0.9671
16130TIP3   OH269804   4.590   4.553   0.602 -0.3051  0.7109  0.4965
16130TIP3    H169805   4.650   4.611   0.555 -0.0199 -0.3537 -0.5111
16130TIP3    H269806   4.648   4.495   0.652 -0.3111 -1.5680 -1.9386
16131TIP3   OH269807   1.296   5.337  13.762  0.0405 -0.2790  0.2783
16131TIP3    H169808   1.299   5.432  13.751 -0.8325 -0.5264 -3.3089
16131TIP3    H269809   1.213   5.322  13.808  0.2793  0.6764  1.0635
16132TIP3   OH269810   3.437   3.272   0.111  0.1475  0.1763  0.0777
16132TIP3    H169811   3.513   3.306   0.064 -0.3529  1.3069  0.0429
16132TIP3    H269812   3.434   3.324   0.192 -1.3791  1.1570 -0.5573
16133TIP3   OH269813   6.485   6.557  13.525  0.4855  0.0679 -0.2799
16133TIP3    H169814   6.520   6.479  13.567 -0.0779  0.1244  0.3105
16133TIP3    H269815   6.513   6.629  13.582  0.3535  0.2243 -0.4103
16134TIP3   OH269816   1.910   6.652  10.680 -0.9147 -0.0346  0.0738
16134TIP3    H169817   1.989   6.700  10.705 -0.4730 -0.8656  0.3384
16134TIP3    H269818   1.861   6.641  10.761  0.1387 -2.0479  0.5118
16135TIP3   OH269819   6.610   0.604   5.894  0.2177  0.0439 -0.0534
16135TIP3    H169820   6.587   0.570   5.807 -0.9821  0.2094  0.1863
16135TIP3    H269821   6.571   0.542   5.955 -0.8648  1.0861  0.3724
16136TIP3   OH269822   2.599   5.403  14.139 -0.9360 -0.1897  0.2927
16136TIP3    H169823   2.542   5.458  14.085 -0.8260  1.2010  1.5218
16136TIP3    H269824   2.682   5.402  14.093 -0.2712  2.5054  1.2409
16137TIP3   OH269825   1.869   1.403   3.443 -0.3064  0.3918 -0.3352
16137TIP3    H169826   1.859   1.491   3.406  1.5246  0.7348 -0.1004
16137TIP3    H269827   1.832   1.345   3.376 -0.7601  1.2800 -0.8721
16138TIP3   OH269828   1.574   4.082  11.767  0.3717 -0.0628 -0.4663
16138TIP3    H169829   1.551   4.069  11.859  1.0774 -0.0065 -0.2760
16138TIP3    H269830   1.613   3.999  11.740  2.1720  0.6101 -0.0835
16139TIP3   OH269831   3.752   2.271  12.264  0.1989 -0.3079 -0.4225
16139TIP3    H169832   3.752   2.260  12.359 -0.7663 -0.0140 -0.3743
16139TIP3    H269833   3.776   2.362  12.251  0.4167 -0.3719 -0.4605
16140TIP3   OH269834   5.770   1.912  16.014  0.1936  0.5134  0.0491
16140TIP3    H169835   5.798   1.822  15.996  3.4574  1.0948  1.4874
16140TIP3    H269836   5.771   1.955  15.929 -0.3591 -0.5307 -0.5066
16141TIP3   OH269837   0.779   4.066   6.184 -1.0289 -0.1803 -0.3339
16141TIP3    H169838   0.687   4.041   6.172 -0.4876 -1.9132 -1.2533
16141TIP3    H269839   0.827   4.005   6.128  0.6374  1.2459 -0.5313
16142TIP3   OH269840   5.998   2.551   5.061 -0.4514 -0.3090 -0.0861
16142TIP3    H169841   6.078   2.580   5.017 -0.6777  0.5305  0.0369
16142TIP3    H269842   6.017   2.461   5.089  1.3463  0.6560  2.0625
16143TIP3   OH269843   2.586   1.585   5.512  0.4837 -0.0909  0.0656
16143TIP3    H169844   2.530   1.508   5.518  0.6892 -0.1405  2.2055
16143TIP3    H269845   2.671   1.556   5.545  1.3038  0.4418 -1.4578
16144TIP3   OH269846   3.969   4.379  14.279 -0.0468 -0.2717 -0.0949
16144TIP3    H169847   3.938   4.291  14.300 -2.2612  0.2909 -0.7835
16144TIP3    H269848   3.911   4.409  14.209  0.7458  1.7077  0.0259
16145TIP3   OH269849   0.488   2.473   3.343  0.4616 -0.2571 -0.2657
16145TIP3    H169850   0.517   2.463   3.434  0.9970  1.4417 -0.2199
16145TIP3    H269851   0.404   2.518   3.349  0.4806 -0.1705 -0.6104
16146TIP3   OH269852   5.595   1.166  11.007  1.0013  0.1158  0.1644
16146TIP3    H169853   5.554   1.228  10.947  1.8578  1.1099  0.5734
16146TIP3    H269854   5.589   1.082  10.962  0.6727  0.6518 -0.8289
16147TIP3   OH269855   2.248   2.558  16.151  0.1419 -0.2328  0.5852
16147TIP3    H169856   2.339   2.587  16.144  0.2975 -0.5348  1.2662
16147TIP3    H269857   2.196   2.638  16.140  0.3928 -0.3300 -1.7577
16148TIP3   OH269858   0.182   2.201   3.323 -0.2384 -0.6150  0.1520
16148TIP3    H169859   0.183   2.271   3.388 -1.1721  0.8008 -1.2681
16148TIP3    H269860   0.242   2.136   3.357  1.3574  1.2665  1.1449
16149TIP3   OH269861   1.611   4.922   1.469 -0.5736  0.2520  0.5978
16149TIP3    H169862   1.605   4.835   1.510 -0.3473 -0.6384 -1.1503
16149TIP3    H269863   1.530   4.930   1.418  0.8936 -0.5204 -2.0748
16150TIP3   OH269864   1.540   5.196   3.987 -0.0278 -0.3773  0.0840
16150TIP3    H169865   1.550   5.290   3.998  0.9803 -0.5304  0.5536
16150TIP3    H269866   1.452   5.177   4.021  0.7784  0.0185  2.5684
16151TIP3   OH269867   6.532   5.416  11.501 -0.3370  0.2367  0.1250
16151TIP3    H169868   6.509   5.383  11.414 -1.4191  1.3312 -0.0343
16151TIP3    H269869   6.620   5.381  11.517  0.1310  0.4660 -1.6447
16152TIP3   OH269870   2.055   0.194   1.312 -0.5392  0.1512 -0.3758
16152TIP3    H169871   2.016   0.271   1.353 -0.0332 -0.3878  1.1729
16152TIP3    H269872   2.067   0.219   1.220  0.0931  2.1075  0.1967
16153TIP3   OH269873   4.378   5.394  15.229  0.0903  0.4275  0.3506
16153TIP3    H169874   4.452   5.395  15.169 -1.1047  0.5037 -1.2087
16153TIP3    H269875   4.305   5.427  15.176 -1.3521 -0.9632  1.4049
16154TIP3   OH269876   3.242   1.910  15.523 -0.2475 -0.1884 -0.4706
16154TIP3    H169877   3.227   1.827  15.570  0.9977  1.8065  3.9529
16154TIP3    H269878   3.156   1.952  15.520 -0.0840  0.4839  2.0659
16155TIP3   OH269879   2.585   4.867  14.292 -0.4376 -0.0340 -0.0238
16155TIP3    H169880   2.647   4.827  14.232 -0.0182 -1.2564  1.1724
16155TIP3    H269881   2.579   4.958  14.263  1.1149 -0.1391 -0.7880
16156TIP3   OH269882   6.511   5.323  14.946  0.5639  0.3607 -0.5405
16156TIP3    H169883   6.530   5.405  14.901 -1.5996  0.8640 -0.6592
16156TIP3    H269884   6.548   5.334  15.033 -0.8492  2.0528 -0.1050
16157TIP3   OH269885   3.216   3.546   3.936 -0.0254 -0.4177  0.1847
16157TIP3    H169886   3.292   3.515   3.985  0.8260  1.5667  0.1715
16157TIP3    H269887   3.252   3.587   3.858 -1.2675 -1.5128 -1.0290
16158TIP3   OH269888   1.493   1.618  15.109  0.1464  0.1534 -0.3215
16158TIP3    H169889   1.583   1.647  15.093  1.8459 -3.7982  0.6198
16158TIP3    H269890   1.449   1.630  15.025  1.8031  1.4540 -1.0663
16159TIP3   OH269891   5.122   4.604   5.358 -0.0264  0.4188  0.2166
16159TIP3    H169892   5.066   4.588   5.434 -1.8089  1.2231 -0.8812
16159TIP3    H269893   5.072   4.664   5.302 -0.2167 -2.4754 -3.0858
16160TIP3   OH269894   5.374   2.321  13.955 -0.0880 -0.0748  0.0601
16160TIP3    H169895   5.342   2.382  14.021 -0.6161  0.7686 -0.9436
16160TIP3    H269896   5.389   2.375  13.877 -1.1790 -1.2861 -1.0565
16161TIP3   OH269897   2.535   5.224   0.538 -0.3592 -0.0031  0.7673
16161TIP3    H169898   2.506   5.148   0.588 -4.1608  0.3895 -0.5193
16161TIP3    H269899   2.459   5.282   0.535  1.4400  2.5300 -0.8345
16162TIP3   OH269900   2.051   5.229   0.713 -0.1015 -0.1653 -0.0711
16162TIP3    H169901   2.021   5.264   0.797  0.1950  0.4858 -0.2275
16162TIP3    H269902   2.145   5.249   0.712 -0.3204  0.8830 -1.0577
16163TIP3   OH269903   4.383   1.465   0.378 -0.4364  0.1490 -0.4091
16163TIP3    H169904   4.372   1.370   0.381  0.5320  0.0494  1.7581
16163TIP3    H269905   4.448   1.480   0.310  0.6668 -0.9073  0.3944
16164TIP3   OH269906   1.289   1.537  15.335  0.2576  0.5149 -0.2719
16164TIP3    H169907   1.341   1.568  15.261  0.6105  2.0456  0.5888
16164TIP3    H269908   1.209   1.590  15.331  0.1261  0.3553  0.2335
16165TIP3   OH269909   6.698   4.258  15.941 -0.2268 -0.7372  0.5495
16165TIP3    H169910   6.788   4.288  15.927 -0.1970 -0.7972  0.6082
16165TIP3    H269911   6.653   4.277  15.859 -0.0913 -0.9522  0.4232
16166TIP3   OH269912   1.287   2.992  11.159 -0.5573  0.3021  0.5380
16166TIP3    H169913   1.211   3.049  11.146 -1.5670 -0.9724  0.7457
16166TIP3    H269914   1.251   2.907  11.183  0.9158 -0.4992  0.0781
16167TIP3   OH269915   4.972   3.853   2.351 -0.1817  0.4678  0.4284
16167TIP3    H169916   4.922   3.772   2.353 -1.5208  1.2908  1.1507
16167TIP3    H269917   5.060   3.827   2.378 -0.3001 -0.9201 -0.4156
16168TIP3   OH269918   3.941   1.177   3.358 -0.0504 -0.1283 -0.3241
16168TIP3    H169919   3.990   1.096   3.346 -0.3510 -0.2623 -0.6433
16168TIP3    H269920   3.972   1.211   3.442 -1.9079 -1.9587  1.2198
16169TIP3   OH269921   3.627   4.483   1.171 -0.2295 -0.0129 -0.1671
16169TIP3    H169922   3.555   4.544   1.153 -1.0399 -0.3533  1.6654
16169TIP3    H269923   3.619   4.416   1.103  0.1817  1.4553 -1.7352
16170TIP3   OH269924   3.366   2.716   5.524  0.0036  0.0594 -0.0929
16170TIP3    H169925   3.445   2.668   5.552 -0.1352  1.1326  2.3553
16170TIP3    H269926   3.293   2.663   5.557 -0.1891  0.8983  0.8710
16171TIP3   OH269927   6.647   3.851   3.422  0.7584 -0.0509 -0.0426
16171TIP3    H169928   6.670   3.764   3.390  1.5401  0.3143 -0.5009
16171TIP3    H269929   6.728   3.885   3.460  1.4741  1.7854 -2.8595
16172TIP3   OH269930   1.078   0.471   1.636  0.7495  0.1852  0.1852
16172TIP3    H169931   1.116   0.384   1.647 -3.0890 -1.9694 -1.4866
16172TIP3    H269932   1.000   0.471   1.692  1.2807  3.1476  1.1443
16173TIP3   OH269933   2.054   2.480  15.282 -0.3461  0.3315  0.3175
16173TIP3    H169934   1.976   2.536  15.286 -0.4608  0.2068 -0.0870
16173TIP3    H269935   2.125   2.535  15.316 -0.5489  0.5585  0.3749
16174TIP3   OH269936   4.439   5.103  12.699 -0.5802  0.5780  0.3287
16174TIP3    H169937   4.432   5.057  12.615 -1.0787  2.5599 -0.7813
16174TIP3    H269938   4.485   5.041  12.756  0.4239 -0.5738 -1.6039
16175TIP3   OH269939   3.234   5.310  13.125  0.0810  0.1221  0.1390
16175TIP3    H169940   3.175   5.277  13.193  1.1424 -1.8570  0.1860
16175TIP3    H269941   3.305   5.353  13.173 -0.0714  0.3025  0.2023
16176TIP3   OH269942   1.337   5.157  13.572 -0.0141 -0.2324  0.6162
16176TIP3    H169943   1.283   5.211  13.629 -0.5130  0.0643 -0.1281
16176TIP3    H269944   1.408   5.215  13.545  0.3299 -0.4297  1.0747
16177TIP3   OH269945   6.466   3.253  10.973 -0.4710 -0.0514  0.1432
16177TIP3    H169946   6.373   3.241  10.993 -0.2917  0.7118  1.5624
16177TIP3    H269947   6.494   3.169  10.936 -1.7733 -0.1951 -0.5898
16178TIP3   OH269948   2.468   0.319  15.799  0.0732  0.0904  0.3058
16178TIP3    H169949   2.376   0.342  15.803  0.2478  0.8164  0.2786
16178TIP3    H269950   2.511   0.397  15.764  1.1269  1.0234  3.3542
16179TIP3   OH269951   5.254   6.249   3.507 -0.5051 -0.0120  0.0574
16179TIP3    H169952   5.324   6.232   3.571 -1.0518  1.0261  0.9769
16179TIP3    H269953   5.201   6.170   3.508 -0.0087 -0.3467  0.2463
16180TIP3   OH269954   2.029   5.929  16.541 -0.3241  0.3481  0.1597
16180TIP3    H169955   2.018   5.948  16.634  1.0007  0.7514  0.2507
16180TIP3    H269956   1.940   5.933  16.505 -0.9020 -0.2725  1.4775
16181TIP3   OH269957   6.362   4.121  13.746  0.2789 -0.3205  0.1782
16181TIP3    H169958   6.323   4.117  13.659  1.5488 -2.1463 -0.3674
16181TIP3    H269959   6.324   4.047  13.793 -0.7345  0.9058  1.3750
16182TIP3   OH269960   6.428   3.195  17.000  0.3483 -0.2070  0.3031
16182TIP3    H169961   6.503   3.174  17.056  1.0946 -2.2667 -1.3246
16182TIP3    H269962   6.461   3.264  16.942  0.5627 -0.1942  0.4365
16183TIP3   OH269963   4.112   6.590  11.735  0.5303 -0.8859  0.2794
16183TIP3    H169964   4.021   6.565  11.720  0.1654 -0.6708  1.9801
16183TIP3    H269965   4.134   6.551  11.820  1.6878 -0.0531  0.3898
16184TIP3   OH269966   5.906   0.488  13.120  0.3662  0.2053  0.1958
16184TIP3    H169967   5.835   0.516  13.177 -1.2991 -0.9925 -1.2129
16184TIP3    H269968   5.950   0.419  13.170  0.0018  0.3463  0.7203
16185TIP3   OH269969   5.432   0.907  15.165 -0.0942  0.0806 -0.1733
16185TIP3    H169970   5.399   0.861  15.088 -0.5766  2.1085 -1.2573
16185TIP3    H269971   5.487   0.843  15.210 -2.1100 -2.0538 -0.6124
16186TIP3   OH269972   6.369   3.869   1.148  0.0565  0.2668 -0.2006
16186TIP3    H169973   6.292   3.920   1.175  0.7868  0.9023  0.7325
16186TIP3    H269974   6.420   3.929   1.095  0.5155  0.2545  0.2213
16187TIP3   OH269975   3.422   6.706  11.222  0.2953  0.4296  0.2713
16187TIP3    H169976   3.433   6.614  11.200  0.9252  0.6932 -0.6001
16187TIP3    H269977   3.370   6.741  11.149 -0.1600  0.7168  0.7262
16188TIP3   OH269978   0.516   5.291  14.625  0.2997  0.1827 -0.2178
16188TIP3    H169979   0.551   5.379  14.614 -0.5410  0.2648 -2.7275
16188TIP3    H269980   0.548   5.242  14.550 -0.6342 -1.1927  0.2286
16189TIP3   OH269981   4.662   2.585  12.702 -0.0727  0.4108  0.9160
16189TIP3    H169982   4.588   2.634  12.738  0.1852  2.9791 -1.6632
16189TIP3    H269983   4.655   2.597  12.607  2.5095 -0.9722  0.4601
16190TIP3   OH269984   4.697   6.739   4.564 -0.3145 -0.0401  0.0042
16190TIP3    H169985   4.644   6.660   4.558 -1.3133  0.6081  0.1840
16190TIP3    H269986   4.643   6.802   4.611  1.0350  0.2812  1.2308
16191TIP3   OH269987   5.370   3.086  17.243  0.2644 -0.1073  0.4089
16191TIP3    H169988   5.320   3.012  17.206  0.1490  0.4671 -0.6392
16191TIP3    H269989   5.330   3.102  17.328 -1.0162  0.0097 -0.1914
16192TIP3   OH269990   4.456   1.208   3.354 -0.5419  0.7965 -0.0537
16192TIP3    H169991   4.469   1.119   3.388 -1.5817  0.6325 -0.0450
16192TIP3    H269992   4.490   1.265   3.422 -0.5696  0.4187  0.2797
16193TIP3   OH269993   3.895   6.725  15.068 -0.8265  0.2040 -0.1761
16193TIP3    H169994   3.833   6.672  15.018  0.0359 -0.9811 -0.0012
16193TIP3    H269995   3.903   6.806  15.017 -0.3938 -0.7543 -1.6844
16194TIP3   OH269996   3.583   1.616   4.252  0.1194 -0.3589 -0.6809
16194TIP3    H169997   3.676   1.591   4.250  0.1468 -0.4866  1.0214
16194TIP3    H269998   3.548   1.586   4.168  1.3211 -1.4763 -0.8070
16195TIP3   OH269999   5.746   6.699  13.252  0.0931 -0.4351 -0.3657
16195TIP3    H170000   5.720   6.644  13.178  0.7573  0.9476 -1.6873
16195TIP3    H270001   5.672   6.695  13.312 -0.4198 -1.6940 -1.0297
16196TIP3   OH270002   5.998   0.958   3.372 -0.1378  0.2409 -0.1057
16196TIP3    H170003   5.935   1.018   3.331  0.3261  0.8890  0.1239
16196TIP3    H270004   6.077   0.967   3.319  0.4915  1.1388  0.9511
16197TIP3   OH270005   5.138   1.153  12.198  0.0335  0.3940 -0.4735
16197TIP3    H170006   5.054   1.198  12.209 -0.2781 -0.3525  0.3182
16197TIP3    H270007   5.141   1.129  12.105  0.3566  2.3003 -0.9901
16198TIP3   OH270008   5.090   5.295  15.381 -0.5669  0.1219 -0.2921
16198TIP3    H170009   5.149   5.280  15.454 -0.0503 -1.4837 -0.9980
16198TIP3    H270010   5.002   5.293  15.420 -0.2815 -0.3595  0.3351
16199TIP3   OH270011   3.877   2.918   1.836  0.2678 -0.5562 -0.4025
16199TIP3    H170012   3.916   2.858   1.899 -2.4564 -1.7363  0.3066
16199TIP3    H270013   3.951   2.966   1.800  2.2032 -1.7596  1.6856
16200TIP3   OH270014   6.179   2.736  15.045 -0.4042 -0.0586 -0.1944
16200TIP3    H170015   6.266   2.753  15.010 -0.5590  0.5052 -0.3046
16200TIP3    H270016   6.161   2.645  15.020  0.2285 -0.2458 -0.0029
16201TIP3   OH270017   2.443   6.000  14.673  0.0285 -0.1369 -0.5961
16201TIP3    H170018   2.353   6.024  14.651  0.1654 -0.5356 -1.6433
16201TIP3    H270019   2.455   5.913  14.635  0.5372 -0.5294  0.4286
16202TIP3   OH270020   0.420   4.625   4.347  0.0599 -0.2048  0.4975
16202TIP3    H170021   0.464   4.597   4.267  1.6286  0.6198  1.0281
16202TIP3    H270022   0.452   4.714   4.362 -0.8473 -0.0395  1.5952
16203TIP3   OH270023   3.232   1.217   0.092  0.3784  0.4851  0.1775
16203TIP3    H170024   3.138   1.232   0.095  0.3274  0.2925 -0.3925
16203TIP3    H270025   3.242   1.129   0.057  0.7804  0.6696 -0.1880
16204TIP3   OH270026   3.745   4.167  16.480  0.3497 -0.1083  0.0443
16204TIP3    H170027   3.752   4.077  16.511 -0.5494 -0.6052 -1.1067
16204TIP3    H270028   3.652   4.188  16.487  0.5269  0.6654  0.1452
16205TIP3   OH270029   1.714   4.358  10.767 -0.1902  0.0156  0.1379
16205TIP3    H170030   1.663   4.348  10.686  1.6462 -0.0456 -1.0735
16205TIP3    H270031   1.707   4.451  10.788 -0.0173  0.2006 -0.5832
16206TIP3   OH270032   0.901   4.919  16.165 -0.0547  0.0286 -0.0143
16206TIP3    H170033   0.989   4.923  16.127 -0.5161 -0.2069 -1.1303
16206TIP3    H270034   0.905   4.980  16.239  1.2511 -0.5057  0.3816
16207TIP3   OH270035   2.810   4.033  15.292  0.1389 -0.2956  0.1694
16207TIP3    H170036   2.885   3.983  15.326  1.1915 -1.7006 -3.7089
16207TIP3    H270037   2.746   4.031  15.363  2.7997 -1.1016  2.7819
16208TIP3   OH270038   5.021   6.476  13.495 -0.0811  0.3619  0.0683
16208TIP3    H170039   5.085   6.498  13.428  1.0719 -0.3061  0.9154
16208TIP3    H270040   5.050   6.522  13.574 -0.6414  0.0563  0.4646
16209TIP3   OH270041   4.501   1.686   0.922 -0.0728 -0.3068  0.8181
16209TIP3    H170042   4.533   1.613   0.869  0.4611  0.0010  0.7140
16209TIP3    H270043   4.576   1.744   0.931 -0.4473  0.1466  1.0508
16210TIP3   OH270044   5.486   4.816   0.254 -0.0542 -0.0479  0.0564
16210TIP3    H170045   5.517   4.783   0.338  1.6395  0.7037 -0.2170
16210TIP3    H270046   5.391   4.809   0.259 -0.1103  1.1990  2.5721
16211TIP3   OH270047   1.824   6.716   4.124  0.9511 -0.4212  0.3190
16211TIP3    H170048   1.734   6.748   4.126  0.8569 -0.6956  0.4716
16211TIP3    H270049   1.868   6.762   4.195  1.0381  0.0259 -0.0211
16212TIP3   OH270050   4.084   5.462  12.567 -0.3441  0.0878  0.7893
16212TIP3    H170051   4.070   5.432  12.657 -0.1751 -0.8116  0.5230
16212TIP3    H270052   4.175   5.442  12.548 -0.5490 -0.3429  0.2024
16213TIP3   OH270053   2.334   1.997  13.762 -0.4757 -0.7276 -0.3295
16213TIP3    H170054   2.354   1.947  13.683 -1.7442 -1.3422 -0.2849
16213TIP3    H270055   2.317   2.086  13.730 -0.2837 -0.8089 -0.6671
16214TIP3   OH270056   0.288   6.315   2.587  0.0901 -0.3518  0.3086
16214TIP3    H170057   0.359   6.297   2.649  0.6427 -0.0527 -0.2361
16214TIP3    H270058   0.217   6.349   2.642  0.5544 -0.1343  0.7840
16215TIP3   OH270059   6.279   0.315   4.179 -0.5915  0.3132  0.1726
16215TIP3    H170060   6.269   0.408   4.163 -0.4532  0.1945 -0.6204
16215TIP3    H270061   6.328   0.310   4.261  1.0238  0.9623 -0.7220
16216TIP3   OH270062   1.730   2.425   1.161 -0.1759  0.2147 -0.2948
16216TIP3    H170063   1.654   2.456   1.112 -2.1889 -1.2255  1.6561
16216TIP3    H270064   1.730   2.330   1.148  0.2872  0.0085  1.0049
16217TIP3   OH270065   3.700   6.055   2.016  0.3275  0.3299 -0.4903
16217TIP3    H170066   3.772   6.062   1.954  0.2803 -1.0674 -0.7513
16217TIP3    H270067   3.693   5.961   2.034 -2.2686  0.2512 -1.4968
16218TIP3   OH270068   2.123   5.007   3.541  0.4470 -0.4759  0.2134
16218TIP3    H170069   2.214   5.036   3.542  0.3953 -0.2076 -1.0569
16218TIP3    H270070   2.079   5.063   3.604  1.1658 -0.6387  0.8744
16219TIP3   OH270071   3.826   1.343   5.303  0.0341  0.4903  0.8097
16219TIP3    H170072   3.857   1.389   5.381 -0.2416  0.5616  0.8780
16219TIP3    H270073   3.900   1.349   5.241  0.6316 -0.4468  1.4205
16220TIP3   OH270074   5.016   6.507   6.612 -0.4515  0.5962 -0.2007
16220TIP3    H170075   5.086   6.456   6.652 -1.2603 -0.3810  0.0258
16220TIP3    H270076   4.959   6.531   6.685 -1.8583 -1.0707 -0.6802
16221TIP3   OH270077   5.991   5.256   4.217 -0.2549 -0.0584  0.5945
16221TIP3    H170078   6.022   5.190   4.154 -0.9207 -1.1677  1.3790
16221TIP3    H270079   6.024   5.226   4.301 -1.5833 -0.0739  1.1416
16222TIP3   OH270080   6.326   5.171   0.504 -0.2304  0.1148 -0.5952
16222TIP3    H170081   6.230   5.174   0.504 -0.2536 -0.5125 -1.6177
16222TIP3    H270082   6.351   5.202   0.417  0.5257  0.8248 -0.1411
16223TIP3   OH270083   6.475   1.889   4.165 -0.2778  0.2124 -0.3691
16223TIP3    H170084   6.475   1.964   4.224 -1.8676 -1.2657  1.6574
16223TIP3    H270085   6.413   1.911   4.096 -1.3454  0.4572  0.6575
16224TIP3   OH270086   5.056   5.177  13.606 -0.1875  0.1249  0.0220
16224TIP3    H170087   5.108   5.257  13.615 -0.9903  0.8601 -1.3787
16224TIP3    H270088   4.972   5.198  13.647 -0.3858  0.0036 -0.3144
16225TIP3   OH270089   1.931   5.787   4.985 -0.4753 -0.3738 -0.2296
16225TIP3    H170090   1.922   5.693   4.999 -2.1593 -0.3985 -1.2744
16225TIP3    H270091   2.011   5.810   5.033 -0.2562 -2.2411  0.4010
16226TIP3   OH270092   2.604   1.065   3.436  0.3239  0.3306  0.5463
16226TIP3    H170093   2.535   1.044   3.373  1.6988 -1.4248 -0.4449
16226TIP3    H270094   2.660   1.127   3.390  0.2284  0.6182  0.8129
16227TIP3   OH270095   2.799   3.593  11.148  0.0277  0.2521  0.1489
16227TIP3    H170096   2.880   3.559  11.111  0.7606  0.9938  1.0230
16227TIP3    H270097   2.822   3.679  11.182 -1.1772  0.5586  0.2474
16228TIP3   OH270098   1.931   2.253   1.336 -0.3986  0.2159  0.0475
16228TIP3    H170099   1.946   2.275   1.244 -1.4597  0.6143 -0.0402
16228TIP3    H270100   1.847   2.208   1.337 -0.6118  0.6142  0.8790
16229TIP3   OH270101   0.127   5.137  16.423  0.2581 -0.3482  0.5200
16229TIP3    H170102   0.151   5.095  16.340  1.4516 -0.6094  0.9841
16229TIP3    H270103   0.119   5.230  16.401  0.4444 -0.4327  0.0839
16230TIP3   OH270104   0.006   1.457   0.714  0.0948  0.2923  0.3805
16230TIP3    H170105  -0.000   1.363   0.734 -0.2358 -0.3062 -2.1648
16230TIP3    H270106   0.100   1.473   0.707  0.1551  0.1903  0.8769
16231TIP3   OH270107   6.623   2.582  10.562 -0.1260 -0.1140  0.2293
16231TIP3    H170108   6.632   2.677  10.572  1.5475 -0.3197  1.0592
16231TIP3    H270109   6.543   2.571  10.511 -3.7564  1.4710  4.9229
16232TIP3   OH270110   3.670   4.241  16.026  0.1287 -0.1961  0.0273
16232TIP3    H170111   3.654   4.321  16.076  0.4556 -1.1777  1.7676
16232TIP3    H270112   3.582   4.211  16.002  0.0070  0.7129 -0.7367
16233TIP3   OH270113   2.664   3.281   0.719 -0.0115 -0.0927  0.2706
16233TIP3    H170114   2.725   3.220   0.760  1.3453  0.8486 -0.2671
16233TIP3    H270115   2.593   3.226   0.687  1.3174 -1.4545 -0.4922
16234TIP3   OH270116   5.185   3.477  14.294 -0.2427 -0.6637 -0.0596
16234TIP3    H170117   5.131   3.507  14.221 -0.9930 -0.1648  0.6860
16234TIP3    H270118   5.259   3.433  14.252 -0.2193  0.3503 -1.1327
16235TIP3   OH270119   1.576   1.781  17.013 -0.4731 -0.1978 -0.0533
16235TIP3    H170120   1.489   1.777  17.051 -2.0125 -0.1265 -3.2049
16235TIP3    H270121   1.616   1.697  17.033 -2.1610 -1.1142 -0.4015
16236TIP3   OH270122   6.742   1.190   0.758  0.7541 -0.9224 -0.2024
16236TIP3    H170123   6.759   1.097   0.743  2.7340 -0.4229 -1.5282
16236TIP3    H270124   6.666   1.210   0.703 -1.6023 -2.2928  2.3279
16237TIP3   OH270125   3.429   5.211   5.516  0.3774  0.2586 -0.3054
16237TIP3    H170126   3.415   5.149   5.587 -2.8756  0.1022 -0.9473
16237TIP3    H270127   3.419   5.159   5.436  1.9461  0.8368 -0.9327
16238TIP3   OH270128   2.237   5.236   1.667  0.5042 -0.1554  0.3980
16238TIP3    H170129   2.232   5.325   1.700 -0.5626 -0.0728  0.0624
16238TIP3    H270130   2.158   5.193   1.701  0.3846 -0.6174 -0.4298
16239TIP3   OH270131   3.162   2.894  10.616 -0.1601 -0.4174 -0.4652
16239TIP3    H170132   3.080   2.939  10.636  1.4848  2.6243  0.1395
16239TIP3    H270133   3.160   2.882  10.521 -1.8584 -1.6849 -0.3028
16240TIP3   OH270134   0.457   2.915   0.736  0.1490 -0.2146 -0.3888
16240TIP3    H170135   0.468   2.839   0.794  0.1796 -0.7124 -1.0361
16240TIP3    H270136   0.526   2.905   0.671  0.2855  0.4934 -0.3546
16241TIP3   OH270137   5.698   5.784   1.240  0.3449  0.7699 -0.1804
16241TIP3    H170138   5.716   5.768   1.332  0.3478 -0.3120 -0.3477
16241TIP3    H270139   5.784   5.779   1.198  0.1359 -0.7999 -0.4952
16242TIP3   OH270140   1.056   0.677  11.386 -0.0868  0.0489 -0.6754
16242TIP3    H170141   1.120   0.632  11.331 -0.2360 -0.7836 -0.1888
16242TIP3    H270142   0.973   0.669  11.339 -0.6981 -2.6735  0.6474
16243TIP3   OH270143   6.275   3.199  12.036  0.0927 -0.1240  0.5151
16243TIP3    H170144   6.313   3.267  11.980  1.9058  0.5087  2.3932
16243TIP3    H270145   6.233   3.246  12.107 -0.6352 -0.9531  0.6567
16244TIP3   OH270146   2.712   0.401  16.655 -0.7399  0.4224 -0.2611
16244TIP3    H170147   2.658   0.323  16.648 -0.4158  0.2285 -0.7043
16244TIP3    H270148   2.704   0.443  16.569 -2.9630  2.2733  0.7498
16245TIP3   OH270149   2.537   6.246   0.036 -0.3405  0.5503 -0.5285
16245TIP3    H170150   2.460   6.230   0.090  0.7191 -0.9482  0.5995
16245TIP3    H270151   2.523   6.192  -0.042  0.7346 -1.9007  0.8724
16246TIP3   OH270152   2.423   1.289  15.202 -0.4222  0.4208 -0.8676
16246TIP3    H170153   2.455   1.280  15.292  0.9638 -0.0859 -1.3824
16246TIP3    H270154   2.329   1.301  15.211 -0.1517  1.6712  0.7262
16247TIP3   OH270155   5.197   4.586   5.858  0.0372 -0.3740  0.2381
16247TIP3    H170156   5.140   4.529   5.910  0.2034 -0.7496  0.0026
16247TIP3    H270157   5.216   4.660   5.917 -0.5961 -0.3011  0.3622
16248TIP3   OH270158   2.252   2.195   1.511  0.2278 -0.0244  0.0541
16248TIP3    H170159   2.276   2.149   1.430 -0.7605 -0.9728  0.2838
16248TIP3    H270160   2.316   2.266   1.517  2.7363 -2.1483  0.4045
16249TIP3   OH270161   0.606   2.502   2.370 -0.4625  0.0669 -0.0643
16249TIP3    H170162   0.657   2.502   2.451  2.6874  0.1838 -1.8769
16249TIP3    H270163   0.613   2.412   2.338 -0.7885  0.2604 -0.6930
16250TIP3   OH270164   2.686   2.227  16.033  0.1493 -0.1462 -0.5336
16250TIP3    H170165   2.625   2.278  15.979 -0.3072  0.5970  0.6473
16250TIP3    H270166   2.636   2.149  16.057 -0.6740  0.8057  1.0522
16251TIP3   OH270167   5.354   3.061  16.895  0.2171  0.1111  0.5085
16251TIP3    H170168   5.430   3.003  16.893 -0.5382 -0.8848 -1.6230
16251TIP3    H270169   5.304   3.038  16.817 -1.6786  1.5613  1.2266
16252TIP3   OH270170   0.067   2.878  15.492  0.3281 -0.5282 -0.5858
16252TIP3    H170171   0.157   2.907  15.473  0.3053  0.3296  0.4758
16252TIP3    H270172   0.063   2.876  15.587 -1.1025  0.5468 -0.5943
16253TIP3   OH270173   6.586   3.468   1.231 -0.2767  0.5581 -0.1874
16253TIP3    H170174   6.507   3.443   1.278 -0.2939  0.1952 -0.4055
16253TIP3    H270175   6.637   3.518   1.295 -0.7657  0.9604 -0.1038
16254TIP3   OH270176   0.980   2.308  11.523  0.8010 -0.0442  0.0058
16254TIP3    H170177   1.048   2.248  11.493  0.7499  0.3131 -0.8665
16254TIP3    H270178   0.996   2.389  11.474 -0.2599  0.0349 -0.2321
16255TIP3   OH270179   6.095   3.642   3.297 -0.2185  0.9667  0.1829
16255TIP3    H170180   6.128   3.671   3.212  0.6681  0.5051  0.3671
16255TIP3    H270181   6.112   3.715   3.356  1.5672  0.3134  0.5361
16256TIP3   OH270182   2.084   5.477  15.384 -0.1374 -0.5417  0.5611
16256TIP3    H170183   1.991   5.467  15.366 -0.0775 -0.8201  0.4119
16256TIP3    H270184   2.104   5.567  15.356 -0.3020 -0.5713  0.3476
16257TIP3   OH270185   2.760   1.166  13.889 -0.5409 -0.2507  0.0448
16257TIP3    H170186   2.791   1.173  13.799  1.0558 -0.2817  0.5466
16257TIP3    H270187   2.807   1.091  13.924 -0.7742  0.0504  1.0340
16258TIP3   OH270188   0.956   6.356  12.309  0.1189  0.0735 -0.0104
16258TIP3    H170189   0.900   6.417  12.357  0.8708 -0.8894  2.2156
16258TIP3    H270190   1.002   6.411  12.244 -1.2434  1.3471  0.0505
16259TIP3   OH270191   0.472   2.390   3.616 -0.3430  0.4538 -0.8750
16259TIP3    H170192   0.442   2.452   3.682 -0.9978 -0.6537 -0.1107
16259TIP3    H270193   0.392   2.354   3.578 -0.0403 -1.3947  0.1092
16260TIP3   OH270194   3.792   1.612  14.180  0.0775  0.2085  0.7173
16260TIP3    H170195   3.784   1.708  14.185 -1.0325  0.1997 -0.3723
16260TIP3    H270196   3.722   1.580  14.237  1.0290  0.0092  1.8213
16261TIP3   OH270197   1.016   1.546  15.582 -0.2517  0.0347 -0.6495
16261TIP3    H170198   1.054   1.559  15.495  0.3059 -1.4953 -0.6521
16261TIP3    H270199   0.938   1.494  15.566  0.1747 -0.7551 -0.1824
16262TIP3   OH270200   6.076   6.586  12.834  0.2490  0.6542  0.1596
16262TIP3    H170201   6.156   6.592  12.885 -0.1612 -0.3930  0.9722
16262TIP3    H270202   6.033   6.670  12.846  0.6867  0.8149  0.6341
16263TIP3   OH270203   0.797   2.272  13.184  0.4362  0.2201 -0.6746
16263TIP3    H170204   0.820   2.320  13.264 -0.6474  1.6608 -1.1942
16263TIP3    H270205   0.841   2.187  13.194  0.7020  0.5345  1.2307
16264TIP3   OH270206   5.475   4.736   4.341 -0.3104 -0.1829 -0.2121
16264TIP3    H170207   5.412   4.807   4.335 -1.2443 -0.9963 -0.3642
16264TIP3    H270208   5.494   4.712   4.250  0.4044  0.2196 -0.1689
16265TIP3   OH270209   4.663   6.399  12.028 -0.5083  0.0876  0.1015
16265TIP3    H170210   4.676   6.351  12.110  2.4433 -0.6621 -0.6816
16265TIP3    H270211   4.647   6.331  11.963  0.9384  0.3328 -0.5458
16266TIP3   OH270212   0.264   6.550  15.721  0.2504  0.2226 -0.5060
16266TIP3    H170213   0.175   6.544  15.687 -0.2539  0.2381  0.7683
16266TIP3    H270214   0.255   6.534  15.815  1.4869  0.9826 -0.2364
16267TIP3   OH270215   3.705   5.516   2.908  0.6198 -0.6259  0.7590
16267TIP3    H170216   3.669   5.548   2.991  0.2218  1.0358 -0.0228
16267TIP3    H270217   3.677   5.580   2.843  4.1396  0.2614 -0.1003
16268TIP3   OH270218   5.242   1.313  11.348  0.0714 -0.2835 -0.4059
16268TIP3    H170219   5.318   1.320  11.290  0.0508  0.8449 -0.3179
16268TIP3    H270220   5.169   1.292  11.291  0.4348 -1.3585 -0.4966
16269TIP3   OH270221   2.028   3.864  11.414  0.2765 -0.6233  0.2738
16269TIP3    H170222   1.997   3.882  11.325 -3.4022  1.2643  1.7448
16269TIP3    H270223   1.981   3.784  11.440 -0.4135  0.0873  1.2466
16270TIP3   OH270224   0.964   1.032  13.583  0.5222 -1.0652 -0.5387
16270TIP3    H170225   0.903   0.973  13.627 -0.7284  0.9262  0.5597
16270TIP3    H270226   0.936   1.032  13.492 -2.0149  0.6561  0.1169
16271TIP3   OH270227   1.985   2.382  16.341  0.1216 -0.5695  0.1852
16271TIP3    H170228   2.064   2.354  16.295  0.6018  0.5865  0.2630
16271TIP3    H270229   1.921   2.400  16.272  0.6213  0.5061 -0.0235
16272TIP3   OH270230   6.334   3.206  15.751 -0.1722  0.5016  0.0637
16272TIP3    H170231   6.334   3.111  15.763  0.4158  0.2839 -1.4685
16272TIP3    H270232   6.410   3.223  15.696 -0.5838  1.8065 -0.1325
16273TIP3   OH270233   3.540   1.203  14.366 -0.1975 -0.6892 -0.5917
16273TIP3    H170234   3.473   1.182  14.430 -0.6107 -1.5954 -1.2835
16273TIP3    H270235   3.518   1.291  14.335  0.0117 -0.2451  0.4947
16274TIP3   OH270236   2.706   4.005  14.215 -0.1005 -0.5414  0.0419
16274TIP3    H170237   2.691   3.952  14.293 -0.2398 -0.4158  0.1026
16274TIP3    H270238   2.622   4.004  14.169 -1.6982  3.3960  2.3439
16275TIP3   OH270239   2.037   4.891   5.132 -0.2390 -0.1675  0.3942
16275TIP3    H170240   1.984   4.958   5.089 -4.2618 -2.3207  1.4896
16275TIP3    H270241   2.029   4.910   5.225  2.4877  0.3626  0.6088
16276TIP3   OH270242   0.397   3.371  11.989  0.1974  0.5551 -0.3592
16276TIP3    H170243   0.322   3.406  11.941  1.2505  1.1612 -1.5786
16276TIP3    H270244   0.402   3.426  12.068 -2.6916 -1.6075  1.5798
16277TIP3   OH270245   4.222   4.151   2.919 -0.0624  0.3174  0.1710
16277TIP3    H170246   4.282   4.129   2.847  1.2096 -0.7679  1.4861
16277TIP3    H270247   4.144   4.098   2.903  1.1753 -1.8119  0.8369
16278TIP3   OH270248   5.677   6.696  15.971  0.2530  0.6856 -0.2345
16278TIP3    H170249   5.772   6.708  15.976  0.1954  0.7449  1.3467
16278TIP3    H270250   5.643   6.744  16.047 -0.7359 -1.8592  1.0595
16279TIP3   OH270251   4.257   1.426   2.302  0.3430 -0.1356 -0.1518
16279TIP3    H170252   4.223   1.415   2.213 -0.8798  1.2312  0.1174
16279TIP3    H270253   4.348   1.398   2.296  0.4220  0.3986 -1.9541
16280TIP3   OH270254   1.408   6.509  11.550  0.3560  0.1614  0.0070
16280TIP3    H170255   1.345   6.577  11.528  1.2927  0.9226 -0.4131
16280TIP3    H270256   1.467   6.550  11.613 -0.3212 -0.9516  1.4194
16281TIP3   OH270257   4.260   0.279   0.265 -0.4656 -0.8384  0.1426
16281TIP3    H170258   4.219   0.281   0.178  0.1922 -0.3086 -0.1679
16281TIP3    H270259   4.217   0.206   0.310 -1.4030 -0.6028 -0.3315
16282TIP3   OH270260   1.669   4.930   2.687 -0.1522 -0.8620 -0.7528
16282TIP3    H170261   1.708   4.907   2.771 -0.1543  0.1888 -0.4510
16282TIP3    H270262   1.646   4.846   2.647  0.4479 -1.3963  0.0051
16283TIP3   OH270263   1.252   1.351  16.589  0.2094 -0.3568 -0.4538
16283TIP3    H170264   1.182   1.378  16.649  0.6617  0.0274 -0.0894
16283TIP3    H270265   1.287   1.434  16.556  0.2547 -0.5592 -0.9115
16284TIP3   OH270266   3.789   4.790  14.098  0.2466  0.2343  0.5153
16284TIP3    H170267   3.720   4.727  14.123  1.5298 -0.6587  1.9693
16284TIP3    H270268   3.775   4.865  14.156  0.3750  0.1242  0.6918
16285TIP3   OH270269   4.810   4.134  17.147  0.5669  0.3893 -0.8091
16285TIP3    H170270   4.868   4.084  17.205  1.2728  1.1003 -0.8791
16285TIP3    H270271   4.857   4.217  17.132  0.2054  0.3851 -2.0630
16286TIP3   OH270272   3.225   4.725   1.411  0.3908 -0.1897 -0.1490
16286TIP3    H170273   3.317   4.750   1.399  0.4275 -0.0834  0.3142
16286TIP3    H270274   3.226   4.629   1.411  0.4409 -0.1916 -0.5605
16287TIP3   OH270275   1.634   5.702   0.060 -0.4085  0.3491  0.2317
16287TIP3    H170276   1.726   5.705   0.083  0.1776  2.3008 -1.9522
16287TIP3    H270277   1.614   5.790   0.028 -2.6558 -0.4142 -0.6990
16288TIP3   OH270278   0.522   5.941  13.838  0.6903 -0.6433  0.0446
16288TIP3    H170279   0.470   5.967  13.914 -1.3227  0.3217 -1.5647
16288TIP3    H270280   0.565   5.860  13.865 -1.3033 -1.2547  1.6406
16289TIP3   OH270281   1.221   4.806  16.376  0.1484 -0.4277  0.3037
16289TIP3    H170282   1.282   4.776  16.443  1.6951 -1.5109 -1.4870
16289TIP3    H270283   1.267   4.878  16.332 -0.9595  0.4647  0.5680
16290TIP3   OH270284   0.165   5.341  16.843 -0.4087 -0.4128 -0.3490
16290TIP3    H170285   0.140   5.352  16.935  0.5666 -0.9772  0.0048
16290TIP3    H270286   0.177   5.430  16.810 -2.5841 -0.1163 -0.4874
16291TIP3   OH270287   1.971   3.638  14.319  0.4665  0.4314 -0.1669
16291TIP3    H170288   2.004   3.619  14.231  1.0635  2.6009 -0.4710
16291TIP3    H270289   1.921   3.719  14.309  0.4806  0.6793  1.4736
16292TIP3   OH270290   5.399   5.069  12.861  0.0563 -0.0033 -0.1310
16292TIP3    H170291   5.436   5.151  12.829 -1.3088  0.3857 -0.7752
16292TIP3    H270292   5.473   5.024  12.902  0.6987  1.8302  0.8445
16293TIP3   OH270293   3.087   5.969   0.621 -0.5201  0.2123  0.2717
16293TIP3    H170294   3.044   5.923   0.693 -0.3070  0.9762  0.9025
16293TIP3    H270295   3.172   5.993   0.656  1.6232 -3.5242 -1.7676
16294TIP3   OH270296   6.108   0.332  17.200 -0.2646  0.1896  0.2700
16294TIP3    H170297   6.117   0.371  17.113 -4.2233  0.6615 -0.0768
16294TIP3    H270298   6.160   0.389  17.256 -0.0599  1.6731 -1.3199
16295TIP3   OH270299   4.949   5.271   3.714 -0.4669 -0.2719  0.3603
16295TIP3    H170300   4.854   5.257   3.706 -0.3811 -0.1128 -1.3705
16295TIP3    H270301   4.971   5.326   3.639  1.1618 -1.2121  0.1112
16296TIP3   OH270302   1.364   0.101   4.791 -0.3830  0.4451 -0.2014
16296TIP3    H170303   1.428   0.169   4.770  0.8112 -0.5106  0.2656
16296TIP3    H270304   1.410   0.019   4.778 -0.8649 -0.2566  2.0337
16297TIP3   OH270305   6.347   4.878   0.873 -0.1455  0.1965 -0.1712
16297TIP3    H170306   6.257   4.905   0.888 -0.2505  0.1106 -0.6304
16297TIP3    H270307   6.397   4.924   0.940 -0.6591 -0.5975  0.7790
16298TIP3   OH270308   5.810   6.125  13.198  0.4916 -0.2526 -0.7375
16298TIP3    H170309   5.808   6.142  13.292 -1.5899  0.9209 -0.9398
16298TIP3    H270310   5.844   6.035  13.191 -0.4921 -0.8417  1.2206
16299TIP3   OH270311   5.443   6.400  11.848  0.5227  0.0906  0.1473
16299TIP3    H170312   5.532   6.381  11.880  1.2072  0.4203 -1.4630
16299TIP3    H270313   5.419   6.322  11.798  0.8031  0.8388 -1.2122
16300TIP3   OH270314   1.335   6.537   6.086  0.8336  0.2245 -0.0480
16300TIP3    H170315   1.265   6.486   6.128  1.4947 -0.7657 -0.1300
16300TIP3    H270316   1.384   6.575   6.159  0.7597  0.1793  0.0260
16301TIP3   OH270317   4.589   4.020   2.427 -0.9346  0.4230  0.8187
16301TIP3    H170318   4.504   4.025   2.384 -0.3527  0.9899 -0.2844
16301TIP3    H270319   4.632   4.102   2.405  0.9418 -0.9286 -0.8819
16302TIP3   OH270320   4.603   3.273  11.616 -0.4593  0.0456 -0.1176
16302TIP3    H170321   4.610   3.180  11.596 -0.2749  0.1168 -0.3840
16302TIP3    H270322   4.689   3.310  11.593 -0.6144  0.3260 -0.2594
16303TIP3   OH270323   1.064   3.412   4.447  0.1566  0.1958 -0.5466
16303TIP3    H170324   0.985   3.365   4.420  1.9587 -1.7912 -2.8730
16303TIP3    H270325   1.084   3.469   4.372  0.7315  0.9668  0.1803
16304TIP3   OH270326   1.537   5.080  12.067  0.1489  0.8630  0.1982
16304TIP3    H170327   1.568   5.050  11.982  0.4689  1.2195  0.1838
16304TIP3    H270328   1.503   5.002  12.109  1.7651  0.2728  0.5046
16305TIP3   OH270329   2.502   5.303  15.471 -0.6040 -0.4865 -0.3595
16305TIP3    H170330   2.527   5.267  15.385 -0.9874  2.0444 -1.6296
16305TIP3    H270331   2.512   5.397  15.460 -0.8867 -0.0887  2.3635
16306TIP3   OH270332   6.659   4.820   6.513 -0.3629  0.1778  0.2387
16306TIP3    H170333   6.643   4.827   6.607  0.7838 -0.8124  0.5341
16306TIP3    H270334   6.596   4.756   6.482 -0.6752  0.4287  0.3565
16307TIP3   OH270335   5.746   6.078  15.087  0.7822  0.4799 -0.1779
16307TIP3    H170336   5.674   6.134  15.059  0.6361 -0.2683 -1.3286
16307TIP3    H270337   5.800   6.066  15.009  0.3825 -1.6416 -0.1790
16308TIP3   OH270338   1.387   4.960  11.378  0.0760  0.3680  0.2803
16308TIP3    H170339   1.297   4.978  11.352 -0.4307 -0.9993  1.0110
16308TIP3    H270340   1.417   5.041  11.419  0.4072  2.1066 -3.0086
16309TIP3   OH270341   3.788   0.674   4.255 -0.3972 -0.5737 -0.0629
16309TIP3    H170342   3.794   0.722   4.338 -0.3928 -1.2075  0.3101
16309TIP3    H270343   3.719   0.719   4.207  1.1280  1.2445 -0.6942
16310TIP3   OH270344   2.598   3.986   4.365  0.8496 -0.4187 -0.1083
16310TIP3    H170345   2.578   4.014   4.276  0.3438 -0.5943 -0.0569
16310TIP3    H270346   2.649   3.906   4.354  1.3640 -0.0798 -0.2416
16311TIP3   OH270347   2.186   1.830  13.928 -0.2445 -0.1939  0.4626
16311TIP3    H170348   2.242   1.890  13.879 -1.8160  1.8647  1.0529
16311TIP3    H270349   2.213   1.840  14.019 -1.2490  0.5025  0.7005
16312TIP3   OH270350   1.553   5.858  12.930 -0.0835  0.0089 -0.3205
16312TIP3    H170351   1.582   5.870  13.021  0.3505 -1.4274 -0.2560
16312TIP3    H270352   1.606   5.920  12.880  1.0946 -0.5771  0.1667
16313TIP3   OH270353   1.651   4.111   0.926 -0.2785 -0.2922  0.3860
16313TIP3    H170354   1.687   4.025   0.903  1.2711  0.5513 -0.4973
16313TIP3    H270355   1.683   4.169   0.858 -2.1159  0.8342  0.4230
16314TIP3   OH270356   2.741   2.449   6.096  0.4198 -0.0157 -0.1484
16314TIP3    H170357   2.687   2.501   6.036 -0.4019 -0.7876 -0.1091
16314TIP3    H270358   2.826   2.493   6.096 -0.2103  1.2715 -0.1808
16315TIP3   OH270359   2.755   6.466  11.473 -0.1066 -0.1414  0.2635
16315TIP3    H170360   2.828   6.462  11.412 -1.4355 -0.7557 -1.3593
16315TIP3    H270361   2.785   6.524  11.543  1.4489  0.6290 -0.9850
16316TIP3   OH270362   3.508   0.883  11.382 -0.5318 -0.1026  0.3769
16316TIP3    H170363   3.525   0.960  11.328  1.2906  0.0598  1.0965
16316TIP3    H270364   3.445   0.831  11.332 -1.2801  1.5170 -0.4231
16317TIP3   OH270365   6.185   4.513  16.435  0.3229 -0.0812  0.6318
16317TIP3    H170366   6.199   4.424  16.403 -0.3041 -0.4920  1.4419
16317TIP3    H270367   6.101   4.539  16.398 -0.7187 -0.7973  2.3367
16318TIP3   OH270368   3.795   2.829  13.101  0.7690  0.0522 -0.4615
16318TIP3    H170369   3.753   2.882  13.168  0.7450  0.0184 -0.4495
16318TIP3    H270370   3.888   2.853  13.105  0.6620  0.5695 -0.8928
16319TIP3   OH270371   3.110   1.090   4.697 -0.1682 -0.1894 -0.1497
16319TIP3    H170372   3.170   1.126   4.632 -0.2906  1.2028  0.4700
16319TIP3    H270373   3.081   1.167   4.747 -1.1101 -1.0648  0.6724
16320TIP3   OH270374   1.580   3.045  15.502  0.0494 -0.2154  0.5103
16320TIP3    H170375   1.553   3.083  15.585  0.6271 -0.6157  0.8865
16320TIP3    H270376   1.502   3.002  15.468  0.4167 -2.1836  2.0338
16321TIP3   OH270377   4.191   2.329  16.563  0.0682 -0.1174  0.5345
16321TIP3    H170378   4.204   2.370  16.478 -1.5196  0.3466  0.4864
16321TIP3    H270379   4.105   2.360  16.592  0.5395 -0.3079  2.2858
16322TIP3   OH270380   2.548   0.832   5.650  0.5446 -0.0467 -0.7785
16322TIP3    H170381   2.512   0.817   5.562  1.0279 -1.2196 -0.7887
16322TIP3    H270382   2.639   0.859   5.633  0.1980  1.2619 -0.6830
16323TIP3   OH270383   4.832   0.899   1.922 -0.0793  0.7784  0.2724
16323TIP3    H170384   4.782   0.870   1.999 -0.6417  1.2103  0.0729
16323TIP3    H270385   4.840   0.819   1.869 -2.6918  1.1655 -0.8636
16324TIP3   OH270386   3.770   1.302   1.493 -0.2453  0.2713  0.2334
16324TIP3    H170387   3.750   1.394   1.477 -1.3154  0.5665  2.7785
16324TIP3    H270388   3.830   1.278   1.423  1.0821  3.2625  0.1794
16325TIP3   OH270389   1.160   6.616  13.255 -0.0385 -0.2482  0.5940
16325TIP3    H170390   1.169   6.523  13.234 -0.5600  0.0232 -0.9652
16325TIP3    H270391   1.067   6.627  13.278  0.4963 -0.5296  3.2831
16326TIP3   OH270392   6.314   3.350  12.480 -0.6856  0.7049  0.0996
16326TIP3    H170393   6.240   3.317  12.532 -0.4757 -1.0936 -0.6600
16326TIP3    H270394   6.375   3.384  12.546 -1.7345  1.3161  0.7990
16327TIP3   OH270395   1.926   3.406   5.938  0.1996 -0.5030  0.5486
16327TIP3    H170396   2.009   3.364   5.962  1.1043  0.5432 -0.5910
16327TIP3    H270397   1.881   3.342   5.883  0.9362 -0.5248 -0.0448
16328TIP3   OH270398   6.075   5.932   5.548  0.8889  0.1566 -0.6016
16328TIP3    H170399   6.058   6.006   5.606  0.1709 -0.6970  0.3258
16328TIP3    H270400   5.994   5.922   5.498  0.2031 -1.2256  0.7185
16329TIP3   OH270401   5.532   2.633   2.178  0.0671  0.6484 -0.3071
16329TIP3    H170402   5.530   2.576   2.101 -1.1062  0.0939  0.1096
16329TIP3    H270403   5.553   2.574   2.250 -0.2184  0.9158 -0.0049
16330TIP3   OH270404   6.751   4.438  11.458  0.0838  0.4433  0.0729
16330TIP3    H170405   6.668   4.471  11.425  1.0791  0.8222 -2.2858
16330TIP3    H270406   6.788   4.511  11.509 -0.6218  0.5803  0.3930
16331TIP3   OH270407   0.475   3.727  11.555  0.2267  0.2090  0.6505
16331TIP3    H170408   0.568   3.749  11.560  0.1403  2.4347 -3.1653
16331TIP3    H270409   0.432   3.791  11.611  0.9082  0.7279  0.6001
16332TIP3   OH270410   0.213   6.543   4.186 -0.2815 -0.0359 -0.4385
16332TIP3    H170411   0.218   6.462   4.236 -2.3661 -0.8367 -1.3856
16332TIP3    H270412   0.122   6.573   4.197 -1.0405 -0.5291 -4.0178
16333TIP3   OH270413   2.046   6.764   6.542  0.4521 -0.1105  0.0400
16333TIP3    H170414   2.070   6.856   6.548  0.8413 -0.1468 -0.8010
16333TIP3    H270415   2.000   6.757   6.458  0.1476 -0.6262  0.2450
16334TIP3   OH270416   0.315   4.115  13.810  0.4636 -0.1985 -0.3305
16334TIP3    H170417   0.285   4.028  13.834 -1.2318  0.2180 -0.8179
16334TIP3    H270418   0.383   4.100  13.744 -0.1670 -1.1426 -0.7886
16335TIP3   OH270419   2.133   2.472  11.304  0.1910 -0.5262 -0.5852
16335TIP3    H170420   2.088   2.428  11.376 -0.1991 -0.4477 -0.7791
16335TIP3    H270421   2.099   2.431  11.225  0.4000 -0.4115 -0.7380
16336TIP3   OH270422   0.129   0.695   4.653 -0.0503 -0.3501  0.5239
16336TIP3    H170423   0.145   0.606   4.620  0.9158 -0.3677  1.0046
16336TIP3    H270424   0.050   0.686   4.706  0.0371 -0.9264  0.5676
16337TIP3   OH270425   5.492   2.916  15.026 -0.5484 -0.0784 -0.2811
16337TIP3    H170426   5.542   2.992  14.995 -1.2563  0.7649  0.5767
16337TIP3    H270427   5.401   2.946  15.025 -0.8009 -0.7976  0.4081
16338TIP3   OH270428   0.517   5.445  13.481  0.1728  0.3052 -0.3077
16338TIP3    H170429   0.591   5.507  13.478  1.1426 -0.8610 -2.7693
16338TIP3    H270430   0.450   5.486  13.427 -0.7134  0.9478  1.2161
16339TIP3   OH270431   0.667   5.458  10.471  0.1062 -0.4782  0.3499
16339TIP3    H170432   0.670   5.540  10.520 -1.2319 -0.3223  0.2126
16339TIP3    H270433   0.607   5.403  10.521 -0.6711 -0.5963 -0.6929
16340TIP3   OH270434   5.563   1.838   1.041 -0.5293 -0.0207 -0.5084
16340TIP3    H170435   5.625   1.784   0.994 -0.1050  1.0126 -1.1557
16340TIP3    H270436   5.498   1.776   1.075  0.6242 -1.0656 -0.1459
16341TIP3   OH270437   1.786   2.158   1.757 -0.2611 -0.1552 -0.1573
16341TIP3    H170438   1.737   2.225   1.710 -0.0275 -0.9391 -1.5723
16341TIP3    H270439   1.823   2.103   1.688  1.1312 -0.6230  0.9239
16342TIP3   OH270440   4.787   2.935  14.083 -0.2489  0.3867  0.0243
16342TIP3    H170441   4.734   2.991  14.027 -2.0208  1.2641  2.4146
16342TIP3    H270442   4.736   2.855  14.094  0.3836 -0.0435 -0.1297
16343TIP3   OH270443   0.430   3.813   0.537 -0.0158  0.0085  0.7354
16343TIP3    H170444   0.351   3.844   0.581 -0.4635  0.8563 -0.5935
16343TIP3    H270445   0.408   3.725   0.507  0.4722 -0.7916  2.5726
16344TIP3   OH270446   2.127   0.230   3.526 -0.1580 -0.2367  0.4219
16344TIP3    H170447   2.124   0.287   3.602 -0.8323 -0.9385  0.9386
16344TIP3    H270448   2.216   0.197   3.524 -0.4747 -1.2290  1.6917
16345TIP3   OH270449   3.904   2.132  16.845 -0.5243 -0.4889  0.3927
16345TIP3    H170450   3.996   2.145  16.871 -0.6225  1.3501 -0.0236
16345TIP3    H270451   3.894   2.184  16.766 -1.8794 -0.8483  0.3068
16346TIP3   OH270452   1.918   3.188  17.101 -0.2218  0.0513 -0.3667
16346TIP3    H170453   1.931   3.100  17.066 -0.4408  0.2014 -0.8477
16346TIP3    H270454   1.836   3.218  17.059  0.0305  0.6021 -0.4714
16347TIP3   OH270455   4.052   0.818  13.375 -0.0299 -0.2552  0.1316
16347TIP3    H170456   4.020   0.892  13.323 -1.3357 -0.5097  0.5143
16347TIP3    H270457   4.000   0.822  13.456 -0.4115 -1.7928  0.0035
16348TIP3   OH270458   4.520   1.624  13.752  0.7516 -0.1631  0.1592
16348TIP3    H170459   4.468   1.547  13.729 -0.1404  0.7463 -0.9344
16348TIP3    H270460   4.512   1.629  13.848  1.3178 -1.7549  0.3217
16349TIP3   OH270461   5.628   1.723  12.627  0.2694 -0.4471 -0.5745
16349TIP3    H170462   5.713   1.729  12.672  0.7126  1.1374 -1.5594
16349TIP3    H270463   5.644   1.661  12.555  0.1190 -1.3838  0.1659
16350TIP3   OH270464   0.558   2.049  14.562 -0.0906 -0.0067 -0.5077
16350TIP3    H170465   0.586   2.017  14.647 -0.5378 -2.5685 -1.2372
16350TIP3    H270466   0.587   2.141  14.560  0.1889  0.0504  2.2294
16351TIP3   OH270467   5.278   1.647  16.376  0.5366  0.4684  0.2388
16351TIP3    H170468   5.303   1.581  16.440  0.0580 -0.8687 -0.8861
16351TIP3    H270469   5.285   1.602  16.292  1.2676  2.1876 -0.6915
16352TIP3   OH270470   3.349   5.567  12.132  0.5039 -0.3131 -0.1467
16352TIP3    H170471   3.272   5.625  12.135 -0.4284 -1.5577  1.2882
16352TIP3    H270472   3.359   5.536  12.222  4.2626  1.7166  0.3339
16353TIP3   OH270473   4.908   5.576  13.199  0.0444 -0.2681 -0.1213
16353TIP3    H170474   4.953   5.535  13.273  1.4627  0.6110 -0.4696
16353TIP3    H270475   4.867   5.502  13.153 -0.1101 -0.9231  1.0148
16354TIP3   OH270476   2.089   1.481   5.771 -0.1846 -0.2477  0.0906
16354TIP3    H170477   2.043   1.423   5.710 -1.5295  0.1077  0.7086
16354TIP3    H270478   2.082   1.436   5.856  2.2880 -1.0928 -0.0658
16355TIP3   OH270479   6.709   3.228   0.743  0.4975  0.1842  0.1371
16355TIP3    H170480   6.791   3.265   0.774 -0.1730  1.7481  0.1251
16355TIP3    H270481   6.691   3.273   0.661  0.7879 -1.8399 -1.1069
16356TIP3   OH270482   3.963   0.289  12.381 -0.1223  0.1499  0.4425
16356TIP3    H170483   3.991   0.211  12.334 -0.0425  0.5167 -0.1302
16356TIP3    H270484   3.902   0.257  12.448  1.9403 -0.7152  1.9889
16357TIP3   OH270485   5.427   4.213   5.181 -0.5088 -0.9804 -0.0683
16357TIP3    H170486   5.470   4.266   5.114 -1.8403  2.2502  1.4105
16357TIP3    H270487   5.382   4.144   5.132 -0.8105  0.7839 -2.4288
16358TIP3   OH270488   4.663   6.751  14.477  0.3988 -0.7795  0.2157
16358TIP3    H170489   4.580   6.798  14.478 -0.4150 -2.1637  1.5641
16358TIP3    H270490   4.707   6.779  14.557  0.8710 -0.6767 -0.0778
16359TIP3   OH270491   5.340   2.428  13.393  0.1617 -0.4824 -0.1137
16359TIP3    H170492   5.248   2.419  13.367 -0.1907 -1.1434  1.2555
16359TIP3    H270493   5.387   2.365  13.339 -0.2066 -0.2648 -0.6996
16360TIP3   OH270494   2.172   1.394  10.850 -0.0041  0.1248  0.6201
16360TIP3    H170495   2.226   1.314  10.847  0.2236  0.2715 -1.8765
16360TIP3    H270496   2.235   1.465  10.855 -0.0981  0.2054  0.6505
16361TIP3   OH270497   4.216   1.022   1.246  0.2636  0.4847 -0.2632
16361TIP3    H170498   4.249   1.074   1.173 -0.4083 -0.0343 -0.9659
16361TIP3    H270499   4.249   0.934   1.229  1.2805  0.6379  0.8409
16362TIP3   OH270500   6.722   3.573   4.892 -0.0840  0.2797  0.0156
16362TIP3    H170501   6.780   3.583   4.967  1.4934 -1.2257 -0.9324
16362TIP3    H270502   6.740   3.485   4.860 -1.3995  0.5515 -1.5796
16363TIP3   OH270503   1.378   3.671  15.838  0.1403  0.3185  0.0366
16363TIP3    H170504   1.291   3.664  15.799  0.0279 -1.7881  0.5381
16363TIP3    H270505   1.363   3.662  15.932  0.6614  2.8326  0.4202
16364TIP3   OH270506   5.214   1.616   5.448 -0.2276 -0.1874  0.4891
16364TIP3    H170507   5.203   1.612   5.353  0.0379  0.9438  0.3906
16364TIP3    H270508   5.203   1.526   5.478 -1.9517 -0.3202 -0.4294
16365TIP3   OH270509   0.239   4.796  16.144  0.3246 -0.2997 -0.4188
16365TIP3    H170510   0.205   4.865  16.087 -1.0784 -0.5316  0.1126
16365TIP3    H270511   0.274   4.843  16.220  0.5578 -0.1021 -0.6465
16366TIP3   OH270512   2.911   1.850   5.944  0.0659  0.0702 -0.6916
16366TIP3    H170513   2.925   1.914   5.873  0.9238 -0.5708 -1.1236
16366TIP3    H270514   2.851   1.786   5.907 -1.4010  1.0109  0.0032
16367TIP3   OH270515   0.241   4.760  15.689 -0.0048  0.1746 -0.0728
16367TIP3    H170516   0.321   4.750  15.637 -0.5240 -0.1569 -0.8333
16367TIP3    H270517   0.172   4.768  15.624 -0.3542  2.8123  0.5321
16368TIP3   OH270518   5.176   5.748  11.985  0.0189 -0.6004 -0.6132
16368TIP3    H170519   5.085   5.744  12.014 -0.0190 -0.2807 -0.6896
16368TIP3    H270520   5.227   5.731  12.065 -0.1253 -2.2030 -0.8426
16369TIP3   OH270521   5.581   5.075   6.126 -0.4317 -0.5769  0.9219
16369TIP3    H170522   5.590   4.999   6.068  0.4259  0.1511  0.0768
16369TIP3    H270523   5.522   5.045   6.195 -1.6149 -1.4175 -0.3989
16370TIP3   OH270524   3.107   5.589  13.736  0.0299 -0.0006 -0.4448
16370TIP3    H170525   3.089   5.502  13.700 -1.9559  0.6773 -1.2227
16370TIP3    H270526   3.034   5.643  13.705 -0.0767  1.3845  2.0259
16371TIP3   OH270527   3.610   2.475   3.875  0.4973  0.2412 -0.0237
16371TIP3    H170528   3.640   2.398   3.923  0.6673  0.2793 -0.0699
16371TIP3    H270529   3.636   2.549   3.930  3.2546  0.4826 -1.4682
16372TIP3   OH270530   5.268   6.760  13.498  0.4228  0.1208 -0.0027
16372TIP3    H170531   5.266   6.674  13.539  0.9674 -0.2430 -0.7285
16372TIP3    H270532   5.242   6.745  13.407  0.9369  0.6511 -0.2452
16373TIP3   OH270533   4.151   6.542   1.375 -0.1360  0.1440 -0.3798
16373TIP3    H170534   4.236   6.505   1.399  0.0523 -0.1195 -1.4007
16373TIP3    H270535   4.096   6.465   1.358 -0.7374  0.3066  0.7872
16374TIP3   OH270536   2.125   0.388   4.401  0.2299  0.0783  0.0149
16374TIP3    H170537   2.203   0.421   4.357  1.1401 -1.5409  0.3338
16374TIP3    H270538   2.077   0.341   4.333  0.5465 -0.5834  0.2334
16375TIP3   OH270539   3.839   1.919   5.235 -0.0709  0.5144  1.2214
16375TIP3    H170540   3.771   1.986   5.233 -0.3746  0.1920  0.2440
16375TIP3    H270541   3.831   1.874   5.151  0.2246 -0.6535  1.8011
16376TIP3   OH270542   6.440   3.447   4.066 -0.8321 -0.7992  0.0341
16376TIP3    H170543   6.436   3.403   3.982  1.6185 -1.2774  0.1171
16376TIP3    H270544   6.383   3.395   4.124 -0.1457 -2.2466 -0.5617
16377TIP3   OH270545   4.213   1.379  11.284 -0.6233 -0.7363 -0.4082
16377TIP3    H170546   4.256   1.431  11.216  1.3300 -0.7493  0.7374
16377TIP3    H270547   4.285   1.344  11.337 -2.0310 -1.4813  1.1135
16378TIP3   OH270548   5.957   4.831  12.384  0.2043 -0.0559  0.3087
16378TIP3    H170549   5.934   4.739  12.372  4.7267 -1.3769 -0.2308
16378TIP3    H270550   5.892   4.879  12.333 -0.3099 -3.2377 -2.4132
16379TIP3   OH270551   6.308   1.413  15.695 -0.2946 -0.0561 -0.3106
16379TIP3    H170552   6.267   1.421  15.781  1.0201 -1.0809  0.4443
16379TIP3    H270553   6.340   1.323  15.691  1.4504  0.5368 -1.0305
16380TIP3   OH270554   3.180   0.795  14.342 -0.4826 -0.3535 -0.2720
16380TIP3    H170555   3.263   0.827  14.306  1.3749 -1.0413  2.9643
16380TIP3    H270556   3.167   0.710  14.301  1.0098 -0.6856 -0.1173
16381TIP3   OH270557   4.504   3.295   3.461 -0.6518  0.2364  0.5502
16381TIP3    H170558   4.541   3.229   3.403 -2.7101 -0.8449  0.3763
16381TIP3    H270559   4.574   3.312   3.525  0.0479 -1.9279  0.4510
16382TIP3   OH270560   5.026   6.232  11.079 -0.2382  0.4054  0.3356
16382TIP3    H170561   5.040   6.280  11.161 -0.0635 -0.7651  1.0092
16382TIP3    H270562   5.008   6.142  11.107 -1.3679  0.2338 -0.8619
16383TIP3   OH270563   3.858   3.917  11.707 -0.4850  0.1221 -0.1649
16383TIP3    H170564   3.816   3.831  11.701 -0.6595  0.0343  1.7103
16383TIP3    H270565   3.897   3.930  11.620 -0.8605 -1.6188 -0.6536
16384TIP3   OH270566   4.119   5.268  17.113 -0.2077  0.3942 -0.0886
16384TIP3    H170567   4.163   5.327  17.174 -0.8342 -1.0642  1.8909
16384TIP3    H270568   4.042   5.316  17.083 -1.3016  0.3029  2.3279
16385TIP3   OH270569   0.141   3.360   0.474 -0.4182  0.2725  0.0732
16385TIP3    H170570   0.074   3.320   0.418 -0.1099  0.3354 -0.3477
16385TIP3    H270571   0.107   3.446   0.495 -0.0590  0.6672 -0.9067
16386TIP3   OH270572   6.707   0.430   2.374  0.0008  0.0426 -0.0551
16386TIP3    H170573   6.782   0.370   2.372 -0.5316 -0.7624  1.8922
16386TIP3    H270574   6.742   0.511   2.410  0.4610  0.5307 -1.5537
16387TIP3   OH270575   5.573   3.041   2.503  0.1957 -0.1759 -0.0480
16387TIP3    H170576   5.519   3.051   2.581  0.4377  0.9035 -0.0033
16387TIP3    H270577   5.519   2.990   2.442 -1.4923  2.0613 -0.5514
16388TIP3   OH270578   5.796   4.763   0.814 -0.4954 -0.3702  0.3415
16388TIP3    H170579   5.787   4.837   0.754 -2.5596 -0.5362  0.3602
16388TIP3    H270580   5.772   4.799   0.899  0.0584 -0.7004  0.6369
16389TIP3   OH270581   6.107   2.822   5.719 -0.1967  0.4619  0.1222
16389TIP3    H170582   6.018   2.794   5.739 -0.3010  1.4060  1.1321
16389TIP3    H270583   6.100   2.917   5.707  0.4994  0.3954 -0.9106
16390TIP3   OH270584   1.712   4.860  16.054  0.1135 -0.4233 -0.0792
16390TIP3    H170585   1.618   4.877  16.055  0.2253  0.4365  2.0708
16390TIP3    H270586   1.750   4.935  16.010 -0.2758 -1.7157 -2.7927
16391TIP3   OH270587   1.814   4.548   1.986  0.4103 -0.1189  0.2644
16391TIP3    H170588   1.800   4.619   1.923 -0.1102 -0.8449 -0.4648
16391TIP3    H270589   1.784   4.584   2.070  0.5334  0.6533 -0.0131
16392TIP3   OH270590   3.838   2.535  12.070 -0.2400 -0.1376  0.1548
16392TIP3    H170591   3.890   2.458  12.092  0.2232  0.1679  0.1302
16392TIP3    H270592   3.883   2.608  12.113  0.9583  0.5549 -2.1249
16393TIP3   OH270593   1.425   0.864  13.490  0.3252 -0.3079  0.0023
16393TIP3    H170594   1.496   0.823  13.540  0.4837 -0.7026 -0.5463
16393TIP3    H270595   1.402   0.800  13.423  0.7632  0.6133 -1.0457
16394TIP3   OH270596   4.446   5.813  15.998  0.0463 -0.3606  0.4932
16394TIP3    H170597   4.355   5.809  15.970 -1.3750  3.1606  3.6843
16394TIP3    H270598   4.490   5.864  15.930 -0.4070 -1.7053 -0.8539
16395TIP3   OH270599   1.777   4.933  11.430 -0.7587 -0.4374 -0.0733
16395TIP3    H170600   1.799   4.900  11.343 -2.0511 -2.4672  0.3160
16395TIP3    H270601   1.739   5.019  11.414  0.5095 -0.0729 -1.3437
16396TIP3   OH270602   6.102   4.358  13.965  0.5088 -0.1180  0.4657
16396TIP3    H170603   6.124   4.339  13.874  2.4561  0.8756  0.6842
16396TIP3    H270604   6.013   4.394  13.960 -0.0765 -1.5868 -0.8175
16397TIP3   OH270605   0.325   2.606  15.922  0.5157  0.2775 -0.3974
16397TIP3    H170606   0.413   2.612  15.958  0.2518 -0.0520  0.3286
16397TIP3    H270607   0.288   2.527  15.962 -0.0276  0.2933 -0.8568
16398TIP3   OH270608   2.707   1.335   4.097 -0.5943  0.6390  0.6632
16398TIP3    H170609   2.794   1.295   4.099 -1.4887 -1.4604  0.4074
16398TIP3    H270610   2.705   1.383   4.014  0.7565  1.8733  1.3029
16399TIP3   OH270611   5.304   0.190  12.597 -0.2352 -0.0963 -0.0931
16399TIP3    H170612   5.312   0.114  12.655 -2.7671  0.1855  0.7704
16399TIP3    H270613   5.276   0.261  12.655  1.2117  1.3209 -1.0312
16400TIP3   OH270614   1.423   1.822   3.253 -0.2526 -0.0266  0.4599
16400TIP3    H170615   1.346   1.783   3.294 -0.4413  1.8751  2.0905
16400TIP3    H270616   1.456   1.754   3.194 -2.0913 -1.5653  1.0952
16401TIP3   OH270617   3.232   0.429   1.413  0.5002 -0.4294 -0.1494
16401TIP3    H170618   3.259   0.443   1.322  1.2818 -2.7293 -0.3479
16401TIP3    H270619   3.312   0.441   1.464 -0.0636  1.4596  0.3490
16402TIP3   OH270620   4.987   2.454  14.123  0.1526  0.3079  0.7515
16402TIP3    H170621   4.905   2.407  14.134  0.2209  0.0656  0.2566
16402TIP3    H270622   5.055   2.389  14.141  0.2659 -0.0953 -0.9571
16403TIP3   OH270623   4.188   3.655   6.262 -0.4938  0.4071 -0.9320
16403TIP3    H170624   4.181   3.749   6.243 -3.6335  0.2138 -1.3172
16403TIP3    H270625   4.211   3.650   6.354 -0.5323  1.5698 -0.8459
16404TIP3   OH270626   0.772   2.988  17.175 -0.4991  0.3167 -0.0401
16404TIP3    H170627   0.840   2.994  17.108 -0.8023  0.7895 -0.3169
16404TIP3    H270628   0.711   3.059  17.153  0.5556  1.9685  2.0807
16405TIP3   OH270629   6.035   5.245   4.759 -0.2702  0.6356  0.1425
16405TIP3    H170630   6.029   5.209   4.847  0.8541  0.0680  0.0044
16405TIP3    H270631   6.126   5.274   4.750 -0.4999  1.1787 -0.6501
16406TIP3   OH270632   1.249   5.710  13.715  0.5644 -0.2081  0.0841
16406TIP3    H170633   1.330   5.739  13.758 -0.0895  0.4344  0.9055
16406TIP3    H270634   1.279   5.652  13.645  1.7076 -0.7435  0.9714
16407TIP3   OH270635   1.203   2.469  17.057 -0.5413 -0.2496  0.0135
16407TIP3    H170636   1.148   2.545  17.076  0.5297  0.4916  0.2434
16407TIP3    H270637   1.141   2.396  17.051 -1.5880  0.6149 -0.1398
16408TIP3   OH270638   5.282   2.127  14.685 -0.3864  0.2392 -0.8247
16408TIP3    H170639   5.228   2.201  14.711  1.0510  0.4750  1.8586
16408TIP3    H270640   5.351   2.166  14.630  0.3811  0.9736  0.5949
16409TIP3   OH270641   3.566   1.763  11.531 -0.5910  0.1430 -0.0488
16409TIP3    H170642   3.532   1.852  11.539 -1.3015  0.1789 -2.5073
16409TIP3    H270643   3.617   1.749  11.611 -1.9043  2.0863  1.2176
16410TIP3   OH270644   1.287   5.079   0.008  0.6816  0.1333  0.5986
16410TIP3    H170645   1.296   5.154  -0.052 -1.5820 -0.1487 -0.1850
16410TIP3    H270646   1.285   5.119   0.095  0.7651  0.8597  0.2817
16411TIP3   OH270647   4.618   4.861   6.764 -0.1762 -0.0968 -0.1811
16411TIP3    H170648   4.653   4.773   6.750  0.3849 -0.1004  1.1511
16411TIP3    H270649   4.658   4.913   6.694 -0.0372 -0.7678 -0.6143
16412TIP3   OH270650   6.124   2.358   1.752 -0.1954  1.0144  0.2186
16412TIP3    H170651   6.092   2.441   1.785 -0.8173  0.5458  0.8342
16412TIP3    H270652   6.046   2.302   1.748  0.2237  0.4396 -0.1086
16413TIP3   OH270653   0.875   5.139   0.473  0.4449 -0.0076 -0.3622
16413TIP3    H170654   0.820   5.150   0.551  1.2719  0.7806  0.1246
16413TIP3    H270655   0.864   5.221   0.424  2.0209  0.6434  0.3008
16414TIP3   OH270656   5.298   1.318   1.587 -0.8500 -0.0491 -0.3792
16414TIP3    H170657   5.274   1.228   1.610 -1.9583  0.2602 -0.2407
16414TIP3    H270658   5.223   1.370   1.616  0.3256  1.0953  0.7692
16415TIP3   OH270659   5.936   3.526  14.264 -0.2271 -0.1812  0.7025
16415TIP3    H170660   5.915   3.554  14.175  1.6716 -0.1758  0.2201
16415TIP3    H270661   5.917   3.603  14.318  0.3673  0.4382  0.0487
16416TIP3   OH270662   1.958   3.457  16.736 -0.0446 -0.2766 -0.5721
16416TIP3    H170663   2.048   3.476  16.761 -0.1229 -0.7686  0.1326
16416TIP3    H270664   1.916   3.543  16.730  0.8805  0.0818 -2.6584
16417TIP3   OH270665   5.876   2.692  13.328 -0.1338 -0.1845  0.2657
16417TIP3    H170666   5.892   2.696  13.234  0.0750 -1.2764  0.2345
16417TIP3    H270667   5.898   2.779  13.360  0.8071 -0.0977 -0.5484
16418TIP3   OH270668   0.103   4.089   0.922  0.6494 -0.1602  0.1497
16418TIP3    H170669   0.055   4.112   0.843 -0.1318  1.7955  1.1412
16418TIP3    H270670   0.128   3.997   0.909 -0.7387 -0.3249 -1.6916
16419TIP3   OH270671   3.541   1.784   3.376 -0.2638 -0.2276  0.0366
16419TIP3    H170672   3.509   1.861   3.330 -0.0471  0.5735  1.1717
16419TIP3    H270673   3.632   1.774   3.346 -0.6864 -0.8359 -1.0864
16420TIP3   OH270674   3.380   0.495  12.710 -0.1592  0.3358  0.2497
16420TIP3    H170675   3.295   0.503  12.667 -0.3877  0.0554  0.6429
16420TIP3    H270676   3.360   0.457  12.795  0.4738 -0.8102 -0.0861
16421TIP3   OH270677   0.067   0.816  12.565  0.1253 -0.4342 -0.2752
16421TIP3    H170678   0.031   0.894  12.524  0.0735 -1.5565 -2.4888
16421TIP3    H270679  -0.002   0.785  12.623  0.2337  1.2329  0.8388
16422TIP3   OH270680   3.559   6.225   4.306  0.4764  0.0375 -0.3142
16422TIP3    H170681   3.586   6.169   4.234  0.3530 -0.8997  0.3433
16422TIP3    H270682   3.592   6.181   4.384 -1.2674 -0.1377  0.3725
16423TIP3   OH270683   5.929   0.499  13.443 -0.0264  0.6867  0.2848
16423TIP3    H170684   6.023   0.483  13.446 -0.0768  0.2821 -0.2109
16423TIP3    H270685   5.921   0.594  13.449  0.4660  0.7934 -0.5064
16424TIP3   OH270686   3.474   2.053  13.118 -0.6987  0.0440 -0.1749
16424TIP3    H170687   3.398   2.096  13.157  0.5966  0.7809  1.6790
16424TIP3    H270688   3.507   2.117  13.055 -1.4687 -0.2039 -0.8547
16425TIP3   OH270689   3.597   2.805  11.822  0.2697  0.3530  0.1634
16425TIP3    H170690   3.536   2.813  11.896 -0.1972  0.6992 -0.2548
16425TIP3    H270691   3.681   2.834  11.858 -0.0495  0.9627  0.4418
16426TIP3   OH270692   0.355   4.894  12.800 -0.2418  0.8114 -0.1772
16426TIP3    H170693   0.297   4.900  12.877 -0.0574 -0.2929  0.0630
16426TIP3    H270694   0.303   4.848  12.734  0.3047 -0.0835  0.0010
16427TIP3   OH270695   4.512   3.739   6.153 -0.3383 -0.0496  0.0283
16427TIP3    H170696   4.550   3.816   6.195 -1.1593  0.7171 -0.5898
16427TIP3    H270697   4.431   3.723   6.202  0.0962 -0.8872  0.5131
16428TIP3   OH270698   3.377   2.010   5.779  0.2247 -0.3763 -0.1265
16428TIP3    H170699   3.324   2.040   5.705 -0.3362 -0.1567  0.3612
16428TIP3    H270700   3.314   1.989   5.847  0.7748 -0.0471  0.4917
16429TIP3   OH270701   6.294   6.649  15.818 -0.4024 -0.1313 -0.0404
16429TIP3    H170702   6.372   6.598  15.840  0.2218  0.6623 -0.3334
16429TIP3    H270703   6.249   6.597  15.751  0.0807 -0.4306 -0.1398
16430TIP3   OH270704   4.180   5.133  15.639 -0.8835 -0.5874  0.1501
16430TIP3    H170705   4.244   5.100  15.576 -1.3983 -2.0302  0.3496
16430TIP3    H270706   4.209   5.222  15.658  0.5770 -0.9210 -0.3934
16431TIP3   OH270707   5.809   1.195   1.047 -0.0600 -0.2737  0.2816
16431TIP3    H170708   5.726   1.189   1.000 -0.7204  1.0313  1.2166
16431TIP3    H270709   5.814   1.287   1.075  1.2523 -0.5502  1.0343
16432TIP3   OH270710   3.008   6.012  16.991 -0.4744  0.1994 -0.0050
16432TIP3    H170711   3.023   5.963  16.910  0.6633  0.9155 -0.2464
16432TIP3    H270712   3.095   6.041  17.018 -1.0609  1.7061  0.3632
16433TIP3   OH270713   3.504   2.029  12.634 -0.0650  0.3246 -0.6910
16433TIP3    H170714   3.487   2.016  12.540 -0.0043  0.4873 -0.7256
16433TIP3    H270715   3.419   2.018  12.676  0.1755 -1.3344 -0.5862
16434TIP3   OH270716   4.586   2.195  11.940  0.2835  0.4316 -0.3940
16434TIP3    H170717   4.678   2.207  11.966  0.7650 -3.0038  0.0881
16434TIP3    H270718   4.542   2.172  12.022 -0.8189  1.1694 -0.7709
16435TIP3   OH270719   4.003   3.453  14.851 -0.1600  0.0055  0.2273
16435TIP3    H170720   4.054   3.532  14.832 -1.4383  1.1621  1.3586
16435TIP3    H270721   4.065   3.381  14.841  1.4620  1.2730  0.6953
16436TIP3   OH270722   3.592   6.112   5.069  0.2559  0.1099 -0.0999
16436TIP3    H170723   3.574   6.060   5.147 -1.8360 -1.5813 -1.6133
16436TIP3    H270724   3.622   6.197   5.103  0.3794 -0.8975  2.4786
16437TIP3   OH270725   0.955   5.633  17.134 -0.0734 -0.0649 -0.8241
16437TIP3    H170726   0.995   5.719  17.122  0.2259 -0.2713 -1.3339
16437TIP3    H270727   0.945   5.598  17.045 -0.9858 -0.2035 -0.6817
16438TIP3   OH270728   3.898   2.774  12.189 -0.3601 -0.2718 -0.6053
16438TIP3    H170729   3.870   2.858  12.226 -0.1783 -1.2971  2.1029
16438TIP3    H270730   3.939   2.797  12.106  0.2772  2.4202  0.3457
16439TIP3   OH270731   0.738   2.000  16.548 -0.3021 -0.4140 -0.7647
16439TIP3    H170732   0.685   1.963  16.478 -0.6321  0.0619 -0.7632
16439TIP3    H270733   0.703   2.087  16.563  0.7163  0.0568 -1.0219
16440TIP3   OH270734   6.653   4.497  14.367  0.2062 -0.0013 -0.4262
16440TIP3    H170735   6.681   4.585  14.395  1.0934 -0.8047  1.3726
16440TIP3    H270736   6.655   4.445  14.448  1.3632 -2.1035 -1.7331
16441TIP3   OH270737   4.164   1.465  12.875  0.2800  0.2167  0.1419
16441TIP3    H170738   4.121   1.473  12.789 -1.6261 -0.3675  0.9922
16441TIP3    H270739   4.157   1.552  12.914 -1.7400 -0.2558  0.9545
16442TIP3   OH270740   3.426   4.503   2.982  0.6367 -0.1978  0.1063
16442TIP3    H170741   3.488   4.535   3.048  0.8289  0.6384 -0.4522
16442TIP3    H270742   3.390   4.423   3.019 -0.3360  1.0007  1.8635
16443TIP3   OH270743   0.372   5.975   3.373  0.1522  0.4577 -0.1291
16443TIP3    H170744   0.452   6.013   3.410  0.9812 -2.1969  1.0013
16443TIP3    H270745   0.309   6.048   3.374  1.3509  1.6014  2.7273
16444TIP3   OH270746   4.695   4.517  15.730 -0.2140  0.3556 -0.5215
16444TIP3    H170747   4.693   4.450  15.661  1.0721  0.5094 -0.7316
16444TIP3    H270748   4.605   4.550  15.734 -0.5306 -0.3442 -1.4393
16445TIP3   OH270749   6.647   5.096  14.791  0.1559  0.0317  0.0501
16445TIP3    H170750   6.686   5.035  14.853  0.7804  0.5089  0.1289
16445TIP3    H270751   6.623   5.172  14.843  2.3215  1.2021 -0.5332
16446TIP3   OH270752   1.062   6.424  12.834 -0.9572 -0.0433  0.0081
16446TIP3    H170753   1.155   6.444  12.844 -0.8528 -0.6196  0.2331
16446TIP3    H270754   1.041   6.450  12.744 -1.0893  2.0161  0.5860
16447TIP3   OH270755   1.548   2.020  14.951 -0.2875 -0.1786  0.0278
16447TIP3    H170756   1.516   1.945  14.902  0.5461  0.6946 -1.9563
16447TIP3    H270757   1.619   1.986  15.005 -0.2466 -0.8907 -0.4769
16448TIP3   OH270758   0.251   1.481   0.995  0.2270  0.0903 -0.5285
16448TIP3    H170759   0.220   1.543   1.062 -1.6932 -0.6096 -0.6943
16448TIP3    H270760   0.332   1.445   1.031  0.0962  0.9130  0.6633
16449TIP3   OH270761   4.564   6.622  14.749 -0.5897 -0.2905  0.0178
16449TIP3    H170762   4.545   6.633  14.656  0.8808 -1.0459 -0.4033
16449TIP3    H270763   4.641   6.676  14.764 -1.1221  0.2376  0.9326
16450TIP3   OH270764   4.940   5.853  13.264 -0.2715  0.2196  0.2220
16450TIP3    H170765   4.947   5.763  13.232 -0.5536  0.4472 -0.4819
16450TIP3    H270766   5.029   5.887  13.262  0.1797 -0.6645  2.3637
16451TIP3   OH270767   6.014   2.967   2.376 -0.0440  0.8781  0.0540
16451TIP3    H170768   6.031   3.060   2.360 -1.2961  1.0046 -0.6703
16451TIP3    H270769   5.921   2.963   2.398 -0.1361 -0.2621 -0.4798
16452TIP3   OH270770   0.374   4.907  10.597 -0.0101  0.0164  0.0220
16452TIP3    H170771   0.279   4.914  10.597 -0.1135 -1.2038 -0.0889
16452TIP3    H270772   0.401   4.945  10.681 -0.6308  0.0256  0.2186
16453TIP3   OH270773   2.237   5.302   3.104 -0.0967 -0.4030  0.1023
16453TIP3    H170774   2.154   5.287   3.060 -0.6861  1.6519  0.4185
16453TIP3    H270775   2.267   5.387   3.071  1.6774 -0.9093  0.3173
16454TIP3   OH270776   0.288   0.697   1.221  0.4237 -0.1716  0.0828
16454TIP3    H170777   0.320   0.614   1.257 -0.6033 -0.1638  1.0557
16454TIP3    H270778   0.340   0.763   1.265  2.2938 -0.2919 -1.7696
16455TIP3   OH270779   2.528   3.251   2.514  0.1449 -0.4874  0.1540
16455TIP3    H170780   2.553   3.199   2.590  0.6277 -0.2347  0.1698
16455TIP3    H270781   2.483   3.189   2.457  0.2258 -0.7947  0.4184
16456TIP3   OH270782   3.719   4.287   5.254  0.2841 -0.5108  0.1600
16456TIP3    H170783   3.739   4.345   5.327 -1.0659 -0.2764  0.3638
16456TIP3    H270784   3.662   4.338   5.197 -0.7439 -1.5394  0.2215
16457TIP3   OH270785   5.145   6.487  11.728  0.3678 -0.3600 -0.9953
16457TIP3    H170786   5.072   6.427  11.742  0.7553 -0.9577 -1.5022
16457TIP3    H270787   5.214   6.454  11.786  0.0094  0.6336  0.0367
16458TIP3   OH270788   3.558   2.801   6.279 -0.4775 -0.2325 -0.4571
16458TIP3    H170789   3.571   2.708   6.259 -0.8907 -0.4993  0.4532
16458TIP3    H270790   3.532   2.802   6.372 -1.2096  0.7271 -0.6607
16459TIP3   OH270791   4.923   3.300  16.252 -0.2101 -0.1936  0.2678
16459TIP3    H170792   4.830   3.291  16.274 -0.2078 -0.8266  0.0415
16459TIP3    H270793   4.964   3.223  16.290  0.3360  0.3986  0.9072
16460TIP3   OH270794   5.189   1.043   5.313  0.8330  0.2324 -0.1053
16460TIP3    H170795   5.105   1.009   5.343  2.1194 -2.0377  1.3003
16460TIP3    H270796   5.222   1.095   5.386  1.3999 -0.3864  0.0933
16461TIP3   OH270797   0.882   4.792  16.411  0.3824  0.0903  0.0721
16461TIP3    H170798   0.902   4.882  16.433  2.8509 -0.1744 -0.8076
16461TIP3    H270799   0.886   4.789  16.315  1.2267 -1.0996  0.1179
16462TIP3   OH270800   2.126   4.568   2.345  0.3308  0.2590 -0.4754
16462TIP3    H170801   2.156   4.484   2.380  1.2517  1.0919  0.8182
16462TIP3    H270802   2.042   4.584   2.389  0.7174  0.5424  0.1839
16463TIP3   OH270803   0.072   2.568  17.112  0.2513 -0.2155  0.0682
16463TIP3    H170804   0.133   2.512  17.064 -1.2668 -0.8609 -1.2252
16463TIP3    H270805  -0.014   2.533  17.089 -0.5898 -0.1256  2.7968
16464TIP3   OH270806   3.650   0.689   1.333  0.2255  0.4579 -0.1596
16464TIP3    H170807   3.672   0.713   1.243  0.7645 -1.5688 -0.6369
16464TIP3    H270808   3.726   0.641   1.364 -0.7821 -0.7156  0.6031
16465TIP3   OH270809   2.115   1.816   1.306  0.1061 -0.0118 -0.4032
16465TIP3    H170810   2.130   1.749   1.373  0.1310  1.1865  0.8222
16465TIP3    H270811   2.021   1.811   1.289 -0.7700  2.4161  2.8244
16466TIP3   OH270812   0.730   4.245  16.571 -0.1894 -0.2170  0.2821
16466TIP3    H170813   0.692   4.180  16.630  0.5163 -0.2395  0.7208
16466TIP3    H270814   0.666   4.254  16.501 -0.3338 -1.3254  0.2559
16467TIP3   OH270815   2.259   2.470   3.392 -1.0674 -0.1862  0.3129
16467TIP3    H170816   2.249   2.443   3.483  0.4860  0.4729  0.7044
16467TIP3    H270817   2.252   2.389   3.341 -1.9188 -0.5578  0.9957
16468TIP3   OH270818   3.734   4.591  13.550 -0.2129 -0.5638  0.1358
16468TIP3    H170819   3.806   4.528  13.548  1.1118  0.9216 -0.1167
16468TIP3    H270820   3.682   4.569  13.473  0.0631 -1.5232  0.2043
16469TIP3   OH270821   6.451   3.685  11.876 -0.1181 -0.8300 -0.0879
16469TIP3    H170822   6.454   3.722  11.964  0.4879 -0.2041 -0.3588
16469TIP3    H270823   6.376   3.727  11.835  1.3566  1.2574 -0.8513
16470TIP3   OH270824   2.028   5.094   6.558  0.3436 -0.3193  0.0878
16470TIP3    H170825   2.096   5.031   6.533  0.3466 -0.5002  0.5398
16470TIP3    H270826   1.946   5.047   6.546  0.4068 -1.0310  2.0748
16471TIP3   OH270827   1.484   5.207   2.117 -0.3108  0.5489 -0.4916
16471TIP3    H170828   1.483   5.302   2.126  1.6177  0.4462  2.0249
16471TIP3    H270829   1.576   5.186   2.096 -0.3785 -0.8132  0.4456
16472TIP3   OH270830   6.444   4.039  16.299  0.0145  0.2301  0.4585
16472TIP3    H170831   6.396   4.062  16.219 -1.0722  0.1283  1.0610
16472TIP3    H270832   6.415   3.950  16.319  0.6018  0.0965  0.7418
16473TIP3   OH270833   1.189   4.337   3.956  0.1348 -0.0855 -0.6797
16473TIP3    H170834   1.164   4.415   3.906 -1.1438  1.1872  1.7853
16473TIP3    H270835   1.267   4.363   4.004  1.4964 -1.3777 -2.0800
16474TIP3   OH270836   3.421   6.545  13.182 -0.0608  0.2259 -0.0928
16474TIP3    H170837   3.439   6.479  13.249  1.1803  1.8668  1.2680
16474TIP3    H270838   3.333   6.577  13.203 -0.4150 -0.5266 -0.3849
16475TIP3   OH270839   4.138   1.754   5.127  0.4800  0.7496 -0.0785
16475TIP3    H170840   4.101   1.700   5.057 -0.8090 -0.0441  1.1586
16475TIP3    H270841   4.082   1.832   5.128 -0.1232  0.3270  0.6581
16476TIP3   OH270842   0.935   1.765  11.644  0.5237 -0.2028 -0.3839
16476TIP3    H170843   0.937   1.853  11.606  0.5789 -0.2751 -0.5526
16476TIP3    H270844   0.896   1.776  11.730  1.6493  0.1767  0.0951
16477TIP3   OH270845   0.852   5.336   2.981 -0.3060 -0.1218 -0.5393
16477TIP3    H170846   0.902   5.255   2.969  0.2121  0.3225 -1.5697
16477TIP3    H270847   0.778   5.327   2.921 -2.4167 -1.4286  2.0338
16478TIP3   OH270848   4.726   1.120   1.748 -0.0295  0.1840  0.3025
16478TIP3    H170849   4.751   1.055   1.814 -1.9037 -2.2064 -1.1410
16478TIP3    H270850   4.638   1.149   1.774 -0.0590  0.5408 -0.1715
16479TIP3   OH270851   0.937   4.391  15.234  0.4027 -0.4807  0.2901
16479TIP3    H170852   1.008   4.326  15.239 -0.3816 -1.3311  0.7908
16479TIP3    H270853   0.922   4.416  15.325  1.3871  1.2145  0.0264
16480TIP3   OH270854   0.773   5.951  16.153  0.3965 -0.4722 -0.2575
16480TIP3    H170855   0.712   5.957  16.079  0.9873 -1.7543 -0.8734
16480TIP3    H270856   0.842   6.013  16.133  0.1069 -0.1770 -0.3460
16481TIP3   OH270857   1.868   3.659  16.149  0.1187  0.1217 -0.0601
16481TIP3    H170858   1.929   3.675  16.077 -1.2862  1.2412 -1.0562
16481TIP3    H270859   1.864   3.564  16.156  1.0571  0.0094 -0.7577
16482TIP3   OH270860   4.240   5.503   1.026 -0.1550 -0.2515  0.7054
16482TIP3    H170861   4.274   5.424   1.068  0.5527  0.0666  0.7483
16482TIP3    H270862   4.180   5.540   1.090 -2.0787 -1.8079 -0.0917
16483TIP3   OH270863   1.523   3.870   2.912  0.1215 -1.0076 -0.3263
16483TIP3    H170864   1.549   3.952   2.954  0.8232 -0.5924 -1.5403
16483TIP3    H270865   1.505   3.811   2.985  0.4121 -0.0314  0.5628
16484TIP3   OH270866   4.162   5.827  17.273 -0.4797  0.0557 -0.7095
16484TIP3    H170867   4.138   5.866  17.357 -1.4933  0.8875 -1.3530
16484TIP3    H270868   4.255   5.807  17.281 -0.8808 -1.3111  1.1476
16485TIP3   OH270869   0.073   6.022  13.505 -0.1066  0.1741  0.1632
16485TIP3    H170870   0.099   6.068  13.426  1.2614  0.3306  0.6840
16485TIP3    H270871   0.155   6.000  13.549 -0.7663 -1.4584  0.6720
16486TIP3   OH270872   2.417   6.753  14.743 -0.1138 -0.0429  0.2264
16486TIP3    H170873   2.362   6.809  14.799  0.4957  1.0098 -0.2064
16486TIP3    H270874   2.368   6.670  14.738 -1.2669  0.5914  0.5107
16487TIP3   OH270875   4.989   0.395  11.879  0.5045 -0.5847 -0.1970
16487TIP3    H170876   4.967   0.367  11.790 -1.3337 -0.5442  0.2145
16487TIP3    H270877   4.963   0.321  11.934 -1.6406  0.6878  0.6056
16488TIP3   OH270878   6.437   6.551   2.099 -0.4996 -0.2334  0.1614
16488TIP3    H170879   6.517   6.513   2.134 -0.9713 -0.6030  0.8651
16488TIP3    H270880   6.454   6.646   2.098  0.6582 -0.4177 -1.5562
16489TIP3   OH270881   5.754   2.551   3.444  0.1296 -0.1167  0.0799
16489TIP3    H170882   5.717   2.596   3.520  0.9248  1.7708 -0.5925
16489TIP3    H270883   5.815   2.487   3.482 -1.0732 -0.7224  1.0689
16490TIP3   OH270884   2.475   5.944  15.970 -0.2949 -0.4883  0.0108
16490TIP3    H170885   2.433   6.003  16.032 -0.3995 -0.7700  0.2101
16490TIP3    H270886   2.455   5.981  15.884  0.4367  0.2951  0.1604
16491TIP3   OH270887   0.273   2.331  13.588  0.2274  0.1864  0.1410
16491TIP3    H170888   0.298   2.424  13.587  1.6445 -0.1635 -0.8940
16491TIP3    H270889   0.177   2.332  13.591  0.2229  1.6693  0.5771
16492TIP3   OH270890   0.049   4.736   3.328  0.1663 -0.3670 -0.1321
16492TIP3    H170891   0.046   4.664   3.391 -0.7916 -0.3210 -0.1200
16492TIP3    H270892   0.143   4.747   3.309  0.5730  0.2568  2.0154
16493TIP3   OH270893   4.499   5.024   1.655 -0.1869  0.5433  0.3235
16493TIP3    H170894   4.445   5.100   1.633 -3.3777 -1.1306  1.7347
16493TIP3    H270895   4.464   4.953   1.602  1.5245 -0.3866  0.3604
16494TIP3   OH270896   3.101   0.903   0.201 -0.0648 -0.7827 -0.0764
16494TIP3    H170897   3.055   0.869   0.278 -0.3216  0.5294  0.3830
16494TIP3    H270898   3.190   0.919   0.232 -0.0056 -0.8203 -0.2251
16495TIP3   OH270899   1.991   0.008   5.015  0.4316  0.4591 -0.3781
16495TIP3    H170900   2.024   0.089   4.977  1.1707  0.7659  0.8496
16495TIP3    H270901   1.968   0.032   5.105 -2.2043  0.0119 -0.8577
16496TIP3   OH270902   2.244   0.134   5.725 -0.1581 -0.6800 -0.1443
16496TIP3    H170903   2.331   0.175   5.727 -0.4227 -0.1198  0.3103
16496TIP3    H270904   2.220   0.125   5.817 -0.6760 -0.6252 -0.2708
16497TIP3   OH270905   3.973   2.721   4.143  0.1205 -0.2259  0.1669
16497TIP3    H170906   3.938   2.761   4.063  2.1662 -0.1300 -0.7237
16497TIP3    H270907   3.937   2.774   4.214 -0.5435  0.6107 -0.7588
16498TIP3   OH270908   6.780   4.812  14.367  0.0595  0.2904 -0.0183
16498TIP3    H170909   6.776   4.896  14.413  1.1672 -0.4762  1.5513
16498TIP3    H270910   6.739   4.830  14.282  0.0767  2.3530  0.3467
16499TIP3   OH270911   4.478   0.748  15.889 -0.4879 -0.1625  0.2894
16499TIP3    H170912   4.523   0.768  15.807  0.9067 -0.3583  0.9722
16499TIP3    H270913   4.411   0.815  15.897 -0.5652 -0.0666 -0.9369
16500TIP3   OH270914   1.088   6.633  14.068 -0.0108  0.4349  0.8116
16500TIP3    H170915   0.997   6.605  14.057 -0.3478  1.9443 -0.5937
16500TIP3    H270916   1.115   6.664  13.982  1.7558  0.3212  1.2720
16501TIP3   OH270917   2.109   6.331   2.499  0.4501  0.2582 -0.3031
16501TIP3    H170918   2.066   6.274   2.562  0.5511  0.5778  0.0654
16501TIP3    H270919   2.195   6.348   2.538  0.2445  1.0395 -0.1734
16502TIP3   OH270920   4.959   3.519   6.057  0.3704  0.0918 -0.1909
16502TIP3    H170921   4.996   3.472   6.131 -1.5694 -0.2777  0.6130
16502TIP3    H270922   4.871   3.482   6.047 -0.6834  2.4819 -0.4883
16503TIP3   OH270923   4.078   2.929  13.137  0.1867 -0.0522  0.5748
16503TIP3    H170924   4.067   2.894  13.226 -1.6203 -1.0662  0.0164
16503TIP3    H270925   4.074   3.024  13.148 -1.1188 -0.1752  1.5065
16504TIP3   OH270926   4.004   0.337  11.684  0.3629  0.3811 -0.6865
16504TIP3    H170927   4.100   0.331  11.687  0.2855 -0.6009  0.1725
16504TIP3    H270928   3.984   0.424  11.718  0.8746 -0.1301  1.0069
16505TIP3   OH270929   6.438   6.722  11.304 -0.4055 -0.0369  0.3074
16505TIP3    H170930   6.456   6.674  11.385  0.9394  0.8041  0.5556
16505TIP3    H270931   6.473   6.667  11.234 -1.7968 -0.8811  0.2513
16506TIP3   OH270932   5.099   4.589   0.598 -0.4320  0.1786  0.2496
16506TIP3    H170933   5.182   4.557   0.634  0.4873 -0.7440 -2.4252
16506TIP3    H270934   5.125   4.651   0.531 -2.0555  1.8639  1.1042
16507TIP3   OH270935   3.950   4.412  13.557  0.3514 -0.6266 -0.1423
16507TIP3    H170936   4.000   4.484  13.518 -0.8826  0.0935 -0.4457
16507TIP3    H270937   4.009   4.375  13.622  1.7056 -0.5523 -1.2716
16508TIP3   OH270938   4.334   0.990  11.864  0.6805 -0.3674 -0.5000
16508TIP3    H170939   4.319   0.898  11.888 -0.4719 -0.1468 -0.2914
16508TIP3    H270940   4.292   0.999  11.778  1.0421 -0.1002 -0.6505
16509TIP3   OH270941   0.629   2.119  13.928  0.4131 -0.2034  0.8417
16509TIP3    H170942   0.646   2.103  14.021  2.6831  0.6752  0.6424
16509TIP3    H270943   0.677   2.050  13.882 -0.9399 -0.8127  0.3028
16510TIP3   OH270944   3.213   3.542  12.833  0.0140  0.2880 -0.2073
16510TIP3    H170945   3.244   3.620  12.877 -0.0425  1.0380 -1.4415
16510TIP3    H270946   3.289   3.511  12.782 -0.5988  0.8752 -1.5184
16511TIP3   OH270947   3.188   4.355  11.424 -0.0499  0.3729  0.4242
16511TIP3    H170948   3.232   4.439  11.413  2.2709 -0.6293  1.3973
16511TIP3    H270949   3.104   4.376  11.466  1.7319  2.0073  3.5037
16512TIP3   OH270950   0.915   3.196  16.097 -0.1207  0.1830 -0.7132
16512TIP3    H170951   0.873   3.110  16.092 -1.3350  0.4996  2.1445
16512TIP3    H270952   0.842   3.258  16.105  0.7377  1.0148  1.5185
16513TIP3   OH270953   0.217   1.022  16.308 -0.4996  0.3081 -0.0023
16513TIP3    H170954   0.276   0.965  16.258 -0.2900 -0.8591  1.5170
16513TIP3    H270955   0.271   1.096  16.336  0.5902 -1.2211  2.2041
16514TIP3   OH270956   1.917   3.749   4.222 -0.6062  0.6916  0.4641
16514TIP3    H170957   1.965   3.685   4.170 -0.5106  0.8820  0.3184
16514TIP3    H270958   1.963   3.751   4.306 -1.1892 -0.1469  0.8231
16515TIP3   OH270959   6.122   2.821   4.019 -0.6751  0.0795 -0.3052
16515TIP3    H170960   6.179   2.865   3.956 -0.2674 -0.8279 -0.5852
16515TIP3    H270961   6.045   2.877   4.025  0.3092  1.4152  0.2093
16516TIP3   OH270962   3.858   1.796   4.963 -0.0918 -0.0570  0.0561
16516TIP3    H170963   3.909   1.723   4.928 -0.4278  0.1523 -0.9126
16516TIP3    H270964   3.768   1.777   4.938 -0.2695  0.3594  0.3693
16517TIP3   OH270965   1.777   4.198   2.173  0.0278 -0.4905  0.0253
16517TIP3    H170966   1.769   4.274   2.231 -0.5933  0.2126 -0.9447
16517TIP3    H270967   1.734   4.127   2.220 -0.4097  0.0485  0.4643
16518TIP3   OH270968   0.019   0.995  15.748  0.4168 -0.3333 -0.0832
16518TIP3    H170969   0.023   1.013  15.654  1.0484  1.2133  0.1941
16518TIP3    H270970  -0.071   0.968  15.764  0.6001 -1.7669 -1.2972
16519TIP3   OH270971   3.341   3.824  16.281 -0.3714 -0.0897  0.7444
16519TIP3    H170972   3.422   3.775  16.298  1.8603  3.2974  0.7745
16519TIP3    H270973   3.273   3.776  16.330  1.7472 -2.6033  1.4196
16520TIP3   OH270974   1.136   1.465  12.750 -0.0407  0.2930 -0.0360
16520TIP3    H170975   1.052   1.423  12.768 -0.2643  0.9221  0.4240
16520TIP3    H270976   1.118   1.558  12.756  0.8983  0.4247  1.0620
16521TIP3   OH270977   3.556   2.058   6.728 -0.0518  0.3746  0.4212
16521TIP3    H170978   3.490   2.082   6.663  0.2485 -0.3630 -0.1754
16521TIP3    H270979   3.592   2.141   6.757  0.4224  0.7014 -1.0087
16522TIP3   OH270980   4.596   0.260   3.817  0.2868 -0.0480 -0.1823
16522TIP3    H170981   4.576   0.271   3.723 -0.3041 -1.5903 -0.2630
16522TIP3    H270982   4.647   0.338   3.839  1.2360 -0.0812 -2.0088
16523TIP3   OH270983   0.241   2.877   5.356 -0.4116  0.3781 -0.8874
16523TIP3    H170984   0.297   2.915   5.424  0.2976 -0.4291 -1.0000
16523TIP3    H270985   0.187   2.949   5.326  0.1349  1.0305 -0.3323
16524TIP3   OH270986   3.808   2.639   1.122  0.0554 -1.0703 -0.1539
16524TIP3    H170987   3.868   2.708   1.151 -0.3416 -0.7714 -0.0200
16524TIP3    H270988   3.775   2.601   1.204 -1.4994  0.1498 -0.1551
16525TIP3   OH270989   2.582   4.398   1.756  0.8504  0.0074  0.3032
16525TIP3    H170990   2.617   4.418   1.670 -1.6377 -1.6865 -1.2433
16525TIP3    H270991   2.505   4.454   1.765  0.2604 -0.8355  0.7627
16526TIP3   OH270992   2.061   3.121  14.539  0.2228 -0.8314  0.4617
16526TIP3    H170993   2.116   3.129  14.461 -0.1790 -0.5336  0.2062
16526TIP3    H270994   2.117   3.151  14.611  1.0354 -2.3115  0.4877
16527TIP3   OH270995   6.128   4.635   4.355 -0.3292  0.6624  0.3439
16527TIP3    H170996   6.065   4.639   4.427 -0.0295  1.3299  0.5804
16527TIP3    H270997   6.214   4.634   4.399 -0.1768 -0.4885  0.0382
16528TIP3   OH270998   3.604   3.963   6.911 -0.1455 -0.6799 -0.0075
16528TIP3    H170999   3.697   3.988   6.917 -0.4049  0.1025  1.1625
16528TIP3    H271000   3.582   3.936   7.000 -1.2988  0.0920 -0.0438
16529TIP3   OH271001   4.299   5.102  16.773  0.0707 -0.1855 -0.3557
16529TIP3    H171002   4.324   5.156  16.847 -0.4344  0.3110 -0.5434
16529TIP3    H271003   4.363   5.030  16.773  0.4260  0.1251  0.2019
16530TIP3   OH271004   3.217   4.554   0.448  0.6803  0.6463  0.0874
16530TIP3    H171005   3.274   4.631   0.455  1.5012  0.0853 -0.2311
16530TIP3    H271006   3.276   4.482   0.424 -0.3215  0.2580 -1.3574
16531TIP3   OH271007   1.301   6.615   2.546 -0.0549 -0.7936  0.0183
16531TIP3    H171008   1.359   6.622   2.622  0.4735  2.8604 -0.5700
16531TIP3    H271009   1.358   6.589   2.474  0.0117 -1.2954  0.2463
16532TIP3   OH271010   0.964   2.868   0.403  0.3079 -0.0232  0.4988
16532TIP3    H171011   0.959   2.869   0.499  0.9092 -2.1160  0.6129
16532TIP3    H271012   0.874   2.857   0.374  0.2387 -0.5662  0.8966
16533TIP3   OH271013   6.388   3.940   2.253 -0.1238  0.0892 -0.3443
16533TIP3    H171014   6.394   3.965   2.345  1.0551  1.8867 -0.8452
16533TIP3    H271015   6.326   4.002   2.215 -1.8527 -1.6500 -0.4890
16534TIP3   OH271016   3.194   3.153  11.565 -0.3062  0.3678 -0.0652
16534TIP3    H171017   3.271   3.138  11.509 -0.8124  1.7921 -1.1988
16534TIP3    H271018   3.212   3.236  11.609 -0.7851  0.2381  0.3850
16535TIP3   OH271019   0.864   0.572   6.139  0.0475 -0.0425  0.3513
16535TIP3    H171020   0.945   0.621   6.154 -0.1726  0.9967 -1.4676
16535TIP3    H271021   0.828   0.610   6.058 -0.8376 -2.3577 -0.4175
16536TIP3   OH271022   1.388   0.675  13.229 -0.1935  0.3375  0.9445
16536TIP3    H171023   1.300   0.710  13.212 -0.2142 -0.2953 -0.4250
16536TIP3    H271024   1.378   0.620  13.307 -0.8193  0.9372  1.2967
16537TIP3   OH271025   5.539   2.306  17.003  0.6110 -0.2706  0.2059
16537TIP3    H171026   5.503   2.374  16.947  0.0266 -0.0456  0.8381
16537TIP3    H271027   5.536   2.227  16.949  1.8832  0.3005 -0.7551
16538TIP3   OH271028   0.782   1.396   0.349 -0.2171 -0.5420 -0.5458
16538TIP3    H171029   0.855   1.359   0.300  0.0155 -0.0927 -0.5409
16538TIP3    H271030   0.704   1.366   0.302 -0.0824 -1.9483  0.0871
16539TIP3   OH271031   4.773   2.189  16.736  0.1228  0.0951 -0.0007
16539TIP3    H171032   4.730   2.104  16.746 -0.3725  0.0841 -1.9038
16539TIP3    H271033   4.822   2.200  16.817 -1.9652 -0.7513  1.4740
16540TIP3   OH271034   0.811   4.539  16.498  0.0262 -0.5197  0.4875
16540TIP3    H171035   0.818   4.495  16.414 -2.1011  0.4519 -0.2668
16540TIP3    H271036   0.818   4.632  16.477 -1.5934 -0.2075  1.1969
16541TIP3   OH271037   2.175   3.939   5.088 -0.2465 -0.3150 -0.5314
16541TIP3    H171038   2.207   3.901   5.170  1.1165 -0.6507 -1.1903
16541TIP3    H271039   2.084   3.963   5.107  0.5559  1.3291  1.6356
16542TIP3   OH271040   2.613   4.443   3.129 -0.3750  0.1329  0.6021
16542TIP3    H171041   2.666   4.382   3.079  1.9371  0.4331  2.5467
16542TIP3    H271042   2.611   4.408   3.218 -1.3100  1.4589  1.1507
16543TIP3   OH271043   1.093   4.428   6.142  0.7280  0.2369 -0.3026
16543TIP3    H171044   1.032   4.391   6.206  0.8346 -1.4018 -1.0849
16543TIP3    H271045   1.042   4.491   6.092 -0.7486 -1.9898 -1.7638
16544TIP3   OH271046   0.076   4.120  13.245  0.4514 -0.4313 -0.1949
16544TIP3    H171047  -0.012   4.149  13.269  0.9117  0.6031  0.3177
16544TIP3    H271048   0.124   4.201  13.229  1.7391 -0.9095  1.0883
16545TIP3   OH271049   3.268   0.386   2.717 -0.0660  0.2997  0.1287
16545TIP3    H171050   3.307   0.358   2.800 -0.2688  1.6418  0.7085
16545TIP3    H271051   3.234   0.474   2.735 -3.6443 -0.8578 -0.2204
16546TIP3   OH271052   3.417   6.447   5.412  0.0870 -1.0846 -0.0120
16546TIP3    H171053   3.343   6.450   5.352 -0.8726 -1.3621  1.1085
16546TIP3    H271054   3.431   6.538   5.438  1.2602 -0.8083 -1.5054
16547TIP3   OH271055   0.045   1.674  12.371 -0.2268  0.4391 -0.1931
16547TIP3    H171056   0.063   1.694  12.463  0.8673 -2.1344  0.2637
16547TIP3    H271057  -0.050   1.682  12.362 -0.2721  1.4401  0.9461
16548TIP3   OH271058   4.529   1.998  17.099  0.5505 -0.1180 -0.5550
16548TIP3    H171059   4.494   1.996  17.010  0.9626 -0.8936 -0.7112
16548TIP3    H271060   4.568   1.911  17.111 -0.3647 -0.3672  0.7381
16549TIP3   OH271061   5.841   2.209  11.416  0.3545  0.1768  0.3654
16549TIP3    H171062   5.854   2.261  11.495 -0.3546  1.2146 -0.1825
16549TIP3    H271063   5.865   2.267  11.344  0.4571 -0.5644 -0.2139
16550TIP3   OH271064   5.330   2.674   4.631 -0.1796 -0.0388  0.1119
16550TIP3    H171065   5.252   2.718   4.598  1.5681  1.9643 -1.6243
16550TIP3    H271066   5.348   2.718   4.715 -2.1514 -2.1476  1.7635
16551TIP3   OH271067   0.653   3.784   3.691  0.5012  0.3089  0.7025
16551TIP3    H171068   0.673   3.778   3.784  1.6193  0.6547  0.5015
16551TIP3    H271069   0.732   3.754   3.647  0.3711  1.1299 -0.1476
16552TIP3   OH271070   4.373   5.087   3.822 -0.0699  0.3490 -0.2200
16552TIP3    H171071   4.462   5.122   3.830  0.9144 -1.5576 -1.8128
16552TIP3    H271072   4.357   5.043   3.906  0.9551 -0.2232 -0.3037
16553TIP3   OH271073   5.921   0.983   5.778  0.8357  0.0928  0.5169
16553TIP3    H171074   5.892   0.914   5.838 -1.1899 -0.0691 -0.5773
16553TIP3    H271075   5.921   1.063   5.831  0.7455 -0.3202  1.1518
16554TIP3   OH271076   5.429   2.692  15.579 -0.2177 -0.0344  0.1491
16554TIP3    H171077   5.501   2.756  15.580 -0.8068  0.6668 -0.7146
16554TIP3    H271078   5.366   2.725  15.643  0.5383 -1.0619  1.4819
16555TIP3   OH271079   2.858   5.118  16.917 -0.0041 -0.1147  0.1812
16555TIP3    H171080   2.897   5.032  16.931  3.1010  0.7204 -2.2923
16555TIP3    H271081   2.921   5.180  16.953 -1.0548  1.2317 -0.1857
16556TIP3   OH271082   0.113   2.907   5.662 -0.1149  0.1372  0.3848
16556TIP3    H171083   0.126   2.818   5.697 -0.4283 -0.6921 -1.4602
16556TIP3    H271084   0.202   2.941   5.650  0.0498 -0.3736  0.0928
16557TIP3   OH271085   0.164   2.491  11.174  0.7939 -0.4422 -0.5730
16557TIP3    H171086   0.227   2.541  11.123  0.8170  1.1031  0.8943
16557TIP3    H271087   0.099   2.461  11.110  0.5363  1.8555 -1.4713
16558TIP3   OH271088   3.453   2.399   1.797 -0.1540 -0.6149 -0.6770
16558TIP3    H171089   3.485   2.371   1.883  1.2463  0.3602 -0.8382
16558TIP3    H271090   3.374   2.348   1.782  0.7306 -2.3333  0.2758
16559TIP3   OH271091   3.424   0.978   5.198  0.1497  0.5602 -0.1962
16559TIP3    H171092   3.499   1.025   5.234  0.1252  0.7675 -0.4111
16559TIP3    H271093   3.459   0.893   5.171  0.2804  0.6138 -0.1933
16560TIP3   OH271094   5.702   2.891  15.322 -0.5500  0.3314 -0.3775
16560TIP3    H171095   5.662   2.946  15.254 -0.7926 -0.9400 -1.3136
16560TIP3    H271096   5.659   2.806  15.312  0.3377 -0.2451  0.5314
16561TIP3   OH271097   0.749   0.731   4.950  0.3681 -0.0646  0.6410
16561TIP3    H171098   0.741   0.808   4.894  1.3233 -1.7685 -2.0327
16561TIP3    H271099   0.837   0.737   4.987  1.1643 -0.7672 -1.0730
16562TIP3   OH271100   5.365   6.188  11.677 -0.0233  0.2707 -0.6785
16562TIP3    H171101   5.384   6.098  11.652 -1.4969 -0.4491  0.6478
16562TIP3    H271102   5.378   6.239  11.596  0.1158 -1.2184 -1.6266
16563TIP3   OH271103   2.501   4.032   5.313 -0.1546  0.1776  0.2024
16563TIP3    H171104   2.447   3.983   5.374 -0.0974  0.4754  0.5013
16563TIP3    H271105   2.586   3.988   5.316 -0.7180 -1.0840 -1.2452
16564TIP3   OH271106   1.866   6.747   3.837 -0.3394 -0.1488 -0.5872
16564TIP3    H171107   1.958   6.733   3.816 -0.5225  0.4620 -1.9003
16564TIP3    H271108   1.862   6.745   3.933  1.3432  1.6876 -0.4157
16565TIP3   OH271109   5.119   2.401  15.376  0.1832 -0.3654 -0.2717
16565TIP3    H171110   5.085   2.471  15.320 -0.5158 -1.3862 -1.1713
16565TIP3    H271111   5.110   2.435  15.465  2.3827  1.7713 -0.7678
16566TIP3   OH271112   4.820   5.960  11.914  0.2584  0.6510  0.2330
16566TIP3    H171113   4.731   5.925  11.915  0.8502 -1.1865 -2.1146
16566TIP3    H271114   4.860   5.927  11.994 -1.2759  1.9569  1.5962
16567TIP3   OH271115   1.912   0.990   0.150 -0.7980 -0.3034  0.2596
16567TIP3    H171116   1.885   0.925   0.085  0.7610 -0.6071 -0.1286
16567TIP3    H271117   1.872   0.960   0.232 -1.6498 -0.6790 -0.2740
16568TIP3   OH271118   2.179   1.845   6.309  0.2480 -0.1369 -0.3179
16568TIP3    H171119   2.151   1.762   6.271 -0.7064 -0.2455  0.5760
16568TIP3    H271120   2.253   1.823   6.366 -0.1714 -0.4292  0.1210
16569TIP3   OH271121   6.044   0.280   5.874 -0.1514  0.1532 -0.0367
16569TIP3    H171122   5.979   0.267   5.805  1.4539  1.5605 -1.9355
16569TIP3    H271123   6.051   0.375   5.882  0.5487  0.0088  1.2457
16570TIP3   OH271124   3.337   3.084   2.318  0.0453 -0.2655 -0.5413
16570TIP3    H171125   3.371   3.000   2.287  2.0669  0.5966 -0.8291
16570TIP3    H271126   3.317   3.133   2.238 -1.1017 -0.4164 -0.3750
16571TIP3   OH271127   0.922   3.290   1.178 -0.5513  0.5455 -0.0853
16571TIP3    H171128   0.929   3.254   1.266 -1.3368  0.8491  0.1132
16571TIP3    H271129   0.901   3.215   1.123 -1.7657  0.6075  0.2637
16572TIP3   OH271130   6.163   3.124   3.045  0.8609  0.1633 -0.2330
16572TIP3    H171131   6.230   3.085   3.102  0.8107 -2.2414 -1.7011
16572TIP3    H271132   6.203   3.206   3.015  2.2171 -0.1253  0.6584
16573TIP3   OH271133   3.308   5.436   0.462 -0.0287  0.1860 -0.1737
16573TIP3    H171134   3.371   5.506   0.478 -0.4595  0.6086 -0.3066
16573TIP3    H271135   3.345   5.359   0.506  0.9358  0.2449 -0.8500
16574TIP3   OH271136   6.594   2.435   1.543  0.0285 -0.2198  0.2138
16574TIP3    H171137   6.600   2.499   1.472 -1.9509 -0.7964 -0.5491
16574TIP3    H271138   6.541   2.479   1.610  1.4454  0.1232  1.1592
16575TIP3   OH271139   0.545   5.567  12.358 -0.8192  0.4512 -0.4723
16575TIP3    H171140   0.625   5.604  12.395 -0.8375  0.7738 -0.7426
16575TIP3    H271141   0.499   5.529  12.433  0.2109 -0.9541 -0.5139
16576TIP3   OH271142   6.722   3.769  14.968  0.4884  0.7232 -0.4861
16576TIP3    H171143   6.727   3.802  14.878 -2.7688  2.0824 -0.3252
16576TIP3    H271144   6.758   3.840  15.022 -0.7578  1.4417 -0.5555
16577TIP3   OH271145   3.652   0.494   6.397  0.2207 -0.0810 -0.4789
16577TIP3    H171146   3.602   0.554   6.342 -0.3005 -0.1019 -0.0401
16577TIP3    H271147   3.607   0.497   6.482  1.2698  0.3014  0.0876
16578TIP3   OH271148   1.996   2.667  12.324 -0.2918  0.1222  0.2822
16578TIP3    H171149   2.020   2.606  12.394 -0.2025 -1.0170 -0.7113
16578TIP3    H271150   2.001   2.754  12.365 -1.2025 -0.5683  1.9458
16579TIP3   OH271151   1.884   5.866  11.858 -0.0911 -0.4100 -0.0863
16579TIP3    H171152   1.908   5.924  11.786 -2.6882  1.1968  0.2212
16579TIP3    H271153   1.934   5.786  11.842  0.9787  0.6502 -2.4888
16580TIP3   OH271154   5.928   5.376   0.791 -0.2083 -0.2089 -0.4714
16580TIP3    H171155   5.992   5.350   0.856 -1.6240  0.0165  1.0752
16580TIP3    H271156   5.932   5.308   0.724  1.0606 -0.6041 -0.0082
16581TIP3   OH271157   3.738   2.209  10.834 -0.2420  0.6096  0.0250
16581TIP3    H171158   3.765   2.270  10.902  0.6343  1.1556 -0.7795
16581TIP3    H271159   3.776   2.245  10.753  2.6261 -2.3337 -0.1802
16582TIP3   OH271160   1.940   0.615  11.739 -0.2221  0.4100 -0.3761
16582TIP3    H171161   1.854   0.657  11.742 -1.4280 -1.9545  1.0663
16582TIP3    H271162   1.965   0.619  11.646 -1.9870  0.9461 -0.8748
16583TIP3   OH271163   4.051   5.573  15.822  0.3753 -0.1735 -0.3413
16583TIP3    H171164   3.979   5.526  15.779 -0.1187  0.8710 -0.6732
16583TIP3    H271165   4.107   5.602  15.750  0.4422  0.1385 -0.1635
16584TIP3   OH271166   6.572   4.150   2.821 -0.1448  0.2842  0.0724
16584TIP3    H171167   6.583   4.216   2.753  0.4928  1.5768  1.3871
16584TIP3    H271168   6.662   4.125   2.844 -0.2831  1.0675  1.5615
16585TIP3   OH271169   3.292   0.017   1.935  0.1068  0.4747  0.1475
16585TIP3    H171170   3.275   0.106   1.905  0.7646  1.5502  2.6897
16585TIP3    H271171   3.321  -0.030   1.856 -1.1787  2.2101 -1.4436
16586TIP3   OH271172   6.293   1.859   2.928 -0.0448 -0.4765 -0.0346
16586TIP3    H171173   6.358   1.792   2.909  0.4182 -0.3383  0.9713
16586TIP3    H271174   6.337   1.942   2.910  0.2436 -0.3627  1.0973
16587TIP3   OH271175   5.913   3.543  14.985  0.6413  0.3242 -0.1303
16587TIP3    H171176   5.877   3.486  14.917 -3.3953 -1.8205  3.2964
16587TIP3    H271177   6.006   3.524  14.986  0.6241 -0.6836 -3.8893
16588TIP3   OH271178   3.821   4.149  11.039 -0.1212 -0.4195  0.6741
16588TIP3    H171179   3.766   4.199  11.100  0.1693  0.3525  0.3105
16588TIP3    H271180   3.766   4.139  10.961  0.4729  0.9674  0.0376
16589TIP3   OH271181   3.782   1.362   1.033 -0.7209  0.1095  0.4279
16589TIP3    H171182   3.696   1.375   1.074 -1.4492  1.3440 -1.3429
16589TIP3    H271183   3.804   1.271   1.052 -1.3929  0.3691  2.7495
16590TIP3   OH271184   0.624   0.707   1.924  0.1631  0.5396  0.6776
16590TIP3    H171185   0.540   0.714   1.970 -0.4520 -1.1555 -0.1053
16590TIP3    H271186   0.607   0.647   1.852  1.9256  0.6015  0.1571
16591TIP3   OH271187   4.559   6.304   0.454  0.5751 -0.3637 -0.3020
16591TIP3    H171188   4.537   6.286   0.545  0.6344  1.7774  0.1882
16591TIP3    H271189   4.635   6.248   0.437  0.0363 -1.4373  0.6717
16592TIP3   OH271190   4.531   2.078   6.219  0.1017  0.5888  0.1969
16592TIP3    H171191   4.481   2.017   6.165  1.2262  0.2952 -0.5482
16592TIP3    H271192   4.485   2.080   6.303 -0.4796 -0.5616 -0.0853
16593TIP3   OH271193   5.336   5.554  15.281 -0.1013  0.3712  0.6544
16593TIP3    H171194   5.324   5.643  15.248 -0.0490  0.2311  0.2495
16593TIP3    H271195   5.288   5.553  15.364 -0.0429  0.7946  0.6984
16594TIP3   OH271196   5.609   4.363  14.079 -0.2880  0.0432  0.4926
16594TIP3    H171197   5.527   4.359  14.128  0.5986 -1.4686  1.9260
16594TIP3    H271198   5.585   4.335  13.990 -1.4231  0.2311  0.7211
16595TIP3   OH271199   2.310   0.099  17.243 -0.3251  0.4602  0.0357
16595TIP3    H171200   2.320   0.016  17.196 -1.1575  0.0630  0.5368
16595TIP3    H271201   2.344   0.165  17.183  0.6708 -0.2774 -0.2404
16596TIP3   OH271202   6.133   2.202   5.138 -0.3099  0.5599 -0.1686
16596TIP3    H171203   6.175   2.153   5.209  1.4464  1.3009 -0.6504
16596TIP3    H271204   6.167   2.291   5.147  1.2972  0.3218 -2.8907
16597TIP3   OH271205   1.581   2.911   4.220  0.2705  0.0742 -0.5768
16597TIP3    H171206   1.673   2.908   4.195  0.8659  1.5995  1.2068
16597TIP3    H271207   1.534   2.896   4.138  2.0666 -1.4622 -1.4175
16598TIP3   OH271208   0.887   2.108   2.815 -0.2777  0.1781  0.7067
16598TIP3    H171209   0.793   2.125   2.818 -0.3826 -0.1790 -0.0940
16598TIP3    H271210   0.902   2.043   2.883 -0.9992 -1.3673 -0.5344
16599TIP3   OH271211   1.705   5.403   4.533  0.1858  0.2134 -0.1944
16599TIP3    H171212   1.694   5.362   4.619 -1.1524 -0.2437 -0.5560
16599TIP3    H271213   1.738   5.491   4.551  0.2371  0.0026  0.7607
16600TIP3   OH271214   5.250   6.499  17.108  0.2523 -0.0446  0.1928
16600TIP3    H171215   5.327   6.497  17.052 -0.2094 -3.0319 -0.4943
16600TIP3    H271216   5.284   6.514  17.197  1.4692  0.0508 -0.2806
16601TIP3   OH271217   3.487   4.026  10.819  0.0344 -0.5855  0.4367
16601TIP3    H171218   3.427   3.973  10.767  1.5932  0.7634 -3.1423
16601TIP3    H271219   3.555   3.965  10.847  0.3665 -1.0404 -1.2311
16602TIP3   OH271220   2.803   2.986   3.583  0.0929  0.2751 -0.5230
16602TIP3    H171221   2.758   2.941   3.512 -0.9191  0.8035 -0.2281
16602TIP3    H271222   2.760   2.955   3.663 -0.2816  1.3600 -0.2891
16603TIP3   OH271223   2.297   1.004   0.758 -0.5007  0.0650  0.5814
16603TIP3    H171224   2.264   0.936   0.817  0.4182 -0.8169  0.1125
16603TIP3    H271225   2.265   1.086   0.796  1.4234 -0.2938  3.2629
16604TIP3   OH271226   2.915   5.594  17.023  0.0073  0.0234 -0.2420
16604TIP3    H171227   2.824   5.624  17.030 -0.8207 -2.4027  0.4376
16604TIP3    H271228   2.917   5.541  16.944  1.1083  0.7919 -0.7574
16605TIP3   OH271229   0.911   4.858   2.311  0.1453  0.0489  0.2521
16605TIP3    H171230   0.935   4.947   2.286 -0.1297  1.1734  3.4910
16605TIP3    H271231   0.815   4.857   2.308  0.0425  0.5491  1.9708
16606TIP3   OH271232   2.665   2.294   3.985 -0.4850 -0.2502 -0.3023
16606TIP3    H171233   2.619   2.211   4.000  0.1117 -0.1102  3.0060
16606TIP3    H271234   2.667   2.336   4.071  1.6203  1.9615 -1.3236
16607TIP3   OH271235   6.696   1.914  15.246  0.1056  0.3318 -0.1129
16607TIP3    H171236   6.626   1.913  15.181  1.6625 -2.4651 -1.9419
16607TIP3    H271237   6.699   1.825  15.280  2.1907  0.6034  0.5686
16608TIP3   OH271238   0.278   3.126   5.741  0.2226 -0.2679 -0.0529
16608TIP3    H171239   0.209   3.152   5.680  0.6636 -0.0936 -0.4773
16608TIP3    H271240   0.238   3.136   5.828  0.0759  0.9435 -0.2395
16609TIP3   OH271241   3.676   0.456   5.119  0.4099 -0.4366 -0.7881
16609TIP3    H171242   3.658   0.436   5.211  1.6569  2.6810  0.2897
16609TIP3    H271243   3.771   0.467   5.115  0.6818 -2.7150 -3.0545
16610TIP3   OH271244   2.346   4.724  15.313 -0.0926  0.1709  0.0610
16610TIP3    H171245   2.364   4.704  15.405 -0.8642 -1.2862 -0.0893
16610TIP3    H271246   2.306   4.812  15.315  0.7867  0.5629  1.0038
16611TIP3   OH271247   5.847   2.508  16.761  0.5516 -0.1316  0.1280
16611TIP3    H171248   5.822   2.594  16.729  0.6689  0.5306  1.7462
16611TIP3    H271249   5.816   2.447  16.694 -1.1902  1.0204 -0.1515
16612TIP3   OH271250   4.812   0.384   4.186  0.7592 -0.3049 -0.3619
16612TIP3    H171251   4.757   0.427   4.121  0.3165  1.7087  1.2448
16612TIP3    H271252   4.796   0.291   4.173 -2.0806  0.1589 -0.8082
16613TIP3   OH271253   1.295   2.374   6.635  0.3252  0.2969 -0.2717
16613TIP3    H171254   1.344   2.341   6.710 -0.2852 -2.4213 -0.9561
16613TIP3    H271255   1.205   2.380   6.665  0.6613  3.5339  0.4366
16614TIP3   OH271256   4.058   0.762  15.374  0.5693  0.1603  0.4410
16614TIP3    H171257   4.136   0.810  15.399  1.1149 -0.7140  0.4515
16614TIP3    H271258   4.015   0.817  15.309  1.3134  0.5400  0.2654
16615TIP3   OH271259   4.146   0.754   5.311  0.2398 -0.0502  0.0199
16615TIP3    H171260   4.053   0.775   5.321  0.2222 -0.7304  1.6260
16615TIP3    H271261   4.189   0.799   5.384  1.2685  0.7083 -1.0188
16616TIP3   OH271262   4.854   4.756  15.693 -0.0568  0.5421 -0.2641
16616TIP3    H171263   4.831   4.678  15.742 -0.0569 -0.1600 -1.3461
16616TIP3    H271264   4.928   4.794  15.740  0.7372 -0.7878 -0.4062
16617TIP3   OH271265   4.171   3.893  16.975 -0.4455  0.6459 -0.4090
16617TIP3    H171266   4.199   3.863  17.061  0.0268 -0.0917 -0.8047
16617TIP3    H271267   4.090   3.845  16.957  0.3492 -0.5058 -1.0734
16618TIP3   OH271268   2.304   2.209  14.004  0.2190  0.2463 -0.2485
16618TIP3    H171269   2.290   2.279  13.940 -0.8096 -0.8948 -1.3056
16618TIP3    H271270   2.275   2.248  14.087 -1.8031  0.6045 -1.0693
16619TIP3   OH271271   6.646   4.244  16.318 -0.2240  0.2648 -0.3210
16619TIP3    H171272   6.591   4.316  16.347 -0.2167 -0.1444  0.7640
16619TIP3    H271273   6.600   4.165  16.347  0.7257 -0.0919  0.2887
16620TIP3   OH271274   4.717   3.199  12.817  0.3022  0.2289 -0.1733
16620TIP3    H171275   4.730   3.238  12.904  0.6405 -0.7255  0.2250
16620TIP3    H271276   4.793   3.142  12.805  1.0953  1.5523 -1.8077
16621TIP3   OH271277   3.675   5.636  15.860 -0.4244 -1.0065 -0.2963
16621TIP3    H171278   3.697   5.592  15.942  3.3508  0.2472 -0.4505
16621TIP3    H271279   3.685   5.729  15.879 -0.9991 -0.5987 -1.8274
16622TIP3   OH271280   6.219   0.277   2.363 -0.5211 -0.0272 -0.7268
16622TIP3    H171281   6.313   0.264   2.374 -0.4598 -0.2669 -1.4541
16622TIP3    H271282   6.206   0.371   2.376 -0.3315 -0.1364  0.3363
16623TIP3   OH271283   4.955   1.959   4.408  0.2858 -0.5772 -0.3139
16623TIP3    H171284   4.927   1.877   4.448 -2.0221 -0.4600 -1.5172
16623TIP3    H271285   4.874   2.003   4.384  1.4963  1.1078 -1.5825
16624TIP3   OH271286   1.912   1.398   1.814 -0.5096  0.3694 -0.0483
16624TIP3    H171287   1.838   1.453   1.788 -1.8811 -1.3870 -0.0595
16624TIP3    H271288   1.908   1.324   1.754  1.2991  0.2416 -0.0525
16625TIP3   OH271289   5.316   4.898  16.174  0.2959 -0.0881 -0.1782
16625TIP3    H171290   5.260   4.921  16.100 -0.7330  0.7305  0.8058
16625TIP3    H271291   5.390   4.851  16.135 -0.8309 -0.7868 -1.5740
16626TIP3   OH271292   6.767   2.631  13.092  0.1861 -0.7696 -0.5065
16626TIP3    H171293   6.770   2.558  13.030 -0.8782 -0.1855 -1.2807
16626TIP3    H271294   6.718   2.598  13.167 -0.0322 -0.9440 -0.7252
16627TIP3   OH271295   1.153   2.971  13.800  0.6089 -0.4737  0.1945
16627TIP3    H171296   1.060   2.951  13.811  0.7840 -1.5955 -0.2120
16627TIP3    H271297   1.191   2.957  13.886  0.7845 -2.3712 -0.1440
16628TIP3   OH271298   5.054   5.061  14.193  0.1026 -0.3907 -0.4037
16628TIP3    H171299   5.049   4.980  14.143 -0.5070 -1.0163  0.6315
16628TIP3    H271300   4.978   5.058  14.252  1.2940 -0.1310  1.2180
16629TIP3   OH271301   4.806   4.563   1.420  0.3982 -0.2126  0.1667
16629TIP3    H171302   4.771   4.485   1.463 -1.9315  0.3113 -0.6370
16629TIP3    H271303   4.892   4.537   1.389 -0.5827 -2.6981 -0.6809
16630TIP3   OH271304   2.399   5.580  15.701 -0.1093 -0.1465  0.2196
16630TIP3    H171305   2.427   5.562  15.611 -0.4859  0.1309  0.0480
16630TIP3    H271306   2.403   5.675  15.710 -1.9853 -0.0112 -0.1358
16631TIP3   OH271307   5.296   1.189  13.993 -0.1156  0.3585  0.2376
16631TIP3    H171308   5.345   1.237  13.926 -2.5987  0.9068 -1.2881
16631TIP3    H271309   5.291   1.099  13.960 -1.2207  0.5963 -0.2650
16632TIP3   OH271310   2.943   1.233  15.024 -0.2185  0.3602 -0.7134
16632TIP3    H171311   2.917   1.187  14.944 -1.8593  0.0543 -0.0563
16632TIP3    H271312   2.860   1.266  15.060  0.4598  0.3114  0.9655
16633TIP3   OH271313   1.885   3.760  16.444  0.8182 -0.1551 -0.3749
16633TIP3    H171314   1.862   3.754  16.352 -2.0238 -0.4506  0.2804
16633TIP3    H271315   1.891   3.669  16.473  2.4051 -0.0847 -0.3533
16634TIP3   OH271316   3.681   0.243  12.510 -0.5655 -0.3252 -0.2962
16634TIP3    H171317   3.622   0.264  12.438  0.3463  2.5939 -0.3245
16634TIP3    H271318   3.667   0.313  12.574  0.9909 -1.0120  0.8703
16635TIP3   OH271319   6.412   1.247  16.332  0.5950 -0.1980 -0.1216
16635TIP3    H171320   6.456   1.333  16.336  0.5233 -0.1964  1.6009
16635TIP3    H271321   6.446   1.200  16.408 -0.6232 -1.0886 -0.1053
16636TIP3   OH271322   6.752   6.021   0.074 -0.3359  0.1219  0.3739
16636TIP3    H171323   6.736   5.937   0.031 -1.5633  0.4617  0.1308
16636TIP3    H271324   6.799   5.998   0.154  0.5552 -0.6617 -0.3511
16637TIP3   OH271325   3.223   0.808   1.616 -0.0741  0.6052 -0.0869
16637TIP3    H171326   3.194   0.777   1.530  0.7255  0.7733 -0.4231
16637TIP3    H271327   3.306   0.762   1.631 -0.3363  0.3789  0.7149
16638TIP3   OH271328   4.497   6.352  12.282  0.2239 -0.2678  0.4027
16638TIP3    H171329   4.516   6.441  12.313 -1.3151  0.4383 -0.5669
16638TIP3    H271330   4.402   6.347  12.283  0.2790 -1.7127 -0.1220
16639TIP3   OH271331   6.423   2.914   1.003  0.2654  0.8251 -0.1164
16639TIP3    H171332   6.487   2.874   0.944  0.1035  0.0801  0.2004
16639TIP3    H271333   6.439   3.008   0.995  0.2933  0.7361 -1.2822
16640TIP3   OH271334   1.178   0.588  16.826 -0.7317 -0.2298 -0.5610
16640TIP3    H171335   1.164   0.495  16.809  1.6348 -0.5605 -1.0581
16640TIP3    H271336   1.194   0.593  16.920 -1.6678 -0.1684 -0.3892
16641TIP3   OH271337   1.217   1.553   5.718  0.1489  0.0336  0.3537
16641TIP3    H171338   1.190   1.637   5.679 -0.2363 -0.3536 -0.2295
16641TIP3    H271339   1.175   1.553   5.804 -1.3827 -0.3430 -0.3521
16642TIP3   OH271340   4.341   2.058  12.867 -0.2904 -0.5812  0.1054
16642TIP3    H171341   4.295   2.098  12.940  0.5362  0.4005  0.1053
16642TIP3    H271342   4.283   2.072  12.792 -0.7212 -0.7822  0.3950
16643TIP3   OH271343   5.108   2.442   3.538  0.2561  0.4354  0.3056
16643TIP3    H171344   5.044   2.405   3.476  0.5593  1.9531 -0.9580
16643TIP3    H271345   5.186   2.388   3.526  0.7143  1.4555 -1.5594
16644TIP3   OH271346   6.523   6.259  13.752  0.1451  0.3844  0.1728
16644TIP3    H171347   6.440   6.236  13.709 -0.3381  0.5757  0.9751
16644TIP3    H271348   6.579   6.182  13.739  0.1479  0.5969 -1.1265
16645TIP3   OH271349   4.525   3.386  13.432  0.1153 -0.2310 -0.5191
16645TIP3    H171350   4.553   3.296  13.444 -3.6717 -1.6588 -0.8439
16645TIP3    H271351   4.525   3.399  13.337 -0.6376 -0.4259 -0.5557
16646TIP3   OH271352   2.266   4.835  13.174  0.4857  0.0379  0.0646
16646TIP3    H171353   2.282   4.796  13.260  0.7568 -2.8877 -1.1844
16646TIP3    H271354   2.334   4.902  13.164 -0.0353  0.9824  2.3821
16647TIP3   OH271355   5.972   4.198  14.973 -0.2768  0.2134  0.0248
16647TIP3    H171356   6.010   4.122  15.017 -1.3837  0.0557  0.7487
16647TIP3    H271357   6.017   4.273  15.012  0.1296 -0.0194  0.0106
16648TIP3   OH271358   5.710   0.695  14.922 -0.0761 -0.1065 -0.2368
16648TIP3    H171359   5.625   0.651  14.926  0.8231 -1.8268  1.5512
16648TIP3    H271360   5.720   0.739  15.006  0.9015 -0.1120 -0.3296
16649TIP3   OH271361   6.578   5.999   5.276  0.1831  0.1906 -0.1167
16649TIP3    H171362   6.642   6.035   5.215  0.0557  1.5944  0.5577
16649TIP3    H271363   6.588   5.904   5.267  2.7372  0.3567  0.3628
16650TIP3   OH271364   4.504   4.977  14.116  0.3160 -0.3229 -0.2158
16650TIP3    H171365   4.427   5.031  14.097  1.2419  0.7889 -0.8655
16650TIP3    H271366   4.579   5.034  14.102  1.2512 -0.6587  2.7185
16651TIP3   OH271367   1.348   4.993   3.429  0.3258 -0.0437  0.0289
16651TIP3    H171368   1.433   5.008   3.388  0.2401  1.0104  0.2218
16651TIP3    H271369   1.301   5.075   3.419 -0.6123 -0.5610  0.0842
16652TIP3   OH271370   2.508   6.357   2.858  0.6351 -0.1778 -0.2754
16652TIP3    H171371   2.594   6.373   2.898  0.6560  1.3933 -0.8674
16652TIP3    H271372   2.455   6.320   2.928  1.1466  0.9914  0.7593
16653TIP3   OH271373   0.819   6.480   5.693 -0.2672  0.1162 -0.1143
16653TIP3    H171374   0.825   6.384   5.691  1.9395  0.0654  2.4560
16653TIP3    H271375   0.861   6.508   5.611  5.5646 -1.2148  1.8835
16654TIP3   OH271376   4.787   4.430  16.547 -0.6651  0.0581 -0.0345
16654TIP3    H171377   4.699   4.401  16.571  0.0758 -0.4227  2.4289
16654TIP3    H271378   4.844   4.363  16.583  0.7518  0.5194 -1.3295
16655TIP3   OH271379   6.293   0.527  13.205  0.2034 -0.1059  0.4854
16655TIP3    H171380   6.208   0.516  13.246  0.1488  0.2177  0.4583
16655TIP3    H271381   6.273   0.550  13.114  0.2814  1.8680  0.9212
16656TIP3   OH271382   1.364   6.195  17.090  0.0153 -0.1589 -0.2702
16656TIP3    H171383   1.301   6.126  17.068 -0.0514  0.4959 -2.3836
16656TIP3    H271384   1.439   6.178  17.033  0.6975  0.5398  0.4001
16657TIP3   OH271385   6.727   4.770  11.252  0.4569  0.5015  0.2560
16657TIP3    H171386   6.721   4.678  11.226  1.3636  0.9182 -1.5082
16657TIP3    H271387   6.789   4.770  11.325 -0.0143 -0.3508  0.6730
16658TIP3   OH271388   5.284   1.426   4.724  0.1721 -0.0812  0.3075
16658TIP3    H171389   5.195   1.431   4.691 -0.1422  3.4852  1.2893
16658TIP3    H271390   5.338   1.408   4.646 -1.2424 -0.7879 -0.5364
16659TIP3   OH271391   6.220   3.244  14.625  0.1796  0.0024  0.0423
16659TIP3    H171392   6.200   3.276  14.713 -0.0875 -0.7264  0.2621
16659TIP3    H271393   6.182   3.156  14.624 -1.3198  0.6158 -1.3737
16660TIP3   OH271394   5.669   3.474  13.199  0.5090 -0.5390  0.4444
16660TIP3    H171395   5.678   3.445  13.290 -1.0751 -1.3897  0.3487
16660TIP3    H271396   5.662   3.394  13.148  0.2971 -0.0482 -0.3166
16661TIP3   OH271397   5.195   2.316   1.375  0.7442  0.1131  0.2008
16661TIP3    H171398   5.281   2.356   1.368  0.8851 -0.4714 -1.9498
16661TIP3    H271399   5.212   2.222   1.373  0.0382 -0.0135 -1.2289
16662TIP3   OH271400   5.366   4.712   5.388 -0.1454  1.1299 -0.1528
16662TIP3    H171401   5.294   4.651   5.401  1.5876 -0.9770  0.0529
16662TIP3    H271402   5.323   4.796   5.371 -2.6198 -0.0334 -0.0869
16663TIP3   OH271403   6.312   3.775  17.101  0.0885 -0.5139 -0.0400
16663TIP3    H171404   6.286   3.816  17.183  1.1492 -1.4606  0.8214
16663TIP3    H271405   6.334   3.847  17.043 -0.6592  0.1684  0.5092
16664TIP3   OH271406   5.019   1.706   0.001 -0.2115 -0.1344  0.0257
16664TIP3    H171407   5.075   1.719   0.078 -1.7181 -0.9797  1.3251
16664TIP3    H271408   5.058   1.631  -0.044  0.1086 -0.2827  0.5324
16665TIP3   OH271409   3.953   0.498  15.954 -0.0682  0.0619 -0.0044
16665TIP3    H171410   3.950   0.439  16.030 -0.7066 -0.7565 -0.6489
16665TIP3    H271411   3.866   0.491  15.915 -0.4602  2.1068  0.3779
16666TIP3   OH271412   6.208   0.236  15.179 -0.4176  0.2330 -0.3235
16666TIP3    H171413   6.231   0.287  15.257 -2.2302  0.5578  0.0442
16666TIP3    H271414   6.166   0.300  15.121 -0.4368 -0.3345 -0.9426
16667TIP3   OH271415   2.032   2.623  14.546 -0.3320 -0.4986  0.1659
16667TIP3    H171416   2.126   2.641  14.539 -0.4180 -0.2741 -0.4057
16667TIP3    H271417   1.990   2.693  14.497 -0.9360  0.8071  2.4175
16668TIP3   OH271418   5.536   1.731   3.749  0.5453  0.1978 -0.2312
16668TIP3    H171419   5.476   1.792   3.705 -1.6502 -0.9436  0.9652
16668TIP3    H271420   5.509   1.644   3.718  2.0390 -0.3383 -0.1243
16669TIP3   OH271421   3.245   0.480  12.077  0.2691  0.4392 -0.0412
16669TIP3    H171422   3.189   0.415  12.119 -1.1379  1.3846 -0.3674
16669TIP3    H271423   3.206   0.493  11.990  0.4727  1.7505  0.0413
16670TIP3   OH271424   0.117   1.218   1.001  0.2796 -0.1298 -0.0869
16670TIP3    H171425   0.073   1.214   0.916  2.0591 -1.6683 -1.0211
16670TIP3    H271426   0.157   1.305   1.003  0.5875 -0.2422 -1.0267
16671TIP3   OH271427   6.090   6.553  15.245 -0.3885  0.1685  0.0069
16671TIP3    H171428   6.180   6.574  15.217 -1.2479  1.7252 -1.7959
16671TIP3    H271429   6.084   6.590  15.333  1.1429 -1.2396  0.7690
16672TIP3   OH271430   2.320   6.413  12.228  0.3114  0.7133  0.2132
16672TIP3    H171431   2.400   6.412  12.175  0.6522 -1.7233  0.6818
16672TIP3    H271432   2.256   6.364  12.177 -0.6447  1.8933  0.2393
16673TIP3   OH271433   1.841   4.040  11.544 -0.5215 -0.0962  0.2534
16673TIP3    H171434   1.779   4.033  11.471  0.2857  3.5272 -1.0073
16673TIP3    H271435   1.921   3.999  11.511 -0.2409  1.2937 -0.9295
16674TIP3   OH271436   2.538   5.571  16.221  0.7144  0.1213  0.8462
16674TIP3    H171437   2.609   5.506  16.223  0.4884 -0.1430  0.3547
16674TIP3    H271438   2.498   5.559  16.135  0.8483  1.1003  0.6407
16675TIP3   OH271439   4.478   2.403   3.326 -0.3548 -0.0891 -0.3084
16675TIP3    H171440   4.453   2.412   3.234 -0.3610  1.6517 -0.1765
16675TIP3    H271441   4.398   2.421   3.375 -0.0264  0.4701  0.0435
16676TIP3   OH271442   0.483   1.325  16.714  0.6190  0.2325 -0.1730
16676TIP3    H171443   0.390   1.302  16.714  0.7901 -0.5184 -1.5185
16676TIP3    H271444   0.512   1.305  16.803 -0.4932  0.4441  0.2525
16677TIP3   OH271445   1.308   0.823   1.365 -0.1598  0.0659  0.4458
16677TIP3    H171446   1.351   0.752   1.318 -1.2581 -1.3188  1.4530
16677TIP3    H271447   1.215   0.805   1.356 -0.4881  1.7168  0.2532
16678TIP3   OH271448   0.377   6.112  14.355  0.2750 -0.6587 -0.6225
16678TIP3    H171449   0.311   6.169  14.315  1.9635  1.1825 -0.9358
16678TIP3    H271450   0.398   6.048  14.287  0.4525  0.1792 -1.3807
16679TIP3   OH271451   1.823   5.725  17.014 -0.5994  0.1415 -0.1759
16679TIP3    H171452   1.738   5.764  16.989 -0.5124  0.0923 -0.5484
16679TIP3    H271453   1.824   5.731  17.109 -1.0107  0.1751 -0.1701
16680TIP3   OH271454   0.283   0.778   0.695 -0.2104  0.8218  0.3353
16680TIP3    H171455   0.234   0.708   0.653 -1.7308  1.0593  1.5946
16680TIP3    H271456   0.308   0.837   0.624 -1.2577  0.3807 -0.4150
16681TIP3   OH271457   4.039   0.495   3.721  0.0044 -0.3475  0.0042
16681TIP3    H171458   3.962   0.482   3.666  0.0320 -0.5976  0.0258
16681TIP3    H271459   4.105   0.438   3.683  0.4272  0.4618 -0.5015
16682TIP3   OH271460   2.414   0.927  17.049  0.6763  0.9832 -0.0322
16682TIP3    H171461   2.471   0.852  17.067  1.0464  0.6106 -2.4522
16682TIP3    H271462   2.337   0.912  17.103  1.5591 -0.1067  0.9970
16683TIP3   OH271463   1.581   0.754  11.115 -0.2104  0.2312  0.3774
16683TIP3    H171464   1.560   0.819  11.048 -1.3377 -0.8260 -0.3357
16683TIP3    H271465   1.673   0.771  11.137  0.2821  0.4254 -1.6446
16684TIP3   OH271466   1.568   0.203  12.474  0.1820 -0.6620 -0.0540
16684TIP3    H171467   1.540   0.230  12.561  1.3652  0.0512  0.1368
16684TIP3    H271468   1.568   0.284  12.422 -0.8652 -1.1402 -0.8271
16685TIP3   OH271469   1.445   6.693  13.907  0.0525  0.0487 -0.2263
16685TIP3    H171470   1.391   6.761  13.867 -0.1182  0.0413 -0.0043
16685TIP3    H271471   1.529   6.701  13.862  0.1981  0.7450  0.1538
16686TIP3   OH271472   5.270   0.181   4.682  0.3143  0.0350  0.0761
16686TIP3    H171473   5.351   0.216   4.645  0.8951 -0.8975  0.4100
16686TIP3    H271474   5.200   0.231   4.640  0.9654 -0.6468 -1.9282
16687TIP3   OH271475   1.910   2.356  14.214 -0.1846  0.2830 -0.3497
16687TIP3    H171476   1.843   2.361  14.146 -0.5730  1.4398  0.0989
16687TIP3    H271477   1.915   2.445  14.249  2.0613  0.4098 -0.8330
16688TIP3   OH271478   5.928   5.663  14.871 -0.0598  0.3226  0.8307
16688TIP3    H171479   5.997   5.689  14.810 -2.0719  1.2942 -1.1839
16688TIP3    H271480   5.969   5.596  14.926  2.9007  1.8846  0.7524
16689TIP3   OH271481   3.604   1.040  15.811 -0.1157 -0.2529 -0.2010
16689TIP3    H171482   3.572   1.037  15.901  1.6147 -0.1517  0.4437
16689TIP3    H271483   3.576   1.125  15.778 -0.2693 -0.0592  0.4256
16690TIP3   OH271484   2.117   4.310   5.607  0.4159 -0.1826  0.3134
16690TIP3    H171485   2.132   4.231   5.660  2.8430 -1.1027 -1.5617
16690TIP3    H271486   2.175   4.300   5.532  1.1461  3.6321  0.1804
16691TIP3   OH271487   2.256   1.436   0.196  0.7148  0.3151  0.1254
16691TIP3    H171488   2.319   1.477   0.256  2.3216 -0.2348 -1.1212
16691TIP3    H271489   2.258   1.344   0.220 -0.2521  0.4114  0.6068
16692TIP3   OH271490   4.779   2.922  12.986 -0.4468  0.4855 -0.8360
16692TIP3    H171491   4.797   2.844  12.934 -0.6994 -0.2836  0.2088
16692TIP3    H271492   4.860   2.938  13.034 -0.5409  0.6063 -0.7164
16693TIP3   OH271493   2.656   2.362   2.396  0.3957 -0.1301 -0.1630
16693TIP3    H171494   2.641   2.268   2.406 -0.1868 -0.0522 -0.2335
16693TIP3    H271495   2.745   2.376   2.428  0.1524 -0.5570  0.7542
16694TIP3   OH271496   4.568   2.496   5.669  0.0269  0.1228 -0.0082
16694TIP3    H171497   4.616   2.494   5.586 -0.2931  1.1823 -0.2333
16694TIP3    H271498   4.480   2.526   5.644 -0.5366 -1.0611  0.5011
16695TIP3   OH271499   0.005   4.667   4.149  0.1349 -0.0611  0.1591
16695TIP3    H171500   0.062   4.723   4.096 -0.2341  1.7920  1.6075
16695TIP3    H271501  -0.074   4.656   4.097 -0.6326  2.5515  0.6283
16696TIP3   OH271502   2.028   6.670   0.745 -0.2419 -0.1171 -0.3400
16696TIP3    H171503   2.073   6.585   0.749 -0.7674 -0.4032 -0.4773
16696TIP3    H271504   1.993   6.674   0.656  0.2457  0.4852 -0.5069
16697TIP3   OH271505   2.339   6.156  11.416 -0.0139  0.2962 -0.3046
16697TIP3    H171506   2.293   6.117  11.342  0.5940 -0.3931 -0.3283
16697TIP3    H271507   2.384   6.083  11.459  0.4790  0.8396  0.1369
16698TIP3   OH271508   1.591   4.232  12.814  0.5991  0.2141 -0.4164
16698TIP3    H171509   1.501   4.259  12.831  0.8061  1.0279 -0.5925
16698TIP3    H271510   1.634   4.310  12.779  1.3794 -0.1606 -0.3179
16699TIP3   OH271511   4.262   5.884  16.354  0.2056 -0.3559  0.3848
16699TIP3    H171512   4.294   5.812  16.300  0.9102 -0.9848  1.6003
16699TIP3    H271513   4.334   5.901  16.416 -0.4244  0.5929  0.8766
16700TIP3   OH271514   0.116   2.449   0.526  0.2362  0.7315  0.2971
16700TIP3    H171515   0.034   2.402   0.511  0.0028  1.6946 -1.6704
16700TIP3    H271516   0.160   2.448   0.442  1.0454  2.4869  0.6679
16701TIP3   OH271517   2.523   6.649   4.534 -0.1362 -0.3490  0.2923
16701TIP3    H171518   2.515   6.690   4.620 -1.0127 -0.4273  0.2589
16701TIP3    H271519   2.435   6.615   4.516  0.2352 -1.0041 -0.2973
16702TIP3   OH271520   6.726   1.013  11.526 -0.4705 -0.4945 -0.1001
16702TIP3    H171521   6.712   1.094  11.477  0.3843 -1.3964 -1.9188
16702TIP3    H271522   6.815   1.021  11.560 -0.8093 -0.1845  0.7519
16703TIP3   OH271523   2.193   4.385  17.003  0.1779 -0.0994 -0.2310
16703TIP3    H171524   2.143   4.441  17.063  0.4076  1.4834 -1.4640
16703TIP3    H271525   2.266   4.353  17.056  1.0941  2.2952  0.0720
16704TIP3   OH271526   1.299   3.984  12.853  0.0302  0.1930 -0.1717
16704TIP3    H171527   1.284   4.063  12.800  1.7894  0.8795  0.2701
16704TIP3    H271528   1.349   4.016  12.928 -2.4666 -0.7421  1.9992
16705TIP3   OH271529   4.741   1.357  17.168  0.0171 -0.4273  0.3863
16705TIP3    H171530   4.765   1.286  17.228  0.4099 -0.1104  0.6061
16705TIP3    H271531   4.761   1.437  17.216 -1.0129 -0.1476  0.3846
16706TIP3   OH271532   1.908   2.211   2.010  0.3599  0.1378  0.1872
16706TIP3    H171533   1.839   2.228   2.074 -0.1306 -0.3720 -0.2100
16706TIP3    H271534   1.864   2.169   1.936  1.1547 -0.5733  0.1020
16707TIP3   OH271535   2.829   0.662   3.361 -0.0831  0.0750 -0.0423
16707TIP3    H171536   2.885   0.690   3.434 -0.7878 -0.4134  0.7179
16707TIP3    H271537   2.824   0.567   3.371 -0.7989  0.0840 -0.2774
16708TIP3   OH271538   0.954   1.257   1.306  0.2943 -0.0667  0.2519
16708TIP3    H171539   0.955   1.243   1.211 -2.1011 -1.3564  0.3377
16708TIP3    H271540   0.905   1.339   1.317  3.6359  2.1189  0.3257
16709TIP3   OH271541   3.126   2.552  10.988  0.2202  0.2996 -0.2340
16709TIP3    H171542   3.050   2.539  11.043 -0.1197  2.3923 -0.1289
16709TIP3    H271543   3.096   2.532  10.899 -0.4125  0.9153 -0.1658
16710TIP3   OH271544   2.386   0.317  13.608 -0.3861 -0.0030  0.8777
16710TIP3    H171545   2.439   0.251  13.651 -0.5724  1.1509  3.0021
16710TIP3    H271546   2.449   0.376  13.566 -0.0815  0.0871  1.4581
16711TIP3   OH271547   1.256   0.859  16.205  0.0366  0.0564  0.0834
16711TIP3    H171548   1.206   0.789  16.163  1.0365 -0.7596  0.2281
16711TIP3    H271549   1.192   0.902  16.263 -1.0461  0.4452 -1.3340
16712TIP3   OH271550   2.487   5.054  13.652 -0.4668  0.2021  0.4227
16712TIP3    H171551   2.484   4.964  13.684 -0.4410  0.1372  0.2419
16712TIP3    H271552   2.580   5.075  13.646 -0.4789  0.4309  0.9974
16713TIP3   OH271553   0.744   3.882  16.659 -0.3321  0.0211 -0.5246
16713TIP3    H171554   0.673   3.837  16.613 -0.8560  0.6772 -0.3606
16713TIP3    H271555   0.703   3.958  16.699 -0.2892 -1.4477  2.6050
16714TIP3   OH271556   3.344   0.138   5.077  0.2621  0.3599  0.1292
16714TIP3    H171557   3.272   0.202   5.078 -0.5497 -0.5393  0.1867
16714TIP3    H271558   3.325   0.079   5.149  2.4716  1.5752  1.8438
16715TIP3   OH271559   1.638   4.913  13.451  0.0396  0.0252 -0.1532
16715TIP3    H171560   1.637   4.961  13.368  1.5368 -3.8333 -2.7375
16715TIP3    H271561   1.549   4.881  13.461 -0.5667  1.9045  0.7249
16716TIP3   OH271562   5.186   6.357  13.131  0.3200 -0.0941  0.2096
16716TIP3    H171563   5.134   6.279  13.152  0.4378  0.0678  1.1925
16716TIP3    H271564   5.165   6.377  13.040  0.1694 -1.1784 -0.0069
16717TIP3   OH271565   1.662   0.267  13.883  0.1386 -0.2350  0.5810
16717TIP3    H171566   1.676   0.360  13.902  1.3456  0.3817 -2.6549
16717TIP3    H271567   1.710   0.221  13.951  0.7712  1.5443  1.3963
16718TIP3   OH271568   5.595   0.532  12.948  0.3177 -0.1993 -0.7117
16718TIP3    H171569   5.584   0.440  12.972 -1.0853  0.0434 -0.3413
16718TIP3    H271570   5.507   0.563  12.928  1.0258  0.4073 -3.3444
16719TIP3   OH271571   1.464   0.395  15.035 -0.5111  0.2694  0.2205
16719TIP3    H171572   1.497   0.419  14.949 -1.7643  0.6879 -0.1567
16719TIP3    H271573   1.431   0.477  15.072 -1.1309 -0.1387  0.5812
16720TIP3   OH271574   6.167   5.462  14.437  0.2607 -0.4007 -0.4729
16720TIP3    H171575   6.088   5.411  14.418 -0.9014  0.9419  0.5292
16720TIP3    H271576   6.144   5.551  14.412  1.3977  0.0590  0.0768
16721TIP3   OH271577   4.664   0.650  11.889 -0.7436  0.4715  0.5090
16721TIP3    H171578   4.629   0.561  11.896 -1.7674  0.9529  2.0894
16721TIP3    H271579   4.759   0.639  11.896 -0.4431 -0.8284 -3.4829
16722TIP3   OH271580   1.801   1.232  12.145  0.1921  0.5422  0.8699
16722TIP3    H171581   1.740   1.260  12.213 -0.0987  2.1753 -0.0096
16722TIP3    H271582   1.772   1.278  12.067 -0.0974 -2.0274 -0.6583
16723TIP3   OH271583   1.667   1.844   5.423 -0.2589  0.4127 -0.2272
16723TIP3    H171584   1.721   1.858   5.501  0.0257 -1.0205 -0.1396
16723TIP3    H271585   1.578   1.833   5.457 -0.1917  0.1617 -0.1271
16724TIP3   OH271586   5.155   4.016  13.279 -0.6156 -0.2112  0.1998
16724TIP3    H171587   5.069   4.041  13.246 -0.2849  1.6984  0.6681
16724TIP3    H271588   5.217   4.054  13.217 -0.0698 -1.7770 -0.2727
16725TIP3   OH271589   2.713   5.294   1.047 -0.3358 -0.0703 -0.2223
16725TIP3    H171590   2.691   5.205   1.073 -0.8520  0.6470  2.0361
16725TIP3    H271591   2.668   5.349   1.111 -0.4951  1.8407 -1.9062
16726TIP3   OH271592   2.393   5.363  12.734 -0.1276  0.5575 -0.1190
16726TIP3    H171593   2.389   5.326  12.646 -0.4300 -0.0146  0.1317
16726TIP3    H271594   2.314   5.417  12.741 -0.1214  0.5752 -0.1823
16727TIP3   OH271595   0.672   5.730  12.156  0.1420  0.4637 -0.1444
16727TIP3    H171596   0.602   5.691  12.207 -0.3343  0.5798 -0.6977
16727TIP3    H271597   0.732   5.766  12.221 -0.2962  0.3408  0.3356
16728TIP3   OH271598   5.991   1.945  16.237 -0.1332  0.0709  0.0330
16728TIP3    H171599   6.070   2.000  16.232  1.3078 -1.7751  1.2183
16728TIP3    H271600   5.927   1.992  16.184  1.6370  1.8388 -0.7091
16729TIP3   OH271601   5.894   5.424   3.221 -0.3251 -0.7131 -0.0458
16729TIP3    H171602   5.933   5.351   3.174 -0.3688 -0.5678 -0.3071
16729TIP3    H271603   5.946   5.500   3.195 -0.2818 -0.6489  0.2210
16730TIP3   OH271604   0.630   0.602  14.099  0.4069 -0.2865  0.2080
16730TIP3    H171605   0.621   0.625  14.191  1.7871  0.1509  0.2606
16730TIP3    H271606   0.579   0.669  14.053  1.0633  0.5029  0.5862
16731TIP3   OH271607   6.658   4.075  15.284 -0.2855  0.5719  0.0564
16731TIP3    H171608   6.624   4.014  15.219  1.3817 -0.9455  0.5300
16731TIP3    H271609   6.724   4.126  15.237 -0.2480  0.6171  0.1578
16732TIP3   OH271610   3.352   0.402  15.211  0.0015 -0.0656  0.4989
16732TIP3    H171611   3.392   0.317  15.229  1.1200  0.4769  0.6973
16732TIP3    H271612   3.421   0.452  15.168 -0.4777  0.9044  0.8198
16733TIP3   OH271613   0.030   5.072   4.906  0.0137  0.4895  0.1776
16733TIP3    H171614  -0.020   4.992   4.917  0.3380  0.1454 -0.7005
16733TIP3    H271615  -0.012   5.116   4.831 -0.3656  1.3075  0.8527
16734TIP3   OH271616   0.549   2.213  13.070  0.4033 -0.3457 -0.3440
16734TIP3    H171617   0.636   2.245  13.097  0.3689  0.7896 -1.4977
16734TIP3    H271618   0.559   2.117  13.069  1.5212 -0.2542 -0.0503
16735TIP3   OH271619   5.757   1.726  16.800 -0.0629  0.2157  0.4065
16735TIP3    H171620   5.729   1.801  16.747 -1.9329  0.7542  2.0249
16735TIP3    H271621   5.840   1.753  16.839  1.3950 -0.2170 -2.1536
16736TIP3   OH271622   5.155   4.318   1.753  0.4185  0.3186  0.2385
16736TIP3    H171623   5.200   4.250   1.703  0.1420  0.8831 -0.8275
16736TIP3    H271624   5.220   4.351   1.814  0.6370 -0.6952  0.5687
16737TIP3   OH271625   6.023   0.851  16.299  0.4270 -0.2978  0.0916
16737TIP3    H171626   5.972   0.849  16.380  0.9748  2.8343  0.6282
16737TIP3    H271627   5.976   0.911  16.242  2.1651  0.7305 -0.3317
16738TIP3   OH271628   2.372   4.226   1.377 -0.5061  0.2680  0.8380
16738TIP3    H171629   2.279   4.206   1.367 -0.3198 -0.0384 -0.3489
16738TIP3    H271630   2.396   4.184   1.460 -1.2719 -0.2278  0.8175
16739TIP3   OH271631   3.534   2.389  15.908  0.4194  0.3630  0.1079
16739TIP3    H171632   3.551   2.408  15.816 -0.1531 -2.1961 -0.6075
16739TIP3    H271633   3.620   2.396  15.950  1.4684 -1.9852 -1.3972
16740TIP3   OH271634   5.234   0.570   4.454  0.0585  0.5339  0.5575
16740TIP3    H171635   5.185   0.562   4.372 -1.4352  0.2467  1.4315
16740TIP3    H271636   5.205   0.494   4.506 -0.2381  1.5574  1.9362
16741TIP3   OH271637   6.404   2.387  16.330 -0.0341 -0.1707 -0.0950
16741TIP3    H171638   6.429   2.381  16.423  0.9339 -1.9363 -0.4242
16741TIP3    H271639   6.317   2.347  16.326  0.4922 -1.3493 -0.1293
16742TIP3   OH271640   0.825   4.037   6.594 -0.0091  0.3429 -0.2708
16742TIP3    H171641   0.840   3.945   6.618 -2.7196  0.3961  2.2246
16742TIP3    H271642   0.741   4.037   6.549  0.1945  1.5543 -0.6819
16743TIP3   OH271643   2.608   0.865  13.676  0.2135  0.8976 -0.0731
16743TIP3    H171644   2.681   0.838  13.621  0.6728  1.1622  0.3939
16743TIP3    H271645   2.609   0.804  13.749 -0.5228  0.4190 -0.4554
16744TIP3   OH271646   1.310   2.783  13.942 -0.2552 -0.3276  0.3976
16744TIP3    H171647   1.284   2.742  13.859 -1.8265 -1.4594  1.3798
16744TIP3    H271648   1.274   2.725  14.010  2.4542 -0.3861  1.9363
16745TIP3   OH271649   3.268   1.232   4.266 -0.9844 -0.4423 -0.4113
16745TIP3    H171650   3.251   1.320   4.235  0.7649  0.2104  0.3374
16745TIP3    H271651   3.257   1.176   4.189 -1.7972  0.4572 -0.9628
16746TIP3   OH271652   1.100   6.546   4.897  0.2093 -0.2745 -0.4661
16746TIP3    H171653   1.125   6.500   4.817 -0.9294  0.9145 -1.5580
16746TIP3    H271654   1.180   6.551   4.949  1.2733  0.0465 -2.0962
16747TIP3   OH271655   2.451   3.553   6.200  0.2306  0.3902  0.1631
16747TIP3    H171656   2.365   3.590   6.222 -0.1482  0.6122 -1.5479
16747TIP3    H271657   2.510   3.589   6.266 -0.7087  1.5011  0.4405
16748TIP3   OH271658   4.767   2.110   4.093 -0.1905  0.0891  0.2154
16748TIP3    H171659   4.762   2.206   4.100  0.0746  0.1197 -0.0277
16748TIP3    H271660   4.696   2.087   4.034 -0.2287  0.1380  0.2416
16749TIP3   OH271661   6.493   3.178   0.918  0.1770 -0.0500  0.0224
16749TIP3    H171662   6.588   3.189   0.909 -0.0746  1.9979 -0.7147
16749TIP3    H271663   6.458   3.203   0.832 -1.1198  0.5634  0.7051
16750TIP3   OH271664   1.184   0.326  12.085 -0.1891 -0.3937  0.2221
16750TIP3    H171665   1.147   0.406  12.047  0.6524  0.0014  0.2232
16750TIP3    H271666   1.226   0.356  12.166  2.3402 -0.4001 -1.0312
16751TIP3   OH271667   0.356   2.791  14.992  0.3837  0.4434  0.5399
16751TIP3    H171668   0.310   2.780  14.908  2.2259  0.6380 -0.5520
16751TIP3    H271669   0.298   2.751  15.056 -0.7313 -0.4381 -0.9401
16752TIP3   OH271670   1.637   4.555   4.031  0.5029 -0.1147  0.1041
16752TIP3    H171671   1.658   4.514   3.948 -0.5847  1.0623 -0.7839
16752TIP3    H271672   1.579   4.628   4.009  1.9503  1.6176  1.6435
16753TIP3   OH271673   4.017   6.735  11.354  0.3643 -0.1777 -0.3500
16753TIP3    H171674   4.023   6.742  11.449 -2.3863 -1.8895  0.0938
16753TIP3    H271675   4.094   6.780  11.320  0.4353  2.1925  2.6076
16754TIP3   OH271676   3.112   6.404  16.994 -0.7890 -0.3422 -0.3419
16754TIP3    H171677   3.119   6.377  16.902  1.4293 -0.3688 -0.2016
16754TIP3    H271678   3.062   6.485  16.991 -1.2906 -0.6679 -1.5004
16755TIP3   OH271679   3.698   1.185  11.853 -0.3395  0.3674 -0.7080
16755TIP3    H171680   3.685   1.277  11.831 -0.8108  0.9516  1.6837
16755TIP3    H271681   3.792   1.170  11.839  0.1302  1.7815  0.6154
16756TIP3   OH271682   1.357   4.843   5.010 -0.6669  0.5724  0.4610
16756TIP3    H171683   1.275   4.804   5.039 -0.0643 -0.2539  1.1238
16756TIP3    H271684   1.403   4.865   5.091  0.7553 -1.1459  0.1843
16757TIP3   OH271685   0.586   1.621   5.489  0.2549 -0.2163 -0.6514
16757TIP3    H171686   0.544   1.633   5.574  0.3618 -0.0764 -0.6171
16757TIP3    H271687   0.570   1.530   5.466 -1.1445  0.1409 -1.2118
16758TIP3   OH271688   1.049   6.061   5.178  0.5510 -0.0938 -0.0241
16758TIP3    H171689   1.054   6.156   5.188 -0.1340 -0.1227  0.6854
16758TIP3    H271690   1.134   6.036   5.142  1.4963  0.5584  1.6541
16759TIP3   OH271691   1.729   3.612  13.603  0.4843  0.2974  0.6425
16759TIP3    H171692   1.670   3.678  13.638  0.5659 -0.2958  1.9672
16759TIP3    H271693   1.755   3.560  13.679  1.2688 -0.5910 -0.1965
16760TIP3   OH271694   3.655   6.341  15.502 -0.0184  0.6491 -0.3563
16760TIP3    H171695   3.604   6.303  15.574 -0.9334  0.9560 -0.8154
16760TIP3    H271696   3.746   6.336  15.531 -0.3673  0.7244  0.7942
16761TIP3   OH271697   1.655   3.472   0.925 -0.5317 -0.2488  0.1549
16761TIP3    H171698   1.694   3.516   0.849 -0.4242  1.7457  1.2762
16761TIP3    H271699   1.581   3.528   0.949 -2.0893 -2.1888  0.0547
16762TIP3   OH271700   2.934   1.751  16.816 -0.6079  0.4396  0.0103
16762TIP3    H171701   2.847   1.791  16.813 -0.3894  1.1999  1.9252
16762TIP3    H271702   2.994   1.826  16.811 -0.0917  0.0035 -0.3766
16763TIP3   OH271703   5.418   3.686  15.339 -0.3301 -0.5755  0.2556
16763TIP3    H171704   5.491   3.625  15.326  0.0728 -0.0152 -0.1486
16763TIP3    H271705   5.340   3.637  15.311  0.0810 -0.6362 -0.8143
16764TIP3   OH271706   0.334   6.108   1.363  0.7645  0.3199  0.1230
16764TIP3    H171707   0.357   6.193   1.400 -2.1816  0.8895  0.9492
16764TIP3    H271708   0.347   6.045   1.434 -1.7992  0.9385  1.2844
16765TIP3   OH271709   4.080   6.619   3.657 -0.4193 -0.1409  0.0084
16765TIP3    H171710   4.140   6.660   3.719  0.1321 -1.2047  0.1913
16765TIP3    H271711   4.034   6.552   3.708 -0.5071 -0.5105 -0.5445
16766TIP3   OH271712   4.928   6.123  13.746  0.2525  1.1051 -0.0118
16766TIP3    H171713   4.885   6.042  13.774 -0.3602  0.7212 -1.9064
16766TIP3    H271714   4.901   6.188  13.811  0.9668 -0.2193  1.6949
16767TIP3   OH271715   5.309   4.319  15.014 -0.2259  0.4328  0.0417
16767TIP3    H171716   5.307   4.414  15.003 -0.9455  0.2466 -1.8362
16767TIP3    H271717   5.232   4.287  14.966  1.6070 -1.2934 -1.9479
16768TIP3   OH271718   1.301   1.520   2.292 -0.4149 -0.6843 -0.0697
16768TIP3    H171719   1.222   1.505   2.345 -0.1429 -0.8039  0.3026
16768TIP3    H271720   1.291   1.461   2.218 -0.5082 -0.9576  0.1584
16769TIP3   OH271721   3.032   5.439  10.587  0.3972  0.0352  0.7363
16769TIP3    H171722   3.031   5.530  10.557  1.6260 -0.7369 -1.9818
16769TIP3    H271723   3.107   5.433  10.646  1.7186  0.3475 -0.8478
16770TIP3   OH271724   0.800   4.758   1.776  0.1981 -0.1902  0.6085
16770TIP3    H171725   0.720   4.783   1.820 -0.0281  0.4281 -0.1230
16770TIP3    H271726   0.868   4.813   1.816  0.4222 -1.2662  1.7764
16771TIP3   OH271727   5.606   6.177  16.657  0.2655  0.2093  0.2097
16771TIP3    H171728   5.585   6.116  16.587  0.8548 -1.8768  1.7492
16771TIP3    H271729   5.527   6.179  16.711 -0.0455  1.4960 -0.2616
16772TIP3   OH271730   0.228   0.133  15.246  0.8369  0.1982 -0.4548
16772TIP3    H171731   0.280   0.058  15.275  0.8265 -0.2001 -1.4428
16772TIP3    H271732   0.277   0.209  15.277  1.1904 -0.1996 -0.0143
16773TIP3   OH271733   6.165   2.488  14.925 -0.0418  0.0403  0.0233
16773TIP3    H171734   6.247   2.455  14.888  0.7232  1.5046  0.3384
16773TIP3    H271735   6.103   2.486  14.853  1.2566  2.2504 -1.2601
16774TIP3   OH271736   2.357   2.853  13.619  0.2418 -0.5611 -0.0377
16774TIP3    H171737   2.396   2.765  13.617 -0.1461 -0.7846  1.1325
16774TIP3    H271738   2.406   2.902  13.553  0.1609 -1.7684 -1.0317
16775TIP3   OH271739   6.114   6.332   4.843 -0.1079 -0.4059  0.4718
16775TIP3    H171740   6.134   6.318   4.935 -1.4317  0.3638  0.9061
16775TIP3    H271741   6.030   6.377   4.843 -0.8887 -1.7312 -1.1513
16776TIP3   OH271742   4.591   5.703   0.237 -0.1317 -0.6005  0.1796
16776TIP3    H171743   4.676   5.660   0.245 -0.0136 -0.3558  0.2568
16776TIP3    H271744   4.600   5.760   0.161 -0.8526 -2.0006 -0.9992
16777TIP3   OH271745   1.167   2.929  13.522 -0.4922  0.1529 -0.2890
16777TIP3    H171746   1.252   2.890  13.500 -1.3925 -0.7805 -2.3901
16777TIP3    H271747   1.164   2.927  13.618  1.6261 -0.2584 -0.1783
16778TIP3   OH271748   1.827   3.891   0.867 -0.3175 -0.8466 -0.5722
16778TIP3    H171749   1.831   3.845   0.951  0.4020  0.8285  0.3694
16778TIP3    H271750   1.878   3.836   0.808  3.0265  0.0374  1.2362
16779TIP3   OH271751   6.124   1.568   2.227  0.1077  0.1450 -0.4253
16779TIP3    H171752   6.211   1.610   2.233 -0.4554  1.3519 -0.4426
16779TIP3    H271753   6.126   1.501   2.296  0.7457  0.7589  0.1784
16780TIP3   OH271754   3.339   5.510   0.847  0.2687  0.1412 -0.1196
16780TIP3    H171755   3.394   5.434   0.828 -0.2602 -0.4861  0.7979
16780TIP3    H271756   3.249   5.477   0.842 -0.1219  1.3474 -2.4860
16781TIP3   OH271757   2.752   1.835  13.341  0.4834  0.1902  0.2035
16781TIP3    H171758   2.731   1.741  13.343  0.8245  0.1038 -0.1889
16781TIP3    H271759   2.769   1.857  13.433 -1.0988  0.2197  0.5227
16782TIP3   OH271760   2.014   2.500   6.452 -0.1413  0.4515  0.1289
16782TIP3    H171761   1.986   2.460   6.534  1.9117 -0.2468  0.5612
16782TIP3    H271762   2.000   2.594   6.465 -0.0183  0.3310  1.2019
16783TIP3   OH271763   3.859   3.834  14.636  0.2401 -0.1603 -0.3251
16783TIP3    H171764   3.799   3.759  14.640 -1.4321  0.9642 -2.6438
16783TIP3    H271765   3.922   3.811  14.568 -0.5600  0.7062 -1.3763
16784TIP3   OH271766   0.939   6.043   4.382 -0.6157  0.1946  0.2662
16784TIP3    H171767   0.901   6.129   4.366 -0.1076  0.4525  0.4119
16784TIP3    H271768   1.013   6.038   4.321  0.4575  0.6043  1.4935
16785TIP3   OH271769   5.860   4.870  16.204 -0.5555 -0.2032 -0.2447
16785TIP3    H171770   5.865   4.870  16.109  1.3297 -0.1548 -0.1769
16785TIP3    H271771   5.925   4.935  16.232 -1.9753  0.7415  1.0582
16786TIP3   OH271772   3.315   6.460  10.959  0.1231 -0.3297  0.5486
16786TIP3    H171773   3.338   6.408  10.882 -2.0216 -1.1093  0.3530
16786TIP3    H271774   3.222   6.440  10.974  0.0018  1.2390  2.2241
16787TIP3   OH271775   5.701   4.917   5.391  0.5870 -0.3995 -1.0900
16787TIP3    H171776   5.775   4.873   5.349  0.3262 -2.0864  0.1170
16787TIP3    H271777   5.725   4.924   5.483 -0.7035 -0.8949 -0.6931
16788TIP3   OH271778   0.043   1.741   0.024  0.2398  0.0358 -0.0835
16788TIP3    H171779   0.049   1.796   0.102 -1.4406 -0.9211  0.7712
16788TIP3    H271780   0.126   1.693   0.022  0.6571  0.7112  0.6136
16789TIP3   OH271781   0.665   1.081   5.602  0.4668 -0.2129  0.0998
16789TIP3    H171782   0.679   1.028   5.524 -0.6216  1.0388 -0.9863
16789TIP3    H271783   0.591   1.137   5.580  1.5260  1.7275  1.2134
16790TIP3   OH271784   6.456   6.695  12.492 -0.0878  0.0796 -0.3964
16790TIP3    H171785   6.447   6.788  12.510  2.1283  0.2508  0.1364
16790TIP3    H271786   6.525   6.689  12.425 -1.3606 -1.1129 -1.6815
16791TIP3   OH271787   3.046   5.699   1.019 -0.5842 -0.2444 -0.3704
16791TIP3    H171788   3.142   5.700   1.012 -0.3760 -2.4363  1.1615
16791TIP3    H271789   3.024   5.606   1.016 -2.5491  0.1473  0.8365
16792TIP3   OH271790   0.638   6.409   1.626 -0.6242 -0.2271 -0.3447
16792TIP3    H171791   0.721   6.426   1.582 -0.2715 -1.8291 -0.3544
16792TIP3    H271792   0.659   6.342   1.692 -2.0709 -1.3704 -0.9983
16793TIP3   OH271793   3.997   3.706   2.052  0.0368 -0.1253  0.0162
16793TIP3    H171794   4.043   3.710   2.136 -0.2118 -0.5275  0.1740
16793TIP3    H271795   4.067   3.694   1.987  0.1418 -1.0232  0.2797
16794TIP3   OH271796   5.624   1.458  15.078  0.5311  0.2770  0.2939
16794TIP3    H171797   5.591   1.370  15.096  0.7074  0.3060  0.7842
16794TIP3    H271798   5.612   1.470  14.984 -1.5551  0.5745  0.5461
16795TIP3   OH271799   4.907   1.721  12.616 -0.7598 -0.1298  0.6188
16795TIP3    H171800   4.890   1.756  12.703  1.1680  2.8604 -0.0804
16795TIP3    H271801   4.979   1.659  12.629 -2.9737 -2.7297  1.5781
16796TIP3   OH271802   5.226   5.022   5.598 -0.2602  0.1680 -0.3837
16796TIP3    H171803   5.246   4.947   5.655  1.0578  0.7794  0.0233
16796TIP3    H271804   5.140   5.003   5.562  0.1512 -1.6708 -0.5029
16797TIP3   OH271805   1.628   1.189   1.039  0.5295 -0.1053  0.2903
16797TIP3    H171806   1.577   1.216   0.963 -0.5817 -0.1058  1.0194
16797TIP3    H271807   1.677   1.112   1.009 -0.8910 -0.9033 -0.0617
16798TIP3   OH271808   3.863   0.576   0.853 -0.1671 -0.7785 -0.0799
16798TIP3    H171809   3.920   0.504   0.825  3.4767  2.5249 -1.9330
16798TIP3    H271810   3.797   0.582   0.784  2.4471  0.5938 -2.6202
16799TIP3   OH271811   4.855   5.885  13.836 -0.3631 -0.0662  0.4899
16799TIP3    H171812   4.906   5.843  13.904 -1.6068 -0.0712  1.4533
16799TIP3    H271813   4.892   5.851  13.754 -0.6816 -2.2933  1.2046
16800TIP3   OH271814   2.526   0.764  12.700 -0.3613 -0.1128 -0.2465
16800TIP3    H171815   2.557   0.789  12.787  0.0445  0.5314 -0.5726
16800TIP3    H271816   2.499   0.846  12.659 -1.2933 -0.5021 -0.4517
16801TIP3   OH271817   1.749   0.248  12.801 -0.0710 -0.4163  0.0892
16801TIP3    H171818   1.663   0.289  12.793 -0.2946 -0.7310  0.8261
16801TIP3    H271819   1.810   0.315  12.770 -0.6700 -0.6617 -1.7322
16802TIP3   OH271820   4.338   2.255   2.475  0.5198 -0.7527  0.9442
16802TIP3    H171821   4.432   2.264   2.460  0.5465 -2.0526  0.2159
16802TIP3    H271822   4.320   2.314   2.548  1.5578  0.8893 -0.0543
16803TIP3   OH271823   0.123   6.506   2.698  0.7448  0.0864  0.7066
16803TIP3    H171824   0.093   6.596   2.688  1.0598  0.1292  0.1386
16803TIP3    H271825   0.043   6.454   2.690  0.7190  0.2409 -0.2383
16804TIP3   OH271826   5.303   4.586   6.409 -0.2975  0.1196  0.0847
16804TIP3    H171827   5.223   4.600   6.358 -0.7267  0.8700  0.9213
16804TIP3    H271828   5.271   4.553   6.493  0.3192 -0.0755  0.2475
16805TIP3   OH271829   0.861   2.026  16.224  0.4646  0.2445  0.2868
16805TIP3    H171830   0.908   2.108  16.212  0.1754  0.7026  2.1155
16805TIP3    H271831   0.930   1.959  16.227  0.7713  0.5412 -0.0523
16806TIP3   OH271832   2.056   2.933  17.247 -0.1709 -0.5692 -0.1020
16806TIP3    H171833   2.058   2.999  17.316  1.1305 -0.9899  0.2918
16806TIP3    H271834   2.148   2.912  17.232 -0.5040 -1.3361 -1.1521
16807TIP3   OH271835   3.144   2.727   1.770 -0.3886  0.1452  0.3797
16807TIP3    H171836   3.193   2.691   1.695 -0.9436 -0.8456  0.4740
16807TIP3    H271837   3.128   2.818   1.746 -1.6512 -0.4746 -1.3127
16808TIP3   OH271838   1.302   5.775  15.156 -0.0597 -0.0302  0.1610
16808TIP3    H171839   1.252   5.701  15.190  1.5069 -0.3485  1.9914
16808TIP3    H271840   1.324   5.826  15.234  0.7565  1.1517 -0.8118
16809TIP3   OH271841   2.089   4.758   4.545  0.0604  0.3167  0.3107
16809TIP3    H171842   2.163   4.756   4.605  0.0140  0.7750  0.3879
16809TIP3    H271843   2.017   4.719   4.595 -0.4333  2.2264  1.2036
16810TIP3   OH271844   5.262   5.344   1.075 -0.0474 -0.6490  0.1734
16810TIP3    H171845   5.323   5.417   1.083 -0.0908 -0.7442  1.5634
16810TIP3    H271846   5.273   5.314   0.985  2.2163 -0.8739  0.4538
16811TIP3   OH271847   2.392   2.146  11.023 -0.0746 -0.1943 -0.4428
16811TIP3    H171848   2.423   2.057  11.038  0.4040  0.1830  1.0107
16811TIP3    H271849   2.465   2.190  10.980  1.3279  0.5300  2.4330
16812TIP3   OH271850   5.286   4.525   0.251  0.6259 -0.2645 -0.1023
16812TIP3    H171851   5.205   4.479   0.274  0.7797 -0.3353  0.3131
16812TIP3    H271852   5.261   4.617   0.249  0.8086 -0.1573  1.3198
16813TIP3   OH271853   6.495   0.182   5.212  0.1247  0.0488 -0.6940
16813TIP3    H171854   6.541   0.217   5.288  1.1491  0.7720 -1.6050
16813TIP3    H271855   6.523   0.239   5.140  1.5663 -2.3771 -2.2026
16814TIP3   OH271856   5.637   0.379   6.205 -0.0432 -0.0101  0.1227
16814TIP3    H171857   5.556   0.337   6.234  0.5021 -0.3772  1.1873
16814TIP3    H271858   5.682   0.312   6.153  0.8371 -0.8098  1.8387
16815TIP3   OH271859   5.922   5.735  11.317 -0.4453 -0.3585 -0.0536
16815TIP3    H171860   5.973   5.797  11.369 -0.2326 -1.4761  1.1067
16815TIP3    H271861   5.959   5.741  11.229  3.0041 -2.4112  1.0853
16816TIP3   OH271862   4.489   6.042   1.695  0.1062 -0.2897  0.3580
16816TIP3    H171863   4.576   6.010   1.718 -0.2998 -2.2217 -0.6453
16816TIP3    H271864   4.457   6.082   1.776  1.2561 -1.0559  1.2254
16817TIP3   OH271865   2.817   3.279   2.080  0.4890 -0.7682 -0.0807
16817TIP3    H171866   2.830   3.186   2.063  0.2443 -1.0955  1.4233
16817TIP3    H271867   2.784   3.283   2.169 -2.4813  0.5388 -1.1159
16818TIP3   OH271868   1.024   6.341  14.828  0.1722 -0.4325 -0.2101
16818TIP3    H171869   1.016   6.398  14.904 -0.0470  0.4511 -0.8821
16818TIP3    H271870   0.958   6.373  14.767 -0.8467 -2.2292 -0.1045
16819TIP3   OH271871   2.457   2.843   3.732  0.1047  0.2390  0.3243
16819TIP3    H171872   2.503   2.786   3.794  0.4711  1.9091  1.6728
16819TIP3    H271873   2.509   2.837   3.651  1.6811  0.6541  1.2487
16820TIP3   OH271874   2.979   2.559   1.871 -0.0751  0.6343 -0.0814
16820TIP3    H171875   3.062   2.590   1.832 -0.1743  0.0649 -0.7530
16820TIP3    H271876   2.923   2.637   1.871  0.0235  0.7138 -0.8233
16821TIP3   OH271877   3.245   1.051   3.099  0.0258  0.0346 -0.3195
16821TIP3    H171878   3.193   1.111   3.044 -0.5507 -0.4725 -0.3345
16821TIP3    H271879   3.217   0.964   3.072  1.0780 -0.2541 -0.5008
16822TIP3   OH271880   6.762   0.482  16.698 -0.7876  0.1815  0.4172
16822TIP3    H171881   6.731   0.465  16.787  0.2463 -1.0430  0.5629
16822TIP3    H271882   6.710   0.557  16.669 -0.6095  1.0923  2.3196
16823TIP3   OH271883   6.107   0.772  17.127  0.0459  0.2284  0.4569
16823TIP3    H171884   6.131   0.803  17.214 -0.1253  1.0241  0.2297
16823TIP3    H271885   6.093   0.852  17.076 -3.7269 -0.1027  0.7113
16824TIP3   OH271886   4.272   0.700  16.202  0.2434 -0.4507  0.7718
16824TIP3    H171887   4.214   0.637  16.245 -0.0409 -0.7624 -0.0398
16824TIP3    H271888   4.359   0.659  16.206 -0.2129 -1.7987 -1.3209
16825TIP3   OH271889   6.374   1.664   2.302  0.1198  0.1521  0.1311
16825TIP3    H171890   6.406   1.607   2.232  0.5091  0.4925  0.0230
16825TIP3    H271891   6.410   1.750   2.280 -0.3327  0.4057  0.3729
16826TIP3   OH271892   4.179   6.589  12.349 -0.8547 -0.3638 -0.3387
16826TIP3    H171893   4.209   6.570  12.438  0.2089  0.3584 -0.5206
16826TIP3    H271894   4.086   6.608  12.359 -0.5988  0.4459  0.7415
16827TIP3   OH271895   2.492   4.751   3.986  0.0118  0.0917  0.2382
16827TIP3    H171896   2.536   4.718   4.064  0.2832 -1.1740 -0.4300
16827TIP3    H271897   2.463   4.673   3.939  0.1319  0.8099 -1.0876
16828TIP3   OH271898   3.023   5.156  16.584 -0.3853  0.1428  0.3840
16828TIP3    H171899   3.065   5.230  16.540  0.8020 -0.3272  0.7021
16828TIP3    H271900   2.947   5.136  16.530  0.8983 -0.2739 -1.3464
16829TIP3   OH271901   0.406   5.354   5.767 -0.3198  0.3680  0.4109
16829TIP3    H171902   0.368   5.438   5.795  1.3424  1.2120  0.2910
16829TIP3    H271903   0.498   5.362   5.791  0.1253 -0.9130 -0.8094
16830TIP3   OH271904   5.792   2.315  15.016  0.3397  0.6291  0.2127
16830TIP3    H171905   5.752   2.273  14.940  0.5081  0.8755 -0.0158
16830TIP3    H271906   5.798   2.246  15.082 -1.6223  0.8714  0.7181
16831TIP3   OH271907   2.788   4.408   4.046 -0.3554  0.4908 -0.2255
16831TIP3    H171908   2.792   4.322   4.089  2.0006  0.0551 -1.1821
16831TIP3    H271909   2.830   4.468   4.107  1.5555  0.1708 -1.1659
16832TIP3   OH271910   3.784   5.478   0.330  0.2586 -0.2075 -0.4275
16832TIP3    H171911   3.788   5.403   0.389 -0.6916  0.5654  0.6633
16832TIP3    H271912   3.696   5.476   0.293  0.2301  0.3322 -0.4071
16833TIP3   OH271913   5.132   1.477  13.063  0.4483 -0.3137 -0.1913
16833TIP3    H171914   5.208   1.470  13.120  0.8127 -0.1702 -0.6553
16833TIP3    H271915   5.144   1.560  13.016 -0.3442  0.0476  0.2370
16834TIP3   OH271916   2.794   1.336  13.477  0.1175 -0.6578  0.2044
16834TIP3    H171917   2.724   1.271  13.475 -0.8679  0.3316  1.0590
16834TIP3    H271918   2.815   1.345  13.570 -0.1225  0.5898  0.1512
16835TIP3   OH271919   5.807   1.185   3.284 -0.0495  0.1514  0.3875
16835TIP3    H171920   5.808   1.219   3.195  2.2043 -1.5421 -0.3010
16835TIP3    H271921   5.718   1.149   3.295  0.4300 -2.1250 -2.2252
16836TIP3   OH271922   4.180   2.917  16.088  0.1353 -0.0612 -0.4369
16836TIP3    H171923   4.126   2.995  16.099 -0.2421 -0.4185  0.2865
16836TIP3    H271924   4.120   2.844  16.101  0.6980 -0.4671 -0.0936
16837TIP3   OH271925   1.939   5.174   2.319  0.2135 -0.0969  0.0094
16837TIP3    H171926   1.868   5.126   2.363 -0.1911  0.8845  0.4513
16837TIP3    H271927   2.001   5.106   2.293 -1.1352 -1.0377 -0.8481
16838TIP3   OH271928   3.618   4.954  13.340  0.5185  0.1761 -0.0145
16838TIP3    H171929   3.575   4.939  13.256 -0.2984 -2.2575  0.7425
16838TIP3    H271930   3.548   4.984  13.397  0.0450 -2.1980  0.7916
16839TIP3   OH271931   2.530   6.044   2.103 -0.1536  0.0706  0.0928
16839TIP3    H171932   2.461   6.110   2.098  0.9481  1.2034 -0.9623
16839TIP3    H271933   2.611   6.094   2.103  0.6996 -1.2472  0.7292
16840TIP3   OH271934   3.865   3.700   4.351  0.2319 -0.2745 -0.2426
16840TIP3    H171935   3.867   3.782   4.301 -0.0919 -0.2290 -0.1801
16840TIP3    H271936   3.891   3.725   4.439 -0.0500 -0.2059 -0.1779
16841TIP3   OH271937   3.572   3.691  11.396  0.0211  0.2941  0.0566
16841TIP3    H171938   3.637   3.727  11.335 -1.3450  0.8905 -1.0964
16841TIP3    H271939   3.575   3.597  11.381  3.2193 -0.1979  2.6918
16842TIP3   OH271940   2.264   2.652  14.184 -0.0792 -0.8335 -0.0134
16842TIP3    H171941   2.192   2.683  14.130  1.0900  1.7484 -0.2447
16842TIP3    H271942   2.241   2.561  14.205 -2.5409 -0.6286 -1.4241
16843TIP3   OH271943   3.969   0.536  14.335 -0.1566  0.0636  0.0084
16843TIP3    H171944   3.971   0.455  14.284  0.8470  2.1900 -3.7526
16843TIP3    H271945   4.062   0.561  14.343 -0.5203  1.8047 -0.7511
16844TIP3   OH271946   1.804   4.561   2.858  0.0204  0.1117  0.0494
16844TIP3    H171947   1.846   4.580   2.942  0.3094 -0.3658  0.0202
16844TIP3    H271948   1.742   4.491   2.878 -0.9899  1.0114  0.1497
16845TIP3   OH271949   3.354   1.533  12.403  0.3074  0.2431 -0.0634
16845TIP3    H171950   3.297   1.609  12.390 -0.8598 -0.3140  1.4427
16845TIP3    H271951   3.396   1.549  12.488 -0.0902 -0.8350  0.3563
16846TIP3   OH271952   3.235   1.116  13.294 -0.1841 -0.0343  0.3910
16846TIP3    H171953   3.209   1.173  13.367 -1.1950  0.2065 -0.1417
16846TIP3    H271954   3.175   1.041  13.301  0.0676 -0.2583  0.1221
16847TIP3   OH271955   5.944   0.627  15.190  0.3077  0.4193 -0.3712
16847TIP3    H171956   5.886   0.631  15.266 -2.3199  0.1363 -2.1964
16847TIP3    H271957   5.994   0.708  15.193  0.4459  0.3090  1.7230
16848TIP3   OH271958   6.511   0.507  13.714 -0.3001  0.0168  0.4527
16848TIP3    H171959   6.504   0.466  13.628  0.6727 -0.6115  0.6577
16848TIP3    H271960   6.464   0.448  13.773  1.5296 -1.1333  0.8361
16849TIP3   OH271961   4.964   1.290  13.260 -0.1579 -0.0418  0.1903
16849TIP3    H171962   4.937   1.261  13.347  0.8880  0.6694  0.7776
16849TIP3    H271963   5.060   1.296  13.266 -0.0920  0.2357 -0.9429
16850TIP3   OH271964   2.865   2.373   1.364  0.7133  0.1539  0.0117
16850TIP3    H171965   2.846   2.466   1.376 -1.0467 -0.1564 -0.0938
16850TIP3    H271966   2.833   2.331   1.443 -0.4812 -0.5932 -0.8333
16851TIP3   OH271967   5.046   6.304  17.218 -0.4232  0.2150 -0.4420
16851TIP3    H171968   5.087   6.374  17.168 -0.7318  0.6152 -0.1409
16851TIP3    H271969   4.954   6.329  17.224 -0.7544 -0.7491 -1.2407
16852TIP3   OH271970   1.406   4.574   0.544 -0.2289 -0.0562  0.1801
16852TIP3    H171971   1.378   4.618   0.624 -0.9106 -1.0519  0.5183
16852TIP3    H271972   1.336   4.591   0.481  1.2073  2.3931 -0.8989
16853TIP3   OH271973   3.527   0.935   0.504  0.3372 -0.1373 -0.5262
16853TIP3    H171974   3.606   0.903   0.547  0.7772 -3.9283 -3.5946
16853TIP3    H271975   3.458   0.930   0.570  1.9996  0.0955  1.2892
16854TIP3   OH271976   1.650   6.224  11.868 -0.5681 -0.1798  0.2250
16854TIP3    H171977   1.638   6.314  11.837  1.3329 -0.2334 -0.8012
16854TIP3    H271978   1.572   6.178  11.837 -0.2264  0.5013 -1.8074
16855TIP3   OH271979   1.943   2.564  17.270  0.1096  0.1199 -0.2963
16855TIP3    H171980   1.860   2.530  17.302 -0.4280  0.9766 -0.7233
16855TIP3    H271981   2.003   2.490  17.273  0.0467  0.1116  2.4351
16856TIP3   OH271982   6.051   4.283  15.331 -0.6342  0.1920 -0.0900
16856TIP3    H171983   6.070   4.375  15.349 -0.8535  0.0600  0.8448
16856TIP3    H271984   6.043   4.242  15.417  1.2358 -1.0987 -0.4778
16857TIP3   OH271985   5.767   2.052  12.301 -0.5008  0.2227 -0.2513
16857TIP3    H171986   5.746   2.141  12.270  0.2798  0.8326  0.8882
16857TIP3    H271987   5.827   2.066  12.374 -1.8180 -1.1659  1.1739
16858TIP3   OH271988   4.048   4.578   5.551  0.7274  0.9250  0.3180
16858TIP3    H171989   4.006   4.664   5.555 -1.8547 -0.2161 -0.1729
16858TIP3    H271990   4.045   4.546   5.641 -2.0987 -0.2190 -0.0637
16859TIP3   OH271991   0.557   0.091   3.765  0.1148  0.2247 -0.1015
16859TIP3    H171992   0.618   0.017   3.765 -1.2541 -1.0800  2.8535
16859TIP3    H271993   0.472   0.051   3.745 -0.3415  1.3862 -0.5558
16860TIP3   OH271994   4.529   0.162   5.501 -0.0786 -0.2036  0.6740
16860TIP3    H171995   4.607   0.112   5.477  0.9985  1.0864  1.3652
16860TIP3    H271996   4.473   0.098   5.545  0.8698 -1.0177  0.7441
16861TIP3   OH271997   0.343   0.431  16.027  0.3983 -0.5069 -0.2325
16861TIP3    H171998   0.355   0.371  15.954  0.2056  0.6143 -1.2182
16861TIP3    H271999   0.355   0.518  15.989 -0.4624  0.1441  0.8993
16862TIP3   OH272000   0.446   6.409  14.729 -0.8154  0.3317  0.1829
16862TIP3    H172001   0.533   6.425  14.765 -1.4299 -0.3023  2.0446
16862TIP3    H272002   0.453   6.323  14.688 -0.2855  0.7826 -0.7230
16863TIP3   OH272003   6.013   4.411   5.169 -0.3305 -0.3822  1.0386
16863TIP3    H172004   5.928   4.368   5.181 -0.3662 -0.1907  1.5158
16863TIP3    H272005   6.049   4.372   5.089 -0.4543 -1.1409  1.3429
16864TIP3   OH272006   4.970   3.193   0.583  0.1313  0.2982  0.4911
16864TIP3    H172007   4.881   3.166   0.602  0.6497  0.1152  3.0694
16864TIP3    H272008   4.981   3.275   0.631  1.2461  0.5224 -0.1033
16865TIP3   OH272009   3.744   6.062   2.311 -0.3859 -0.4829  0.1369
16865TIP3    H172010   3.657   6.058   2.271  0.0399 -1.1557 -0.7318
16865TIP3    H272011   3.795   6.119   2.254  0.0759 -1.0209  0.0078
16866TIP3   OH272012   0.465   5.110  12.532  0.0357 -0.0556 -0.2590
16866TIP3    H172013   0.386   5.063  12.557  0.5644  0.1714  2.0110
16866TIP3    H272014   0.536   5.047  12.546  0.4373  0.3529 -0.4189
16867TIP3   OH272015   0.141   4.851   5.909 -0.0195  0.6054 -0.0406
16867TIP3    H172016   0.123   4.774   5.962 -0.4970 -0.6796 -1.9667
16867TIP3    H272017   0.236   4.863   5.914 -0.1765  1.3088  2.0788
16868TIP3   OH272018   6.327   4.175  16.060  0.0054  0.2741 -0.5652
16868TIP3    H172019   6.368   4.262  16.061  0.4490  0.0648  0.3315
16868TIP3    H272020   6.266   4.178  15.987 -1.5766  2.0913  0.7249
16869TIP3   OH272021   2.551   2.050  16.209 -0.3795 -0.3547 -0.0870
16869TIP3    H172022   2.551   1.976  16.148  0.1335 -0.9214  0.5882
16869TIP3    H272023   2.473   2.037  16.263 -0.2126 -0.4747  0.1235
16870TIP3   OH272024   2.626   6.043   6.395 -0.0059 -0.3472  0.4669
16870TIP3    H172025   2.705   6.017   6.348 -0.8958 -1.9597 -0.2004
16870TIP3    H272026   2.658   6.103   6.462  1.9078 -1.5645  0.7418
16871TIP3   OH272027   2.628   3.253   4.353  0.1390 -1.0169  0.4404
16871TIP3    H172028   2.569   3.189   4.312 -1.8266  0.8122  0.2230
16871TIP3    H272029   2.680   3.286   4.280 -0.0363 -1.1516  0.2517
16872TIP3   OH272030   5.196   5.228   2.010  0.0637  0.0012  0.1796
16872TIP3    H172031   5.245   5.299   2.051 -1.7952  0.6942  1.2823
16872TIP3    H272032   5.190   5.161   2.079 -0.5587 -0.0538  0.0756
16873TIP3   OH272033   2.576   2.643   1.380 -0.4088  0.4910  0.3613
16873TIP3    H172034   2.587   2.737   1.388 -1.6893  0.7481 -0.5369
16873TIP3    H272035   2.642   2.617   1.316  1.7918  0.2935  2.5764
16874TIP3   OH272036   6.220   2.859   0.546  0.1757 -0.6263 -0.0011
16874TIP3    H172037   6.127   2.854   0.526 -0.0889 -0.9475  1.2146
16874TIP3    H272038   6.224   2.901   0.632  1.2829  1.3199 -0.9377
16875TIP3   OH272039   5.909   0.602   4.245  0.4181  0.3238  0.5965
16875TIP3    H172040   5.876   0.639   4.327 -3.5768 -0.1223 -0.5891
16875TIP3    H272041   5.898   0.508   4.255 -1.7877  0.3382 -0.9404
16876TIP3   OH272042   2.407   0.835   4.462 -0.0777  0.6678 -0.2389
16876TIP3    H172043   2.461   0.838   4.384 -0.9010  1.1646 -0.8124
16876TIP3    H272044   2.355   0.755   4.452 -0.7600  1.1366 -0.6289
16877TIP3   OH272045   4.287   2.783   3.421 -0.3138  0.1952  0.2763
16877TIP3    H172046   4.312   2.835   3.344 -0.7452  1.5333  1.0189
16877TIP3    H272047   4.200   2.815   3.445 -0.8074 -1.2199  0.4801
16878TIP3   OH272048   0.025   0.782  14.470 -0.4523 -0.0791 -0.1607
16878TIP3    H172049   0.069   0.722  14.530 -0.7319 -0.0526  0.0753
16878TIP3    H272050  -0.063   0.747  14.460  0.1788 -1.2643 -2.2275
16879TIP3   OH272051   0.400   5.743  13.015  0.6936 -0.1379  0.2631
16879TIP3    H172052   0.322   5.692  13.037 -0.1361  1.0728  0.2446
16879TIP3    H272053   0.365   5.823  12.976  1.9439  0.6006  0.6127
16880TIP3   OH272054   6.354   4.131  14.490 -0.1170  0.1408 -0.3441
16880TIP3    H172055   6.408   4.125  14.412 -0.4091  2.4130 -0.7693
16880TIP3    H272056   6.271   4.090  14.465  0.2185 -0.2869 -0.7820
16881TIP3   OH272057   3.719   5.529   4.038 -0.4907  0.1478 -0.0686
16881TIP3    H172058   3.794   5.509   4.094 -1.2803  1.5481  1.5860
16881TIP3    H272059   3.758   5.555   3.954  0.8327  0.0808  0.5020
16882TIP3   OH272060   0.476   0.465  12.415 -0.2202  0.4687  0.6444
16882TIP3    H172061   0.395   0.502  12.381  0.0324  0.9897  0.5982
16882TIP3    H272062   0.541   0.533  12.401  0.6255 -0.6314 -1.0057
16883TIP3   OH272063   5.193   6.422  15.147 -0.5946 -0.3065 -0.1922
16883TIP3    H172064   5.183   6.507  15.189 -1.8611 -1.0817  1.1951
16883TIP3    H272065   5.264   6.434  15.084  1.5689  0.9355  2.2526
16884TIP3   OH272066   1.291   0.362  12.328  0.0296 -0.0311  0.0571
16884TIP3    H172067   1.328   0.273  12.325  0.4765  0.1218  0.7534
16884TIP3    H272068   1.358   0.414  12.373 -0.8802  0.3298  1.0323
16885TIP3   OH272069   4.119   1.666  13.555  0.2466 -0.6066 -0.2080
16885TIP3    H172070   4.056   1.625  13.614  1.1407 -0.7057  0.7110
16885TIP3    H272071   4.202   1.623  13.574  0.2341 -2.0094 -2.9367
16886TIP3   OH272072   2.702   4.168  12.281  0.1677  0.4732  0.5101
16886TIP3    H172073   2.613   4.161  12.247  0.3511 -0.0107  0.1117
16886TIP3    H272074   2.757   4.176  12.203  0.5523 -0.1690  0.7020
16887TIP3   OH272075   1.707   5.404   1.118  0.1484 -0.3006 -0.8059
16887TIP3    H172076   1.727   5.392   1.025  2.6675 -0.3030 -0.3515
16887TIP3    H272077   1.780   5.363   1.164 -0.6232  0.3884  1.1691
16888TIP3   OH272078   5.746   0.766  11.701  0.3110  0.4395  0.4742
16888TIP3    H172079   5.796   0.828  11.754  0.2547  1.1966 -0.3420
16888TIP3    H272080   5.695   0.820  11.641  0.5084 -0.3940 -0.4849
16889TIP3   OH272081   6.495   4.140   5.002 -0.0764 -0.2523  0.2235
16889TIP3    H172082   6.473   4.190   4.924 -0.7534 -0.6808  0.1349
16889TIP3    H272083   6.528   4.056   4.969  0.8298  0.0355  0.3766
16890TIP3   OH272084   0.339   4.456  14.129  0.1863 -0.3481 -0.2059
16890TIP3    H172085   0.251   4.464  14.092  0.2916 -0.6835 -0.5218
16890TIP3    H272086   0.327   4.476  14.222 -0.4364 -1.5665 -0.0073
16891TIP3   OH272087   6.763   0.633   3.778  0.0178  0.1387  0.1640
16891TIP3    H172088   6.815   0.712   3.796 -0.4560  0.3085  0.8128
16891TIP3    H272089   6.719   0.614   3.860 -0.5130 -0.3280 -0.2228
16892TIP3   OH272090   6.280   0.995  13.715  0.6116  0.0271 -0.1818
16892TIP3    H172091   6.357   1.038  13.677  1.6599 -0.5527  1.1942
16892TIP3    H272092   6.229   1.066  13.753  1.4168  0.2677  0.4926
16893TIP3   OH272093   5.449   5.317  16.188  0.4379  0.4945 -0.1484
16893TIP3    H172094   5.400   5.271  16.120 -0.0704  0.2587  0.3699
16893TIP3    H272095   5.405   5.293  16.270 -0.5104  2.7430  0.0660
16894TIP3   OH272096   1.124   2.241  11.190 -0.7818  0.4294  0.5424
16894TIP3    H172097   1.164   2.154  11.187 -2.1633 -0.2170 -0.0632
16894TIP3    H272098   1.087   2.254  11.103 -1.5909  1.1249  0.9695
16895TIP3   OH272099   1.885   0.849   3.741  0.1686 -0.6331 -0.2064
16895TIP3    H172100   1.799   0.812   3.723  0.1905 -1.7473  1.7306
16895TIP3    H272101   1.871   0.944   3.744 -0.6919 -0.7148 -1.2965
16896TIP3   OH272102   1.475   2.081   6.650  0.5497 -0.1892  0.3564
16896TIP3    H172103   1.534   2.108   6.580 -0.3652  1.5206  0.1859
16896TIP3    H272104   1.456   2.162   6.698 -0.2674 -1.0130  1.4792
16897TIP3   OH272105   1.376   1.594  12.738 -0.4837 -0.4067 -0.0086
16897TIP3    H172106   1.346   1.684  12.728 -1.9511 -0.7019  1.3047
16897TIP3    H272107   1.296   1.541  12.737 -0.0377 -1.3078  2.9269
16898TIP3   OH272108   3.436   2.043   3.351 -0.4660  0.6616 -0.0140
16898TIP3    H172109   3.460   2.116   3.294  1.1832 -0.0732 -0.3077
16898TIP3    H272110   3.445   2.078   3.440 -0.7273  1.1211 -0.1650
16899TIP3   OH272111   2.346   2.999   3.542  0.0202  0.1439 -0.0473
16899TIP3    H172112   2.365   2.942   3.616  0.0561 -0.8542 -0.8141
16899TIP3    H272113   2.320   3.082   3.582 -0.8665 -0.6567  1.1090
16900TIP3   OH272114   1.666   5.504  15.630  0.2792 -0.6052  0.1681
16900TIP3    H172115   1.655   5.594  15.599  2.0570 -0.0726  0.9487
16900TIP3    H272116   1.592   5.489  15.689 -1.2920 -0.4802 -1.6521
16901TIP3   OH272117   5.794   6.506  15.755 -0.3873  0.2742  0.0666
16901TIP3    H172118   5.856   6.578  15.768  0.5351 -0.1561 -1.6522
16901TIP3    H272119   5.813   6.474  15.667 -1.2740 -1.6059  0.5170
16902TIP3   OH272120   2.648   5.215   3.854 -0.0458 -0.5349  0.6883
16902TIP3    H172121   2.603   5.155   3.913 -0.6029 -0.4416  0.3749
16902TIP3    H272122   2.731   5.235   3.897 -1.0981  0.7974  2.2376
16903TIP3   OH272123   3.450   5.036  12.087  0.3181 -0.1538  0.2554
16903TIP3    H172124   3.482   5.127  12.091  0.4418 -0.2282  1.6548
16903TIP3    H272125   3.421   5.025  11.997  2.5987  0.4780 -0.6326
16904TIP3   OH272126   6.199   2.164   0.045  0.4796 -0.4862  0.4178
16904TIP3    H172127   6.252   2.234   0.081  0.4768 -0.3995  0.2543
16904TIP3    H272128   6.181   2.107   0.120  0.3394 -0.2243  0.5856
16905TIP3   OH272129   4.319   6.495  15.854  0.5366  0.4173 -0.8453
16905TIP3    H172130   4.330   6.574  15.801 -0.8287  1.1921 -0.0431
16905TIP3    H272131   4.319   6.528  15.944  0.0026 -0.5022 -0.5022
16906TIP3   OH272132   1.163   3.945   3.548  0.0377 -0.1693 -0.4022
16906TIP3    H172133   1.116   4.021   3.582 -0.8303 -1.0376  0.3899
16906TIP3    H272134   1.203   3.906   3.625  2.0912  0.5298 -1.0481
16907TIP3   OH272135   5.177   6.118  14.728  0.0417 -0.3652 -0.1071
16907TIP3    H172136   5.092   6.125  14.684 -0.7691 -0.2883  1.3653
16907TIP3    H272137   5.223   6.199  14.706 -0.7725  0.1493  0.0507
16908TIP3   OH272138   4.764   6.621  11.890 -0.1748  0.2720 -0.2514
16908TIP3    H172139   4.744   6.530  11.912  0.1539  0.5216  1.1758
16908TIP3    H272140   4.782   6.663  11.974 -0.7138  1.7627 -0.8372
16909TIP3   OH272141   5.985   1.310   5.060  0.0981  0.6385 -0.3660
16909TIP3    H172142   6.056   1.327   4.997 -0.5934 -0.0351 -1.3418
16909TIP3    H272143   5.974   1.393   5.106  0.0700  1.4003 -1.7005
16910TIP3   OH272144   2.853   3.312  11.485  0.1024  0.0513 -0.5791
16910TIP3    H172145   2.827   3.278  11.400  0.7400 -0.2230 -0.6680
16910TIP3    H272146   2.830   3.243  11.547  0.2232 -0.0135 -0.6061
16911TIP3   OH272147   3.319   1.708  16.590 -0.1300  0.1485 -0.5398
16911TIP3    H172148   3.258   1.709  16.516  0.1036  1.2789 -0.7412
16911TIP3    H272149   3.272   1.751  16.661  0.0681  0.1356 -0.3986
16912TIP3   OH272150   5.884   1.479  12.006  0.6014  0.0117 -0.1271
16912TIP3    H172151   5.935   1.560  12.001 -0.4580  0.8167  1.1995
16912TIP3    H272152   5.913   1.439  12.089  0.5389 -0.5625 -0.3828
16913TIP3   OH272153   2.275   0.568   0.433 -0.6551 -0.3029 -0.6590
16913TIP3    H172154   2.228   0.495   0.471  1.8279 -0.6694  2.0956
16913TIP3    H272155   2.280   0.633   0.503 -0.2619  1.2755 -2.0711
16914TIP3   OH272156   2.786   6.248   3.489  0.0711  0.1836  0.2545
16914TIP3    H172157   2.784   6.237   3.394 -0.7648 -2.2426  0.4699
16914TIP3    H272158   2.838   6.173   3.520 -2.0004 -0.7131  1.8244
16915TIP3   OH272159   1.481   0.499  16.007 -0.2357  0.8482  0.3590
16915TIP3    H172160   1.576   0.510  16.017 -0.2111  0.7461  0.2449
16915TIP3    H272161   1.470   0.464  15.919 -0.3454  0.4407  0.5295
16916TIP3   OH272162   5.776   0.001   3.735  0.7584  0.5009  0.6624
16916TIP3    H172163   5.795   0.024   3.826  2.3395 -0.4622  0.6121
16916TIP3    H272164   5.826  -0.079   3.720 -1.1703 -0.5424 -0.4432
16917TIP3   OH272165   0.263   3.451   4.119  0.5976 -0.5207  0.0953
16917TIP3    H172166   0.194   3.445   4.053  0.5576  1.0268 -0.0274
16917TIP3    H272167   0.334   3.395   4.085 -0.1861 -1.3149 -0.2665
16918TIP3   OH272168   6.710   0.965  12.172 -0.4414 -0.0921  0.0603
16918TIP3    H172169   6.638   1.003  12.120 -0.0407 -0.8787 -1.1168
16918TIP3    H272170   6.691   0.872  12.173  0.8900 -0.3992 -0.8202
16919TIP3   OH272171   0.453   2.764  16.651  0.2912  0.3023  0.0444
16919TIP3    H172172   0.371   2.813  16.654 -0.5527 -1.0974  1.4617
16919TIP3    H272173   0.479   2.767  16.559 -1.2947  0.8583 -0.4256
16920TIP3   OH272174   1.337   6.591  17.101  0.0136 -0.3509 -0.1223
16920TIP3    H172175   1.258   6.635  17.132  0.3194  0.6774 -0.7727
16920TIP3    H272176   1.345   6.618  17.010  2.3650  1.4365  0.5276
16921TIP3   OH272177   2.351   1.591  10.787 -0.4669 -0.0040  0.2685
16921TIP3    H172178   2.442   1.618  10.802 -0.2130 -0.3604 -0.5782
16921TIP3    H272179   2.352   1.550  10.700 -1.5059  0.3000  0.1003
16922TIP3   OH272180   4.419   2.399  12.622 -0.1760  0.1621 -0.1988
16922TIP3    H172181   4.378   2.468  12.675 -2.6099 -0.8553 -0.6194
16922TIP3    H272182   4.470   2.348  12.685  0.8722  1.7308  0.2784
16923TIP3   OH272183   0.082   2.485   4.968  0.1945  0.1032 -0.5955
16923TIP3    H172184   0.048   2.402   5.001  0.1959  0.0903 -0.6264
16923TIP3    H272185   0.165   2.497   5.015  0.0753  0.2073 -0.4113
16924TIP3   OH272186   1.817   2.129  10.831  1.1048 -0.5065 -0.1807
16924TIP3    H172187   1.750   2.084  10.883  1.4962 -1.8024 -0.7541
16924TIP3    H272188   1.899   2.087  10.857  1.4765 -0.1566 -0.7729
16925TIP3   OH272189   5.064   4.627  12.849 -0.0981 -0.1550 -0.5471
16925TIP3    H172190   5.055   4.596  12.759 -2.1499 -0.4917 -0.2781
16925TIP3    H272191   5.159   4.630  12.864  0.2717 -0.9050 -2.4185
16926TIP3   OH272192   0.390   3.731  10.629  0.0116  0.3475 -0.2867
16926TIP3    H172193   0.461   3.780  10.588 -0.1707  0.2061 -0.7901
16926TIP3    H272194   0.401   3.744  10.723  0.9532 -0.0306 -0.3392
16927TIP3   OH272195   3.946   3.263   3.176 -0.1835 -0.5795  0.0123
16927TIP3    H172196   3.851   3.269   3.162  0.3021  1.2418 -3.7257
16927TIP3    H272197   3.970   3.347   3.213 -0.1018 -1.5411  2.2788
16928TIP3   OH272198   4.353   5.280  10.828 -0.1889 -0.3175  0.0849
16928TIP3    H172199   4.276   5.253  10.777  0.6451 -1.8250 -0.4523
16928TIP3    H272200   4.410   5.323  10.764  0.8011 -2.0926 -0.3039
16929TIP3   OH272201   5.764   1.394  17.261  0.3967 -0.3276  0.2807
16929TIP3    H172202   5.843   1.437  17.229  1.5118 -1.7013  1.0611
16929TIP3    H272203   5.709   1.385  17.183  1.1827  0.2708 -0.3652
16930TIP3   OH272204   1.596   3.549  14.939 -0.2113  0.6269 -0.1680
16930TIP3    H172205   1.606   3.466  14.984  0.2556  0.6962 -0.1363
16930TIP3    H272206   1.546   3.604  15.000 -1.2278  0.1240 -0.5184
16931TIP3   OH272207   0.934   5.402   5.574 -0.0001  0.1573  0.5807
16931TIP3    H172208   0.927   5.350   5.494 -1.8326 -3.0779  2.5993
16931TIP3    H272209   0.849   5.446   5.581 -0.1436 -0.1851  1.0707
16932TIP3   OH272210   2.960   2.890   4.463  0.1089  0.7532  0.3454
16932TIP3    H172211   2.865   2.898   4.466  0.0020 -0.4726  0.9192
16932TIP3    H272212   2.976   2.806   4.419  0.8473 -0.0969  2.1167
16933TIP3   OH272213   3.924   6.321   5.200 -0.3228 -1.0297 -0.5488
16933TIP3    H172214   3.884   6.291   5.282 -0.4232  0.4587 -0.0136
16933TIP3    H272215   3.850   6.352   5.147 -0.1250 -0.7042 -0.6355
16934TIP3   OH272216   2.338   3.967   1.211 -0.5814 -0.3197  0.1965
16934TIP3    H172217   2.246   3.988   1.191 -0.1138  0.8514 -0.9252
16934TIP3    H272218   2.385   4.049   1.193  0.6523 -0.8331  0.9960
16935TIP3   OH272219   3.860   5.278  16.256 -0.5901 -0.1646  0.0564
16935TIP3    H172220   3.942   5.245  16.294  0.0510 -0.4044 -1.4478
16935TIP3    H272221   3.796   5.208  16.272 -0.3248 -0.2792  0.6358
16936TIP3   OH272222   4.765   1.183   0.425  0.0536 -0.2391 -0.9428
16936TIP3    H172223   4.713   1.135   0.489  0.4202 -1.0358 -1.2307
16936TIP3    H272224   4.817   1.244   0.477  1.2943 -1.7401 -0.3229
16937TIP3   OH272225   5.497   2.080  12.787 -0.6418  0.1715  0.2831
16937TIP3    H172226   5.481   2.009  12.850 -2.5054  0.8608  0.6535
16937TIP3    H272227   5.458   2.049  12.705  1.0916 -0.3939 -0.3834
16938TIP3   OH272228   1.608   3.608  15.706  0.0529  0.1049  0.4439
16938TIP3    H172229   1.692   3.649  15.729  0.4342 -0.6432  0.4152
16938TIP3    H272230   1.547   3.640  15.773  0.8855 -1.1003  1.8367
16939TIP3   OH272231   0.077   3.778  10.412  0.1622 -0.1868  0.6480
16939TIP3    H172232   0.006   3.802  10.353  0.5706  1.1190  0.6575
16939TIP3    H272233   0.157   3.804  10.366  0.5474 -0.1892  1.2983
16940TIP3   OH272234   0.969   2.811  11.106 -0.4875 -0.0951 -0.1174
16940TIP3    H172235   0.954   2.906  11.107 -0.1378 -0.0049 -1.4759
16940TIP3    H272236   0.912   2.777  11.175 -1.8227  0.9416 -0.6675
16941TIP3   OH272237   4.370   1.968  16.766  0.6303 -1.0561  0.4504
16941TIP3    H172238   4.422   2.048  16.767  0.1132 -0.6913 -0.3189
16941TIP3    H272239   4.280   1.998  16.783  0.4278 -1.4572  0.1282
16942TIP3   OH272240   3.035   1.667  11.599  0.2271 -0.5565 -0.0279
16942TIP3    H172241   3.001   1.615  11.526 -0.4184 -1.2635  0.7533
16942TIP3    H272242   3.113   1.710  11.564 -0.2449 -0.6394 -1.2158
16943TIP3   OH272243   5.550   5.298  12.838  0.1120 -0.1578  0.4956
16943TIP3    H172244   5.638   5.332  12.850 -0.2367  1.5631 -1.2707
16943TIP3    H272245   5.493   5.373  12.854 -0.9509 -0.9115  0.3407
16944TIP3   OH272246   0.776   5.935   6.099 -0.0639 -0.5996  0.3867
16944TIP3    H172247   0.707   6.002   6.094  0.8149  0.2131 -2.2049
16944TIP3    H272248   0.732   5.853   6.076 -0.2605 -0.1486 -0.8964
16945TIP3   OH272249   5.168   4.752   3.776  0.4258 -0.1244  0.3492
16945TIP3    H172250   5.245   4.793   3.735 -0.4042  0.4012 -0.7189
16945TIP3    H272251   5.167   4.663   3.740  1.4420 -0.6859  1.6203
16946TIP3   OH272252   5.357   6.527  12.840 -0.0024 -0.0392  0.1611
16946TIP3    H172253   5.338   6.589  12.770 -1.4494  2.3266  2.4879
16946TIP3    H272254   5.272   6.489  12.862 -0.0663  1.2370  2.3261
16947TIP3   OH272255   5.607   0.188   4.799 -0.4145 -0.2055 -0.0794
16947TIP3    H172256   5.597   0.225   4.711 -0.9889 -0.5553 -0.1624
16947TIP3    H272257   5.696   0.152   4.800 -0.1574  0.4132 -0.2819
16948TIP3   OH272258   4.519   4.270   4.999  0.8035  0.8108  0.4266
16948TIP3    H172259   4.520   4.241   4.908  0.5980 -1.4061  1.0815
16948TIP3    H272260   4.596   4.231   5.039  0.2627  0.7828  1.4867
16949TIP3   OH272261   5.609   2.514   3.209 -0.1794 -0.5580  0.0165
16949TIP3    H172262   5.684   2.514   3.269  0.3323  0.8407 -0.5804
16949TIP3    H272263   5.614   2.598   3.164 -2.2626 -0.3114  0.1263
16950TIP3   OH272264   4.834   5.880  16.723  0.1468 -0.0129 -0.3116
16950TIP3    H172265   4.814   5.974  16.725  0.1959  0.0070 -0.5861
16950TIP3    H272266   4.844   5.855  16.814 -2.2664 -0.2765 -0.0446
16951TIP3   OH272267   1.313   2.884   4.986 -0.4567  0.4495 -0.4866
16951TIP3    H172268   1.290   2.794   5.011 -0.8886  0.7102  0.0559
16951TIP3    H272269   1.232   2.934   4.997 -0.1682  0.9496 -0.5979
16952TIP3   OH272270   0.155   5.725  11.984  0.0716  0.4593  0.9596
16952TIP3    H172271   0.077   5.711  12.038  0.2966  0.9966  1.4397
16952TIP3    H272272   0.179   5.817  12.000  0.1525  0.6167 -0.0486
16953TIP3   OH272273   0.442   0.418  14.013  0.0374  0.4544  0.2773
16953TIP3    H172274   0.512   0.475  14.045 -0.2883  0.9835  0.0680
16953TIP3    H272275   0.486   0.336  13.990  0.3043  0.1074  1.9165
16954TIP3   OH272276   2.120   4.779   1.257  0.2562 -0.1080  0.2104
16954TIP3    H172277   2.057   4.850   1.250 -1.0958 -1.3067 -0.1221
16954TIP3    H272278   2.196   4.810   1.208 -0.4421  0.9550 -0.2392
16955TIP3   OH272279   2.719   3.783   5.092  0.6460 -0.8720 -0.0564
16955TIP3    H172280   2.808   3.796   5.059  1.2246 -1.2904  1.3066
16955TIP3    H272281   2.720   3.696   5.131 -0.5805 -1.1845 -0.6687
16956TIP3   OH272282   4.439   1.634   2.893  0.4854 -0.2430 -0.1884
16956TIP3    H172283   4.472   1.666   2.809 -1.9180  2.8754 -0.1369
16956TIP3    H272284   4.345   1.655   2.892  0.6801  1.9636  4.0107
16957TIP3   OH272285   3.997   4.444   5.159  0.5712 -0.3345  0.1269
16957TIP3    H172286   4.073   4.444   5.101  0.7429 -1.0892  0.3405
16957TIP3    H272287   4.017   4.378   5.226  0.4134  0.5720  1.0950
16958TIP3   OH272288   5.184   2.147  13.559  0.0022 -0.9852 -0.1309
16958TIP3    H172289   5.193   2.228  13.609  0.6054 -0.9485 -0.2960
16958TIP3    H272290   5.173   2.079  13.625  0.1844 -0.8568  0.0326
16959TIP3   OH272291   3.065   2.099  11.895 -0.0265 -0.1625 -0.3829
16959TIP3    H172292   3.156   2.125  11.906  1.2462 -4.3686  0.6548
16959TIP3    H272293   3.069   2.015  11.849 -3.1871 -1.5445  1.5645
16960TIP3   OH272294   6.182   3.052  14.381 -0.2789 -0.3027 -0.1358
16960TIP3    H172295   6.269   3.022  14.408  0.2490  1.7352  0.6023
16960TIP3    H272296   6.192   3.146  14.368 -2.3535 -0.0352 -0.1286
16961TIP3   OH272297   2.740   3.750   1.057  0.6138 -0.0945  0.0100
16961TIP3    H172298   2.777   3.829   1.018  2.8364 -0.9339  0.2530
16961TIP3    H272299   2.761   3.680   0.995  1.6985 -0.9941  1.3213
16962TIP3   OH272300   0.655   1.323   5.754  0.1903 -0.3714 -0.0089
16962TIP3    H172301   0.569   1.334   5.713  0.0590 -1.4194 -0.0291
16962TIP3    H272302   0.698   1.255   5.702  1.3614  0.7104 -0.5058
16963TIP3   OH272303   4.230   0.913  15.693  0.1480 -0.4077  0.1237
16963TIP3    H172304   4.273   0.991  15.727 -1.5209  0.8255 -0.4819
16963TIP3    H272305   4.220   0.856  15.770  2.0712 -0.3985  0.4209
16964TIP3   OH272306   5.845   2.002   2.867  0.0761  0.1958 -0.4445
16964TIP3    H172307   5.870   2.005   2.959 -0.1463  0.0501 -0.3780
16964TIP3    H272308   5.922   2.033   2.820  0.7606 -1.2738 -0.3258
16965TIP3   OH272309   4.752   2.353  13.637 -0.1561  0.4416 -0.4862
16965TIP3    H172310   4.823   2.343  13.700 -0.2658  0.1504 -0.4094
16965TIP3    H272311   4.693   2.279  13.653 -0.6503  0.8591 -0.3307
16966TIP3   OH272312   5.146   4.321   4.783  0.2867  0.0933 -0.2650
16966TIP3    H172313   5.223   4.336   4.728  0.7551  1.1757  0.6529
16966TIP3    H272314   5.120   4.231   4.763  1.4065 -0.0844 -1.0533
16967TIP3   OH272315   1.707   1.449  11.157  0.3149  0.0133 -0.7182
16967TIP3    H172316   1.798   1.476  11.142  0.7376 -0.8011  0.1951
16967TIP3    H272317   1.715   1.370  11.210 -0.9541  0.6079  0.4150
16968TIP3   OH272318   4.736   5.890  13.548 -0.3353 -0.1381  0.1136
16968TIP3    H172319   4.667   5.823  13.549 -0.5676  0.0612  2.2042
16968TIP3    H272320   4.816   5.841  13.569 -0.4017  0.1345  1.0175
16969TIP3   OH272321   0.243   1.522  11.251 -0.0181 -0.4983 -0.0991
16969TIP3    H172322   0.181   1.551  11.319 -0.5727  0.2884 -0.9238
16969TIP3    H272323   0.192   1.524  11.170  0.4135 -2.1715 -0.4483
16970TIP3   OH272324   4.488   4.139   3.394 -0.2877 -0.5677  0.4574
16970TIP3    H172325   4.402   4.099   3.378 -0.1803 -0.4148 -0.5448
16970TIP3    H272326   4.544   4.102   3.326  0.2721 -0.1334  0.6840
16971TIP3   OH272327   4.849   0.902  14.656 -0.0946  0.0900  0.2889
16971TIP3    H172328   4.836   0.839  14.726 -0.0392  0.8619  1.0124
16971TIP3    H272329   4.943   0.898  14.637 -0.0263  0.2232  0.5937
16972TIP3   OH272330   2.605   5.460   2.821  0.1672 -1.4168  0.1452
16972TIP3    H172331   2.621   5.398   2.750  0.3949 -0.8044 -0.3511
16972TIP3    H272332   2.572   5.407   2.893  0.2924 -2.0989 -0.2962
16973TIP3   OH272333   0.726   6.294  12.052 -0.0684 -0.1286  0.3001
16973TIP3    H172334   0.723   6.274  12.146 -2.5918 -1.9365 -0.0759
16973TIP3    H272335   0.793   6.235  12.017  2.2203  1.8061  1.1017
16974TIP3   OH272336   2.774   1.144  12.514 -0.3304 -0.0121 -0.1653
16974TIP3    H172337   2.858   1.104  12.493 -0.0868 -0.1658  1.0476
16974TIP3    H272338   2.772   1.148  12.610 -1.1269  1.2225 -0.2111
16975TIP3   OH272339   1.999   2.115  15.675 -0.0510 -0.1986 -0.2168
16975TIP3    H172340   2.088   2.136  15.644 -0.4393  0.7252 -0.7371
16975TIP3    H272341   1.964   2.055  15.610 -0.8703  1.7498 -1.6574
16976TIP3   OH272342   2.584   3.705  16.355  0.5197 -0.0582  0.7431
16976TIP3    H172343   2.662   3.695  16.408  0.0435  4.4693  2.7181
16976TIP3    H272344   2.610   3.763  16.284 -0.4971 -0.5261 -0.0462
16977TIP3   OH272345   4.334   3.995   5.937  0.1364  0.1280  0.0656
16977TIP3    H172346   4.416   4.039   5.916  0.1971  0.4677  0.9713
16977TIP3    H272347   4.302   4.039   6.016 -0.7115 -0.2671 -0.0378
16978TIP3   OH272348   5.763   4.558   6.224  0.3510 -0.0512 -0.3351
16978TIP3    H172349   5.776   4.653   6.229 -1.6418  0.2118  1.4740
16978TIP3    H272350   5.770   4.528   6.315  1.0777 -1.6730 -0.8914
16979TIP3   OH272351   3.772   1.052   2.580  0.0058  0.5525  0.0662
16979TIP3    H172352   3.714   0.988   2.538 -0.6300  0.1961  1.4363
16979TIP3    H272353   3.748   1.136   2.540  0.0211  0.1272 -0.8806
16980TIP3   OH272354   2.380   6.562  15.113  0.2579 -0.3444 -0.5962
16980TIP3    H172355   2.309   6.517  15.159  0.8158 -0.7646 -0.1206
16980TIP3    H272356   2.457   6.507  15.129  0.8756  0.5761 -0.3439
16981TIP3   OH272357   3.598   6.480  11.851 -0.3535  0.6621 -0.5477
16981TIP3    H172358   3.609   6.550  11.786 -0.4721  0.8778 -0.3347
16981TIP3    H272359   3.560   6.524  11.927 -2.3511  0.0039 -1.1198
16982TIP3   OH272360   1.317   6.503   0.283  0.0413  0.1833 -0.4262
16982TIP3    H172361   1.250   6.555   0.329  0.1874  0.3683 -0.4186
16982TIP3    H272362   1.396   6.556   0.291  0.8034 -1.1513  1.7310
16983TIP3   OH272363   3.799   1.928   2.917  0.0566  0.5266  0.0200
16983TIP3    H172364   3.865   1.931   2.848 -0.0654  0.7400 -0.0881
16983TIP3    H272365   3.753   1.845   2.903 -0.9949  1.2766 -1.1096
16984TIP3   OH272366   5.527   3.240  11.421 -0.3532  0.1738  0.6111
16984TIP3    H172367   5.599   3.184  11.390 -1.0229 -1.4571  1.8474
16984TIP3    H272368   5.563   3.329  11.417  0.4340 -0.1665 -2.3245
16985TIP3   OH272369   4.736   5.579   0.968 -0.7056 -0.9069  0.3649
16985TIP3    H172370   4.761   5.593   0.877 -0.7463 -0.1945  0.4583
16985TIP3    H272371   4.650   5.619   0.976  0.3754  1.4318  1.3352
16986TIP3   OH272372   6.002   2.705   1.546 -0.0706  1.2293 -0.0443
16986TIP3    H172373   6.085   2.736   1.582 -0.4529  1.4491  0.6650
16986TIP3    H272374   6.015   2.705   1.451  1.0878  0.2713  0.0903
16987TIP3   OH272375   4.589   4.477   3.925 -0.0647  0.1628 -0.3030
16987TIP3    H172376   4.606   4.506   3.835 -2.1897  1.2262 -0.4159
16987TIP3    H272377   4.497   4.453   3.926 -0.3086  0.9478  1.7797
16988TIP3   OH272378   2.670   5.613   3.407 -0.0771  0.1420  0.2324
16988TIP3    H172379   2.721   5.571   3.338  0.8591 -0.0050  0.9814
16988TIP3    H272380   2.581   5.582   3.394  0.0689  0.1673 -0.9327
16989TIP3   OH272381   5.990   5.534   2.656 -0.2832 -0.0378  0.1779
16989TIP3    H172382   5.983   5.612   2.711 -3.7421  0.5437 -0.8445
16989TIP3    H272383   6.045   5.474   2.707 -1.3511  1.3182  3.1899
16990TIP3   OH272384   5.040   3.374   2.123 -0.6799 -0.3699  0.3064
16990TIP3    H172385   5.081   3.441   2.069  1.6611 -1.6826  0.3369
16990TIP3    H272386   5.070   3.291   2.085 -3.1194 -1.4388  0.5386
16991TIP3   OH272387   4.392   5.300   4.319 -0.3617  0.6873 -0.2898
16991TIP3    H172388   4.355   5.279   4.233 -0.8983 -0.1335  0.1341
16991TIP3    H272389   4.482   5.325   4.300  0.2915 -1.8154 -0.8759
16992TIP3   OH272390   0.453   5.603  11.261  0.2847  0.0701  0.2008
16992TIP3    H172391   0.480   5.559  11.180 -0.2840 -1.0872  0.6149
16992TIP3    H272392   0.449   5.533  11.326 -1.4637  0.5767  0.6895
16993TIP3   OH272393   5.739   2.832  12.049  0.0519  0.3247 -0.2944
16993TIP3    H172394   5.690   2.786  11.981  3.1907  0.4128 -2.9262
16993TIP3    H272395   5.731   2.925  12.026 -0.8746  0.5871  1.0065
16994TIP3   OH272396   3.161   5.062  16.808 -0.4084 -0.3356 -0.3256
16994TIP3    H172397   3.156   5.113  16.888 -0.6792 -0.3078 -0.3623
16994TIP3    H272398   3.113   5.113  16.743 -0.0581 -0.2807 -0.5480
16995TIP3   OH272399   5.724   0.982  15.647 -0.5067 -0.3217  0.2653
16995TIP3    H172400   5.812   0.945  15.651 -0.0864  0.7500  1.1755
16995TIP3    H272401   5.725   1.038  15.570 -0.4867 -0.5210  0.1185
16996TIP3   OH272402   1.187   3.335  14.783 -0.5957  0.5063  0.1192
16996TIP3    H172403   1.159   3.388  14.858 -1.0819 -2.1390  1.9516
16996TIP3    H272404   1.282   3.343  14.781 -0.7425  2.8903 -0.8944
16997TIP3   OH272405   1.970   4.631  13.224  0.3601  0.1459  0.1115
16997TIP3    H172406   2.061   4.661  13.236 -0.0436  0.7254  2.0334
16997TIP3    H272407   1.926   4.706  13.185  0.3939  0.3889  0.5345
16998TIP3   OH272408   5.766   5.691   4.721 -0.2441 -0.3668  0.5172
16998TIP3    H172409   5.738   5.699   4.630 -2.3431 -0.0356  1.1477
16998TIP3    H272410   5.762   5.597   4.740  0.2156 -0.4379  0.2887
16999TIP3   OH272411   4.797   6.535  10.372  0.1616 -0.8487  0.0016
16999TIP3    H172412   4.876   6.587  10.384  0.0665 -0.8423  0.6174
16999TIP3    H272413   4.827   6.445  10.362  0.2221 -0.9066  0.6801
17000TIP3   OH272414   4.347   0.924  12.760 -0.1956 -0.3856  0.0076
17000TIP3    H172415   4.282   0.909  12.829  1.1552 -0.1919  1.3470
17000TIP3    H272416   4.338   0.848  12.703 -1.9885 -0.0888 -0.1665
17001TIP3   OH272417   6.473   4.974  13.005 -0.3734  0.1912 -0.1207
17001TIP3    H172418   6.509   4.954  12.919  1.0034 -0.0625  0.4967
17001TIP3    H272419   6.395   4.918  13.012  0.7714 -1.4932 -0.3151
17002TIP3   OH272420   2.879   3.173  13.750  0.6383 -0.8225  0.2197
17002TIP3    H172421   2.842   3.174  13.839 -0.3709  1.1381 -0.1571
17002TIP3    H272422   2.930   3.093  13.746 -0.9733 -2.0157  1.8827
17003TIP3   OH272423   3.612   2.500   1.589  0.6691 -0.2741 -0.3983
17003TIP3    H172424   3.589   2.425   1.534  0.4807 -0.6183  0.1367
17003TIP3    H272425   3.579   2.476   1.676  0.6734  0.4016 -0.2091
17004TIP3   OH272426   1.748   2.374  11.937 -0.5266 -0.4397 -0.0786
17004TIP3    H172427   1.687   2.354  11.866  0.1602 -1.6392 -0.3509
17004TIP3    H272428   1.711   2.452  11.978  0.2298  1.7273 -3.1370
17005TIP3   OH272429   3.315   6.457   2.869 -0.1285  0.2272 -0.3494
17005TIP3    H172430   3.353   6.427   2.786  0.9537 -1.1097  0.5697
17005TIP3    H272431   3.362   6.407   2.935 -1.8132  0.3628  1.0118
17006TIP3   OH272432   4.637   0.780   1.688 -0.1105 -0.6059  0.1867
17006TIP3    H172433   4.592   0.843   1.745  1.0749  0.8533 -0.3996
17006TIP3    H272434   4.569   0.752   1.626 -0.1794  2.0239 -1.0847
17007TIP3   OH272435   6.660   1.801  12.937 -0.4512 -0.2640 -0.1559
17007TIP3    H172436   6.657   1.883  12.985 -2.0808  0.4039 -1.3152
17007TIP3    H272437   6.700   1.739  12.998  2.5579  1.7392  0.1281
17008TIP3   OH272438   4.345   1.187  11.025 -0.4961  0.2093  0.0724
17008TIP3    H172439   4.422   1.147  10.985 -0.4363  1.1755 -0.7963
17008TIP3    H272440   4.319   1.257  10.965 -0.9387  1.1158  1.2840
17009TIP3   OH272441   1.696   3.586  14.491  0.1378 -0.3015  0.6032
17009TIP3    H172442   1.740   3.587  14.576  0.9270 -0.1923  0.2016
17009TIP3    H272443   1.749   3.526  14.438 -1.0961 -1.4037  0.5792
17010TIP3   OH272444   4.941   4.149  13.172  0.3165  0.1659  0.4741
17010TIP3    H172445   4.883   4.076  13.193 -0.6602  0.4540 -1.1301
17010TIP3    H272446   4.898   4.226  13.210 -1.1492  0.5953 -1.8636
17011TIP3   OH272447   5.664   6.561   0.733  0.1042  0.0070 -0.2084
17011TIP3    H172448   5.671   6.466   0.727 -1.1625 -0.1759  0.8759
17011TIP3    H272449   5.754   6.592   0.732  0.5538 -1.2511  0.0618
17012TIP3   OH272450   0.243   4.748  12.626  0.3070  0.0434  0.1361
17012TIP3    H172451   0.177   4.790  12.570 -0.7152 -1.2900  0.2837
17012TIP3    H272452   0.197   4.674  12.665  0.9907  0.9013  2.7403
17013TIP3   OH272453   2.103   5.560  17.186 -0.3606  0.4161 -0.4625
17013TIP3    H172454   2.023   5.520  17.153 -1.0144  0.7171  0.6761
17013TIP3    H272455   2.119   5.633  17.127 -1.5002  0.9456 -0.1562
17014TIP3   OH272456   3.120   4.593  12.308  0.4009  0.1251  0.2651
17014TIP3    H172457   3.139   4.687  12.304  0.2760  0.1088 -1.0523
17014TIP3    H272458   3.188   4.552  12.254 -0.3510 -0.3993 -0.3126
17015TIP3   OH272459   3.026   2.592  13.345  0.1566 -0.3353  0.1377
17015TIP3    H172460   3.010   2.507  13.385 -1.3380 -0.3271 -0.3775
17015TIP3    H272461   3.052   2.572  13.255 -1.5005 -0.2484 -0.3906
17016TIP3   OH272462   1.823   3.223   4.261  0.4797  0.3130 -0.5230
17016TIP3    H172463   1.842   3.145   4.313  0.0421 -0.0276 -0.8657
17016TIP3    H272464   1.735   3.208   4.226 -0.4470  1.8301  1.0000
17017TIP3   OH272465   1.899   5.260   5.888 -0.5064  0.0851 -0.3724
17017TIP3    H172466   1.912   5.347   5.925 -0.6897  0.4405 -1.1286
17017TIP3    H272467   1.835   5.272   5.819  0.5656 -0.3744 -1.4959
17018TIP3   OH272468   4.879   3.049  11.656 -0.6329 -0.5846  0.8479
17018TIP3    H172469   4.867   2.954  11.646 -0.2236 -0.5700  0.1721
17018TIP3    H272470   4.842   3.086  11.576  3.0014 -0.4741 -0.9826
17019TIP3   OH272471   6.544   5.147  15.863  0.2122 -0.3932  0.4061
17019TIP3    H172472   6.621   5.090  15.868 -0.0498 -0.6924  0.9817
17019TIP3    H272473   6.479   5.107  15.919 -0.7709 -0.7425 -0.9203
17020TIP3   OH272474   4.099   6.489   0.234 -0.4582 -0.2025 -0.6530
17020TIP3    H172475   4.161   6.447   0.293  1.9620  2.7496 -0.8460
17020TIP3    H272476   4.021   6.504   0.287  1.2142  1.3221  1.5388
17021TIP3   OH272477   1.610   2.250  13.718 -0.3241 -0.2502 -0.6064
17021TIP3    H172478   1.583   2.184  13.654  0.7743  1.3143 -2.8288
17021TIP3    H272479   1.685   2.211  13.763 -0.4686 -0.9957 -1.0071
17022TIP3   OH272480   0.317   5.971  16.102 -0.0804  0.0783 -0.3533
17022TIP3    H172481   0.232   6.013  16.085  0.1653  1.3280  1.3418
17022TIP3    H272482   0.333   5.986  16.195  1.6690 -0.7968 -0.4866
17023TIP3   OH272483   5.764   6.028   2.976 -0.1949  0.5866  0.1379
17023TIP3    H172484   5.809   5.991   2.900  0.4729 -0.7305  1.1430
17023TIP3    H272485   5.680   5.982   2.980  0.1903 -0.0705  0.7711
17024TIP3   OH272486   0.419   5.600   1.664 -0.9158 -0.1371  0.1997
17024TIP3    H172487   0.352   5.665   1.687  0.3185  1.9409 -1.7417
17024TIP3    H272488   0.450   5.626   1.578  2.3295 -1.0663  0.9458
17025TIP3   OH272489   3.494   6.018  13.720 -0.5616  0.3224 -0.3712
17025TIP3    H172490   3.434   5.965  13.773 -2.3852  0.2400 -2.3721
17025TIP3    H272491   3.581   5.983  13.739 -1.0747  0.5173  2.7299
17026TIP3   OH272492   0.941   4.013  12.325 -0.0906 -0.1221  0.1828
17026TIP3    H172493   0.969   3.921  12.327  0.3108 -0.0047 -0.0037
17026TIP3    H272494   0.968   4.045  12.239 -1.5243 -0.2256 -0.3282
17027TIP3   OH272495   4.119   2.077   1.081  0.1197  0.1695  0.5540
17027TIP3    H172496   4.033   2.064   1.121 -1.5637  0.0799 -2.7042
17027TIP3    H272497   4.166   1.996   1.097 -1.0647 -0.4469  0.9912
17028TIP3   OH272498   0.192   3.717  15.328  0.0427 -0.1609 -0.5894
17028TIP3    H172499   0.215   3.628  15.302  0.4241 -0.0487 -0.6469
17028TIP3    H272500   0.097   3.721  15.321  0.0035 -0.6358 -0.3586
17029TIP3   OH272501   1.222   4.264  14.837  0.0451  0.1323 -0.4224
17029TIP3    H172502   1.176   4.340  14.873  3.6528  1.9014  0.9623
17029TIP3    H272503   1.246   4.291  14.748  1.6044  0.8498  0.1783
17030TIP3   OH272504   5.431   1.327   4.516 -0.2356 -0.5482  0.6336
17030TIP3    H172505   5.469   1.337   4.429  0.6042  0.0140  1.0490
17030TIP3    H272506   5.504   1.301   4.572 -0.5732 -0.0183  1.3379
17031TIP3   OH272507   1.375   2.489  12.218 -0.0202 -0.1306 -0.4400
17031TIP3    H172508   1.393   2.560  12.156  1.0206 -0.7397 -0.8688
17031TIP3    H272509   1.405   2.410  12.173 -0.4880 -0.7508  0.3166
17032TIP3   OH272510   6.334   1.103   1.839 -0.0448 -0.3217 -0.3020
17032TIP3    H172511   6.272   1.035   1.812 -1.5278 -0.2019  2.4569
17032TIP3    H272512   6.408   1.054   1.875 -0.3236 -0.5172  0.0264
17033TIP3   OH272513   5.106   4.868  15.711 -0.1656  0.2219 -0.6917
17033TIP3    H172514   5.169   4.905  15.772 -0.6350 -1.3624  0.8366
17033TIP3    H272515   5.069   4.943  15.665  0.2461  1.4650  0.9429
17034TIP3   OH272516   6.679   1.611   4.374 -0.0754  0.2541 -0.2728
17034TIP3    H172517   6.748   1.585   4.435  1.4544  0.3762 -1.8758
17034TIP3    H272518   6.721   1.671   4.313 -1.7448  0.7430 -1.0200
17035TIP3   OH272519   2.624   6.710   2.301  0.1583  0.4513 -0.5129
17035TIP3    H172520   2.529   6.724   2.298  0.1068  0.0048 -1.1155
17035TIP3    H272521   2.651   6.750   2.383 -0.7170 -0.3591  0.1957
17036TIP3   OH272522   2.653   6.087   2.472  0.3025  0.1899  0.9072
17036TIP3    H172523   2.682   6.001   2.501  0.3404  0.1045  0.6142
17036TIP3    H272524   2.730   6.128   2.435  0.3537  0.4644  1.3023
17037TIP3   OH272525   4.000   5.907   3.222 -0.2559  0.3007  0.2072
17037TIP3    H172526   4.061   5.946   3.160  2.1423 -2.2560  0.8088
17037TIP3    H272527   3.935   5.863   3.167  0.5386 -0.0410 -0.4742
17038TIP3   OH272528   0.590   0.147  11.466  0.4432  0.0680 -0.1014
17038TIP3    H172529   0.596   0.229  11.515 -0.5998  0.1496 -0.1054
17038TIP3    H272530   0.521   0.163  11.401  1.2834 -0.2959 -1.1148
17039TIP3   OH272531   3.290   4.054   4.399  0.6845 -0.1217 -0.2807
17039TIP3    H172532   3.363   4.051   4.336 -0.6016 -2.0260 -1.8293
17039TIP3    H272533   3.328   4.023   4.481  2.0324  0.7727 -0.5343
17040TIP3   OH272534   5.897   3.727   3.850  0.0163 -0.1131  0.1229
17040TIP3    H172535   5.838   3.801   3.834 -0.0627 -0.1005  0.4633
17040TIP3    H272536   5.984   3.761   3.829 -0.0662 -0.0541 -0.1322
17041TIP3   OH272537   4.880   4.248  16.800  0.6595  0.2490  0.4472
17041TIP3    H172538   4.974   4.250  16.817  0.8765 -0.5109 -0.5560
17041TIP3    H272539   4.857   4.155  16.806 -0.0267  0.4277  0.6719
17042TIP3   OH272540   2.526   2.863  15.883  0.1812 -0.2067 -0.2786
17042TIP3    H172541   2.617   2.872  15.856 -0.0058 -1.0956 -1.2898
17042TIP3    H272542   2.484   2.815  15.811 -0.8692 -0.6577  0.6011
17043TIP3   OH272543   5.432   4.981   2.725 -0.6702 -0.0639 -0.4942
17043TIP3    H172544   5.430   4.981   2.629 -0.4294  2.1163 -0.5554
17043TIP3    H272545   5.359   5.038   2.750  0.6761  1.2957  0.5137
17044TIP3   OH272546   2.048   2.886  16.291 -0.0442 -0.2509  0.1818
17044TIP3    H172547   2.128   2.837  16.312  0.4892  0.6596  0.3497
17044TIP3    H272548   2.046   2.956  16.356  0.8551  1.7892 -1.8655
17045TIP3   OH272549   4.706   6.638   6.193  0.4039  0.5542 -0.4572
17045TIP3    H172550   4.613   6.627   6.173  0.9431 -0.4967 -2.7617
17045TIP3    H272551   4.711   6.722   6.239 -1.7787  0.1153  0.7426
17046TIP3   OH272552   4.011   4.183   6.013  0.4338 -0.1883 -0.2786
17046TIP3    H172553   3.941   4.164   5.951  0.4365 -0.1818 -0.2836
17046TIP3    H272554   4.000   4.119   6.083 -0.8036  1.0703  0.7281
17047TIP3   OH272555   1.801   1.503  12.591 -0.0371 -0.3906 -0.1965
17047TIP3    H172556   1.860   1.427  12.595  0.6907  0.1720 -0.0443
17047TIP3    H272557   1.789   1.528  12.682 -1.2595 -1.0501 -0.1573
17048TIP3   OH272558   3.731   3.480   0.276  0.5122  0.0732 -0.1770
17048TIP3    H172559   3.636   3.491   0.288  0.6769  1.5961 -0.0785
17048TIP3    H272560   3.745   3.386   0.282 -1.1578 -0.2964 -1.3200
17049TIP3   OH272561   6.498   2.677  11.352  0.3667 -0.0689 -0.1081
17049TIP3    H172562   6.438   2.735  11.399  0.4470  0.7985 -1.0403
17049TIP3    H272563   6.560   2.647  11.419 -0.0851  0.3832  0.5249
17050TIP3   OH272564   0.543   2.120   5.514  0.4048 -0.4228  0.0637
17050TIP3    H172565   0.617   2.089   5.461  0.4236  0.4943 -0.4682
17050TIP3    H272566   0.565   2.211   5.534 -0.8578  0.0536 -0.6096
17051TIP3   OH272567   3.782   4.499  10.434 -0.1474 -0.0541 -0.1584
17051TIP3    H172568   3.850   4.435  10.455  0.0882  1.0298  2.9292
17051TIP3    H272569   3.700   4.452  10.449 -0.0618 -0.6173 -1.3694
17052TIP3   OH272570   3.103   4.320  13.953  0.0759 -0.2640  0.2488
17052TIP3    H172571   3.130   4.249  13.894  1.1412  0.4981 -0.1950
17052TIP3    H272572   3.119   4.400  13.904  1.7384  0.4367  1.8334
17053TIP3   OH272573   1.733   0.295  15.742  0.1924 -0.3751 -0.0494
17053TIP3    H172574   1.659   0.343  15.780  0.7305 -0.5239  1.2274
17053TIP3    H272575   1.801   0.362  15.730 -0.8273  0.2353 -3.3095
17054TIP3   OH272576   6.167   4.418  13.685  0.4037 -0.5494 -0.5030
17054TIP3    H172577   6.106   4.485  13.652 -0.9897 -0.8205  1.3625
17054TIP3    H272578   6.246   4.467  13.706 -1.0052  0.8841  2.0151
17055TIP3   OH272579   0.189   1.458   1.334 -0.2911  0.3074 -0.1741
17055TIP3    H172580   0.108   1.411   1.353 -0.3389  1.1934  2.2892
17055TIP3    H272581   0.247   1.392   1.296 -2.0485 -0.4006 -1.7626
17056TIP3   OH272582   6.504   1.614   1.451  0.8575  0.2309 -0.1485
17056TIP3    H172583   6.519   1.615   1.356  1.3066 -2.7840 -0.1911
17056TIP3    H272584   6.411   1.596   1.460  0.8112  0.5428  0.0017
17057TIP3   OH272585   3.208   0.546  14.654  0.6146 -0.2178 -0.2404
17057TIP3    H172586   3.303   0.556  14.642  0.3186  0.6432 -2.3554
17057TIP3    H272587   3.182   0.485  14.586 -0.2684 -1.0323  0.8076
17058TIP3   OH272588   2.505   5.064   5.565 -0.1565  0.1328 -0.1464
17058TIP3    H172589   2.488   5.002   5.494 -0.5348 -1.4618  1.2948
17058TIP3    H272590   2.590   5.038   5.600  0.0529  0.9453 -0.0196
17059TIP3   OH272591   4.516   4.073  17.158  0.8109  0.0447  0.1068
17059TIP3    H172592   4.611   4.077  17.166  1.0590  4.4509 -2.0766
17059TIP3    H272593   4.501   4.034  17.072  0.7276  0.7350 -0.1934
17060TIP3   OH272594   1.727   5.408  13.481  1.2668  0.2498 -0.4529
17060TIP3    H172595   1.732   5.442  13.570  0.4446  0.8999 -0.6468
17060TIP3    H272596   1.733   5.313  13.492 -1.9166  0.0490  0.6221
17061TIP3   OH272597   6.620   2.764   0.882  0.4925 -0.4263 -0.5908
17061TIP3    H172598   6.662   2.681   0.863  2.2671  0.0997  0.7449
17061TIP3    H272599   6.670   2.828   0.832  1.1903  0.1811  0.8174
17062TIP3   OH272600   4.087   2.766   0.618  0.1309  0.0386 -0.1963
17062TIP3    H172601   4.036   2.695   0.578  0.0044  0.8765 -1.5797
17062TIP3    H272602   4.139   2.802   0.547  0.7323  0.8776  0.6399
17063TIP3   OH272603   6.732   6.601   4.230 -0.3828  0.4445 -0.6754
17063TIP3    H172604   6.640   6.593   4.205  0.4942 -1.9168 -3.7046
17063TIP3    H272605   6.736   6.683   4.280 -4.0388  0.7653 -0.6367
17064TIP3   OH272606   0.035   5.219   2.261 -0.2786  0.0180  0.0958
17064TIP3    H172607  -0.042   5.182   2.306 -0.4318  0.1377 -0.0670
17064TIP3    H272608   0.106   5.160   2.284  0.1682  1.3185  2.4129
17065TIP3   OH272609   1.588   5.858   1.348  0.2103  0.3211  0.3003
17065TIP3    H172610   1.560   5.905   1.427  0.1337 -0.3782  0.6971
17065TIP3    H272611   1.660   5.911   1.314 -1.0784  1.7377 -0.3203
17066TIP3   OH272612   2.936   2.812  11.233 -0.0348 -0.3313  0.1191
17066TIP3    H172613   2.959   2.811  11.326 -0.5428 -3.3563  0.3066
17066TIP3    H272614   3.019   2.830  11.189  0.5898 -0.6792  1.1071
17067TIP3   OH272615   1.808   1.772  11.251  0.2491  0.2906 -0.2964
17067TIP3    H172616   1.863   1.698  11.279 -0.6132  0.2694  1.5003
17067TIP3    H272617   1.774   1.745  11.166  0.2345 -1.2525  0.1584
17068TIP3   OH272618   4.992   5.952   4.446 -0.0644 -0.5575  0.3905
17068TIP3    H172619   4.923   6.008   4.481 -0.3220 -1.2753  1.0744
17068TIP3    H272620   4.996   5.878   4.508 -0.1825 -1.6097 -0.8236
17069TIP3   OH272621   1.182   5.138  16.531 -0.4745 -0.1879 -0.1878
17069TIP3    H172622   1.229   5.156  16.450  1.0213 -0.5119  0.5824
17069TIP3    H272623   1.226   5.061  16.568 -0.0081  0.9494  1.7609
17070TIP3   OH272624   4.375   5.678  10.623 -0.0269 -0.1809  0.0026
17070TIP3    H172625   4.310   5.635  10.678 -1.4518  2.5661  0.6459
17070TIP3    H272626   4.337   5.675  10.535 -1.0721  1.2857  0.3525
17071TIP3   OH272627   1.436   0.008   6.172  0.1096  0.1610  0.1666
17071TIP3    H172628   1.473  -0.042   6.246  0.6258  1.0908  0.5617
17071TIP3    H272629   1.343   0.014   6.192  0.2893  0.6545  0.9095
17072TIP3   OH272630   0.253   2.575   4.762  0.1505  0.0155 -0.5974
17072TIP3    H172631   0.182   2.549   4.821  0.5415 -0.8143 -0.4914
17072TIP3    H272632   0.331   2.577   4.817  0.5939 -1.1751 -1.1517
17073TIP3   OH272633   4.235   3.163  13.775  0.1923  0.4026  0.1376
17073TIP3    H172634   4.156   3.113  13.795 -0.1920  0.7108 -0.5711
17073TIP3    H272635   4.306   3.099  13.778 -0.0477  0.1738  1.0322
17074TIP3   OH272636   4.547   2.366  11.746 -0.2151  0.3513 -0.0376
17074TIP3    H172637   4.455   2.387  11.730 -0.8330 -3.1340 -2.1179
17074TIP3    H272638   4.545   2.299  11.815  0.7644  0.3664  0.0247
17075TIP3   OH272639   4.963   3.217   0.166  0.7501 -0.0657  1.0475
17075TIP3    H172640   4.997   3.300   0.199  0.3533  1.0417 -1.1885
17075TIP3    H272641   5.002   3.207   0.079 -1.4998 -0.7306  0.0402
17076TIP3   OH272642   0.334   3.419   1.639  0.0377  0.1042 -0.4600
17076TIP3    H172643   0.409   3.364   1.660  1.7840  2.0209 -1.2940
17076TIP3    H272644   0.356   3.505   1.675 -1.6148  0.8131 -1.0270
17077TIP3   OH272645   2.137   3.788  14.905  0.2576 -0.1631  0.0388
17077TIP3    H172646   2.211   3.744  14.948  1.8242 -0.1853 -2.4772
17077TIP3    H272647   2.061   3.734  14.926  1.0419 -0.5904  2.0488
17078TIP3   OH272648   1.333   5.535  11.638  0.2739  0.8753  0.0084
17078TIP3    H172649   1.298   5.609  11.589  2.4598  2.5489  0.7982
17078TIP3    H272650   1.277   5.529  11.716  1.0307  2.8270  0.7542
17079TIP3   OH272651   4.787   0.335   2.789 -0.1613  0.3169  0.1837
17079TIP3    H172652   4.763   0.277   2.717 -2.4321  1.3809 -0.0260
17079TIP3    H272653   4.882   0.344   2.783  0.1392 -2.4275 -0.4457
17080TIP3   OH272654   5.429   6.662  14.400  0.4923 -0.1472 -0.2618
17080TIP3    H172655   5.343   6.690  14.432  0.2070 -0.0053 -1.1144
17080TIP3    H272656   5.473   6.743  14.375  0.9770 -0.1995  0.3857
17081TIP3   OH272657   2.590   0.522  13.530  0.6576 -0.8736 -0.1749
17081TIP3    H172658   2.628   0.494  13.613  1.7927 -1.2150 -0.7902
17081TIP3    H272659   2.665   0.534  13.472 -0.0242  0.4647 -0.8332
17082TIP3   OH272660   5.878   5.504   4.156 -0.5174 -0.3812  0.0809
17082TIP3    H172661   5.922   5.419   4.155 -1.4439 -0.9018 -1.9803
17082TIP3    H272662   5.839   5.511   4.069 -2.0688  1.3258  0.8696
17083TIP3   OH272663   4.933   5.525   6.648 -0.5483  0.6386 -0.3476
17083TIP3    H172664   4.849   5.492   6.681 -0.4801  1.6211  0.9088
17083TIP3    H272665   4.996   5.457   6.672 -0.7920  0.4892 -0.1179
17084TIP3   OH272666   1.667   3.892   0.292 -0.1267  0.1433  0.0084
17084TIP3    H172667   1.725   3.834   0.243  2.3694 -1.1728  4.0703
17084TIP3    H272668   1.579   3.871   0.260  1.0185 -3.0330 -1.4410
17085TIP3   OH272669   1.009   3.874  13.578  0.0785 -0.3707 -0.1541
17085TIP3    H172670   1.015   3.879  13.673  1.0896  0.7244 -0.2501
17085TIP3    H272671   1.079   3.932  13.547  0.3603 -1.4095 -1.5587
17086TIP3   OH272672   0.344   5.842   5.687  0.1363  0.0092 -0.0452
17086TIP3    H172673   0.380   5.775   5.746 -1.1375 -0.8135 -0.1797
17086TIP3    H272674   0.399   5.919   5.704 -0.1928 -0.1752  2.2687
17087TIP3   OH272675   3.366   5.432  12.375 -0.0818  0.1738  0.2712
17087TIP3    H172676   3.311   5.355  12.377  0.5303 -0.3327 -1.0504
17087TIP3    H272677   3.453   5.400  12.397  0.5865  0.0425 -2.2225
17088TIP3   OH272678   6.731   2.034  11.819 -0.0816  0.6771 -0.0276
17088TIP3    H172679   6.823   2.009  11.831  0.0902  0.4795 -1.5629
17088TIP3    H272680   6.695   2.037  11.908  0.4318 -2.9439  0.4420
17089TIP3   OH272681   2.323   1.661   6.627  0.3949  0.2528 -0.2674
17089TIP3    H172682   2.313   1.590   6.563 -0.2035 -0.4478  0.5676
17089TIP3    H272683   2.411   1.694   6.613  0.9424 -1.1213 -0.2346
17090TIP3   OH272684   1.666   4.439   4.601 -0.2127  0.1291  0.5591
17090TIP3    H172685   1.592   4.495   4.625 -0.5540 -0.7073  1.5562
17090TIP3    H272686   1.668   4.441   4.505 -0.4840  1.4785  0.5619
17091TIP3   OH272687   2.788   1.986  15.791  0.0133 -0.3041 -0.4618
17091TIP3    H172688   2.765   1.985  15.884 -1.5100  0.7343 -0.7792
17091TIP3    H272689   2.841   1.908  15.779  1.2155  0.1346  1.4979
17092TIP3   OH272690   6.281   2.153   5.777  0.2019 -0.9028 -0.5570
17092TIP3    H172691   6.210   2.215   5.757  2.0250  1.2012 -0.8664
17092TIP3    H272692   6.310   2.177   5.865  2.9393  0.8686 -1.8095
17093TIP3   OH272693   6.488   2.034   4.406  0.4961 -0.8812  0.0161
17093TIP3    H172694   6.583   2.020   4.414  0.6413 -0.5886 -1.0858
17093TIP3    H272695   6.450   1.950   4.430  1.0566 -1.1512 -0.0158
17094TIP3   OH272696   2.555   2.341   1.619 -0.5430 -0.2019  0.0147
17094TIP3    H172697   2.489   2.388   1.568 -0.6272  1.3964  1.5241
17094TIP3    H272698   2.615   2.409   1.650  1.9493 -1.5882 -1.3854
17095TIP3   OH272699   6.696   3.494  16.709  0.0128 -0.0780  0.1478
17095TIP3    H172700   6.678   3.553  16.782 -0.9144 -1.5868  1.2036
17095TIP3    H272701   6.633   3.518  16.642  1.4891  1.9492 -0.5830
17096TIP3   OH272702   3.196   4.812   5.584  0.2471  0.4333 -0.1927
17096TIP3    H172703   3.138   4.744   5.618  0.4707  0.1002 -0.4677
17096TIP3    H272704   3.266   4.764   5.541  0.7961  0.8281  0.2407
17097TIP3   OH272705   1.564   2.521   6.887  0.7442  0.3882  0.1710
17097TIP3    H172706   1.641   2.574   6.910  2.0456 -1.2516 -0.2936
17097TIP3    H272707   1.593   2.466   6.815 -1.0024  0.0005 -0.2714
17098TIP3   OH272708   4.173   3.147  11.945 -0.4661 -0.0913  0.3862
17098TIP3    H172709   4.252   3.144  11.892 -2.8242  0.3790 -3.6183
17098TIP3    H272710   4.190   3.213  12.012  2.8049 -0.7766  0.3536
17099TIP3   OH272711   2.837   2.641   0.025 -0.2801 -0.2127 -0.3559
17099TIP3    H172712   2.836   2.546   0.012 -0.0110 -0.1076 -1.2329
17099TIP3    H272713   2.772   2.656   0.093 -0.6890 -0.9829 -0.5550
17100TIP3   OH272714   5.203   5.633  15.488  0.0327  0.8491 -0.0527
17100TIP3    H172715   5.139   5.677  15.433  0.2123  0.7632 -0.3332
17100TIP3    H272716   5.208   5.688  15.567 -3.3404 -1.2217  1.8194
17101TIP3   OH272717   0.977   3.501  17.242  0.5964 -0.2069 -0.0859
17101TIP3    H172718   0.983   3.410  17.271  1.1559 -0.0491  0.3148
17101TIP3    H272719   1.067   3.533  17.245  0.4207  0.3270 -0.3346
17102TIP3   OH272720   6.343   3.601  10.665 -0.3384  0.3506 -0.1117
17102TIP3    H172721   6.269   3.624  10.721 -0.8127 -0.7472 -0.2644
17102TIP3    H272722   6.411   3.572  10.726  0.4101  2.4117  0.1125
17103TIP3   OH272723   3.206   0.729   6.479 -0.0527 -0.0784 -0.2082
17103TIP3    H172724   3.265   0.775   6.419 -0.6300  0.6326 -0.2452
17103TIP3    H272725   3.135   0.698   6.423  0.5788 -1.4814 -0.2666
17104TIP3   OH272726   0.163   6.428   0.554  0.3299  0.1369 -0.8532
17104TIP3    H172727   0.191   6.518   0.571 -1.0363  0.8574 -2.2133
17104TIP3    H272728   0.069   6.434   0.539  0.3218 -1.4281 -1.6014
17105TIP3   OH272729   5.307   0.180  15.436 -0.1563 -0.5311  0.2747
17105TIP3    H172730   5.312   0.100  15.489 -1.0998 -1.1257 -0.5001
17105TIP3    H272731   5.295   0.250  15.500  2.0792 -0.7954  1.0715
17106TIP3   OH272732   4.992   4.173   4.091 -0.0626 -0.1708  0.0016
17106TIP3    H172733   4.929   4.234   4.052 -1.1636 -2.1736 -1.5437
17106TIP3    H272734   4.941   4.126   4.156 -0.1233 -1.5541 -1.0062
17107TIP3   OH272735   3.606   3.580   4.588 -0.0145  0.0827 -0.1286
17107TIP3    H172736   3.543   3.553   4.654  0.2070  2.8222  1.3031
17107TIP3    H272737   3.691   3.554   4.624 -0.0661 -0.9835 -0.7198
17108TIP3   OH272738   6.715   2.946  11.786  0.4743 -0.2119  0.3997
17108TIP3    H172739   6.718   2.972  11.694 -3.3460  1.9580  0.6786
17108TIP3    H272740   6.702   2.851  11.785 -1.1988 -0.0110 -1.4081
17109TIP3   OH272741   3.232   4.223   1.104 -0.3460 -0.4802  0.2619
17109TIP3    H172742   3.217   4.213   1.010  1.8177 -0.8992 -0.0951
17109TIP3    H272743   3.197   4.310   1.125  1.9715  1.0808 -1.6764
17110TIP3   OH272744   1.625   1.345  16.616  0.2150  0.1970  0.3305
17110TIP3    H172745   1.585   1.272  16.569  1.6051 -0.3567 -0.0609
17110TIP3    H272746   1.552   1.401  16.641 -0.5738  1.4430 -3.9418
17111TIP3   OH272747   5.194   5.718   4.146  0.2681 -0.1777 -0.4869
17111TIP3    H172748   5.174   5.714   4.240  1.2930  0.9227 -0.1956
17111TIP3    H272749   5.283   5.753   4.143 -0.3012  1.2404 -1.9129
17112TIP3   OH272750   3.055   1.344   1.756 -0.2875  0.3042  0.0601
17112TIP3    H172751   3.082   1.359   1.846  2.3962  2.6863 -0.9613
17112TIP3    H272752   2.970   1.387   1.749  0.3861  1.9163  1.0427
17113TIP3   OH272753   1.829   6.419   3.514  0.3680  0.7411 -0.1355
17113TIP3    H172754   1.897   6.357   3.539  0.4946  0.8545 -0.1936
17113TIP3    H272755   1.747   6.369   3.520  0.5561  0.2991 -1.0847
17114TIP3   OH272756   5.131   3.135   4.664  0.0318 -0.2097  0.5794
17114TIP3    H172757   5.063   3.196   4.637  2.5959  1.3933 -3.0998
17114TIP3    H272758   5.130   3.138   4.759 -2.1240  3.1013  0.6043
17115TIP3   OH272759   3.028   5.614  16.181 -0.2328  0.0641 -0.0267
17115TIP3    H172760   3.058   5.582  16.266 -1.4077 -0.3763  0.2405
17115TIP3    H272761   2.941   5.576  16.170 -1.8110  3.2044  0.3513
17116TIP3   OH272762   0.410   0.180   4.566 -0.2817 -0.0481  0.0813
17116TIP3    H172763   0.479   0.214   4.508  0.5156 -1.8394 -0.0874
17116TIP3    H272764   0.339   0.155   4.506 -0.0568 -0.5100 -0.0005
17117TIP3   OH272765   2.238   3.264   4.455  0.3561  0.2590 -0.0479
17117TIP3    H172766   2.188   3.196   4.501 -1.0574  0.2794 -1.5106
17117TIP3    H272767   2.225   3.343   4.507  0.3397 -0.1166  0.5359
17118TIP3   OH272768   3.271   3.123  11.161  0.1819 -0.0041 -0.4686
17118TIP3    H172769   3.292   3.190  11.096  1.1529 -0.4510 -0.6244
17118TIP3    H272770   3.302   3.041  11.122 -0.9120 -0.5478 -0.2436
17119TIP3   OH272771   3.002   4.368  14.206  0.0900 -0.3052 -0.0524
17119TIP3    H172772   3.032   4.334  14.122  1.5514  0.7619 -0.0125
17119TIP3    H272773   2.989   4.290  14.260 -1.1852 -1.0264 -1.3222
17120TIP3   OH272774   2.181   2.422   3.665  0.0292 -0.0022 -0.0817
17120TIP3    H172775   2.212   2.348   3.718 -0.8833  0.5822  1.3257
17120TIP3    H272776   2.214   2.500   3.709  0.1856  0.4727 -1.0124
17121TIP3   OH272777   3.638   0.979  13.948 -0.1631  0.1741  0.2179
17121TIP3    H172778   3.721   1.022  13.926 -0.2349  0.1622 -0.0832
17121TIP3    H272779   3.627   0.994  14.042  0.8767 -1.0299  0.5531
17122TIP3   OH272780   3.084   4.313   0.851  0.5097  0.0427  0.1741
17122TIP3    H172781   3.009   4.373   0.851  0.1915 -0.3396 -0.7541
17122TIP3    H272782   3.160   4.371   0.853  0.1991  0.4519  0.4591
17123TIP3   OH272783   5.210   1.218  11.617  0.2427 -0.3803 -0.5238
17123TIP3    H172784   5.297   1.237  11.651 -0.6747  1.4793  0.9943
17123TIP3    H272785   5.218   1.230  11.523  1.3574  1.1140 -0.2863
17124TIP3   OH272786   4.076   4.149  13.074  1.3266 -0.1043 -0.1007
17124TIP3    H172787   4.145   4.097  13.116  0.9758 -1.9097 -1.5995
17124TIP3    H272788   4.102   4.153  12.982  0.3677  0.7899 -0.3497
17125TIP3   OH272789   0.889   1.339   1.627 -0.5186  0.3077  0.4219
17125TIP3    H172790   0.862   1.342   1.536  1.6118  0.2006 -0.2674
17125TIP3    H272791   0.970   1.391   1.630  1.0428 -2.0176  1.6313
17126TIP3   OH272792   0.701   6.222  12.327 -0.3659 -0.2795 -0.0416
17126TIP3    H172793   0.643   6.231  12.402 -0.0025  3.3949 -0.0421
17126TIP3    H272794   0.787   6.244  12.360 -0.1769  1.2685 -1.4550
17127TIP3   OH272795   1.681   3.288  12.838 -0.0394 -0.2112  0.4240
17127TIP3    H172796   1.628   3.364  12.861 -2.7572 -2.0809  0.9108
17127TIP3    H272797   1.685   3.290  12.742 -0.5780  0.2458  0.4071
17128TIP3   OH272798   0.158   2.008  12.633  0.6646  0.2912  0.6861
17128TIP3    H172799   0.104   2.056  12.696  0.0724  0.1001  0.3325
17128TIP3    H272800   0.100   1.940  12.600  1.6870 -1.1169  1.6757
17129TIP3   OH272801   3.881   1.467  12.029  0.7811  0.7825  0.0406
17129TIP3    H172802   3.937   1.417  11.970  0.8681  2.1243 -1.0812
17129TIP3    H272803   3.794   1.430  12.017  1.0561  0.0579  0.2195
17130TIP3   OH272804   6.054   1.970  15.147  0.3825  0.4772  0.0704
17130TIP3    H172805   5.963   1.969  15.115  0.6065 -0.3772 -0.6159
17130TIP3    H272806   6.101   2.025  15.084  0.6105 -0.2867 -0.4412
17131TIP3   OH272807   5.330   3.243   4.208 -0.0948  0.2113 -0.0505
17131TIP3    H172808   5.325   3.148   4.206  2.2436  0.0027  0.6232
17131TIP3    H272809   5.335   3.269   4.116 -0.9002 -0.2857 -0.2415
17132TIP3   OH272810   1.955   4.143   1.369  0.0636  0.0227 -0.7230
17132TIP3    H172811   1.945   4.071   1.432 -0.8888 -0.5492 -1.5010
17132TIP3    H272812   2.002   4.211   1.417  1.9454 -1.5051 -0.2665
17133TIP3   OH272813   1.918   0.919   1.046  0.7934  0.1575 -0.5072
17133TIP3    H172814   1.844   0.879   1.091  2.2127 -0.7613  1.1633
17133TIP3    H272815   1.883   0.950   0.963 -1.2510 -1.0172 -0.1338
17134TIP3   OH272816   6.734   0.032   1.780  0.4104 -0.1970 -0.3448
17134TIP3    H172817   6.739   0.046   1.685  0.7488 -2.0429 -0.6401
17134TIP3    H272818   6.670  -0.038   1.790  2.3705 -1.9607  0.5471
17135TIP3   OH272819   1.215   3.265   1.596  0.0481  0.0841 -0.1637
17135TIP3    H172820   1.165   3.339   1.630 -0.6859 -0.6823  0.4574
17135TIP3    H272821   1.153   3.192   1.592  0.5285 -0.2970 -1.6042
17136TIP3   OH272822   0.395   1.980   5.290  0.4171 -0.4883  0.0242
17136TIP3    H172823   0.450   1.996   5.366  0.7463 -0.1103 -0.2868
17136TIP3    H272824   0.378   1.886   5.291 -1.1961 -0.2320  1.6556
17137TIP3   OH272825   6.748   0.023   2.193 -0.3867  0.2168 -0.1265
17137TIP3    H172826   6.760  -0.042   2.124  0.1806  1.6653 -1.4580
17137TIP3    H272827   6.719  -0.027   2.269  1.1133 -1.7153 -0.7605
17138TIP3   OH272828   3.430   3.154   0.991  0.6850  0.2276 -0.2951
17138TIP3    H172829   3.446   3.083   1.053 -0.0715  0.4131  0.1233
17138TIP3    H272830   3.514   3.201   0.986  0.8413  0.0242  0.3469
17139TIP3   OH272831   6.295   4.101  13.482  0.2015 -0.5417 -0.0137
17139TIP3    H172832   6.242   4.172  13.446 -1.2814 -1.2850  0.5757
17139TIP3    H272833   6.354   4.077  13.411 -0.2138  0.3725 -0.6930
17140TIP3   OH272834   4.515   6.229  14.402 -0.0877 -0.1563  0.0515
17140TIP3    H172835   4.581   6.281  14.447 -0.0676 -1.7007  1.8934
17140TIP3    H272836   4.441   6.290  14.390  1.6569  1.7000 -2.3506
17141TIP3   OH272837   5.288   5.981   3.154 -0.3872 -0.4575  0.4043
17141TIP3    H172838   5.226   6.043   3.192  0.0790  0.7323 -0.7018
17141TIP3    H272839   5.262   5.896   3.190 -0.4302  0.4757  2.7466
17142TIP3   OH272840   5.163   5.640   0.695 -0.2156 -0.1164 -0.1945
17142TIP3    H172841   5.159   5.666   0.787 -1.3988  0.2896 -0.3379
17142TIP3    H272842   5.251   5.606   0.683  0.7465  1.9359  0.5354
17143TIP3   OH272843   0.934   0.476  15.251 -0.4713 -0.2013 -0.2725
17143TIP3    H172844   0.931   0.425  15.171  1.0783  0.5206 -0.8324
17143TIP3    H272845   0.878   0.552  15.234  0.8599  0.6058 -1.1851
17144TIP3   OH272846   3.271   5.714   3.780  0.8208  0.0273 -0.3392
17144TIP3    H172847   3.259   5.732   3.873  1.6288  2.1812 -0.5883
17144TIP3    H272848   3.203   5.650   3.758 -0.6016  0.8959  1.3262
17145TIP3   OH272849   6.526   0.405   0.806  0.5435  0.4854  0.1732
17145TIP3    H172850   6.484   0.331   0.849  3.4856 -2.5482 -1.6739
17145TIP3    H272851   6.604   0.422   0.859  0.3384  1.7542  0.1008
17146TIP3   OH272852   3.659   5.588   2.265 -0.0106 -0.5365  0.0070
17146TIP3    H172853   3.707   5.620   2.342  0.7303 -1.8535  0.1309
17146TIP3    H272854   3.705   5.508   2.240 -1.3163 -1.0896 -0.7418
17147TIP3   OH272855   3.736   4.126  13.134  0.1604 -0.0378 -0.1359
17147TIP3    H172856   3.812   4.183  13.121  1.1098 -0.4541  2.8543
17147TIP3    H272857   3.768   4.058  13.193 -2.7527  0.2416  1.9359
17148TIP3   OH272858   5.723   1.693   4.421 -0.3088  0.0745  0.5029
17148TIP3    H172859   5.792   1.629   4.402  1.1819  1.6725  0.2439
17148TIP3    H272860   5.641   1.646   4.405  0.7396 -1.4292 -0.7673
17149TIP3   OH272861   1.477   2.311   6.047 -0.1755  0.2384 -0.2958
17149TIP3    H172862   1.394   2.318   6.000 -0.9912  0.2781  1.0812
17149TIP3    H272863   1.514   2.227   6.019 -1.0334 -0.1138 -0.4094
17150TIP3   OH272864   3.432   2.230  15.370  0.6639  0.0244 -0.7768
17150TIP3    H172865   3.337   2.239  15.368  0.4713 -1.6725 -0.7858
17150TIP3    H272866   3.451   2.195  15.457  1.1045 -1.1184 -1.3102
17151TIP3   OH272867   2.171   4.994   2.180 -0.1402  0.0048  0.2752
17151TIP3    H172868   2.220   5.016   2.101 -1.5998  0.4282 -0.5442
17151TIP3    H272869   2.202   5.057   2.245 -0.4682  1.0833 -0.5779
17152TIP3   OH272870   2.050   3.079  14.945  0.1750  0.6752  0.0366
17152TIP3    H172871   2.003   3.118  15.019 -0.8029 -0.9011  0.2923
17152TIP3    H272872   2.110   3.017  14.984 -1.8850 -1.8180 -0.4653
17153TIP3   OH272873   1.177   1.786   5.605 -0.3251 -0.0648  0.5278
17153TIP3    H172874   1.151   1.754   5.519 -1.2367 -0.2849  0.8738
17153TIP3    H272875   1.246   1.850   5.587  0.2987 -0.9483 -0.2827
17154TIP3   OH272876   5.074   2.363   0.944 -0.4721  0.0938  0.6243
17154TIP3    H172877   5.041   2.430   0.884 -1.1138 -1.6552 -1.0896
17154TIP3    H272878   5.125   2.303   0.888 -1.0254 -1.5721  1.8181
17155TIP3   OH272879   5.847   2.345  14.226 -0.2253 -0.1016  0.8075
17155TIP3    H172880   5.940   2.333  14.244 -0.2488 -1.2462  0.2581
17155TIP3    H272881   5.835   2.314  14.136 -1.7790 -3.9580  2.1031
17156TIP3   OH272882   1.015   3.448   3.375  0.0974 -0.2586 -0.1594
17156TIP3    H172883   1.016   3.466   3.281 -1.6029 -2.2769 -0.6367
17156TIP3    H272884   0.964   3.367   3.384 -1.1529  0.7082  2.6395
17157TIP3   OH272885   6.480   5.425   5.739  0.0007  0.0772  0.4914
17157TIP3    H172886   6.496   5.519   5.753  2.8557 -0.5159  1.9717
17157TIP3    H272887   6.468   5.417   5.644 -2.4151  2.1132  0.5044
17158TIP3   OH272888   3.608   1.284  15.671 -0.2881 -0.0704 -0.6309
17158TIP3    H172889   3.513   1.288  15.662 -0.3499 -0.3249 -0.0833
17158TIP3    H272890   3.641   1.303  15.582 -0.8875 -3.0106 -1.5827
17159TIP3   OH272891   3.003   4.542   5.071  0.2413  0.1282 -0.3539
17159TIP3    H172892   3.077   4.543   5.011 -1.3809 -0.4242 -2.4821
17159TIP3    H272893   2.943   4.477   5.034 -1.8213  1.3858  0.6178
17160TIP3   OH272894   2.293   2.641   6.232 -0.5833  0.0770 -0.8308
17160TIP3    H172895   2.348   2.716   6.209 -0.2602  1.0719  2.6247
17160TIP3    H272896   2.217   2.679   6.276 -0.2091 -1.5847  1.3883
17161TIP3   OH272897   2.962   4.819  11.858 -0.2237 -0.1681  0.2678
17161TIP3    H172898   2.968   4.889  11.923  0.8487  2.1402 -2.1504
17161TIP3    H272899   3.045   4.772  11.867 -0.3399 -0.2552  0.9517
17162TIP3   OH272900   6.469   1.200   2.667  0.0762  0.0648  0.0228
17162TIP3    H172901   6.531   1.264   2.701 -0.6021  0.8137 -0.1240
17162TIP3    H272902   6.383   1.239   2.682 -0.3416 -0.7238 -0.2494
17163TIP3   OH272903   5.236   1.185   2.962 -0.2830  0.3621 -0.0385
17163TIP3    H172904   5.176   1.250   2.926  0.7171  1.2479 -0.1566
17163TIP3    H272905   5.268   1.137   2.885 -0.3974  0.2832 -0.0365
17164TIP3   OH272906   4.528   3.071   5.442  0.1224 -0.5227 -0.1717
17164TIP3    H172907   4.500   3.156   5.406  1.0278  0.8411  2.0888
17164TIP3    H272908   4.576   3.029   5.371  1.4141  1.7891 -0.7804
17165TIP3   OH272909   3.546   0.144   1.618  0.1715  0.2412 -0.2470
17165TIP3    H172910   3.572   0.072   1.560 -2.3576  0.5175 -1.9136
17165TIP3    H272911   3.586   0.124   1.702  1.6747 -1.7084 -1.3592
17166TIP3   OH272912   0.944   4.463   3.405 -0.4296  0.5538 -0.2973
17166TIP3    H172913   0.978   4.489   3.491  0.8810 -1.4493 -0.1470
17166TIP3    H272914   0.944   4.368   3.406 -0.4552  0.4636 -2.4863
17167TIP3   OH272915   5.609   0.650   5.861 -0.6427  0.5743 -0.1995
17167TIP3    H172916   5.579   0.737   5.835 -2.3461 -0.4356 -1.8636
17167TIP3    H272917   5.533   0.612   5.906  0.1070 -0.0431  0.5724
17168TIP3   OH272918   3.397   5.715   1.983 -0.2776  0.5113 -0.4592
17168TIP3    H172919   3.335   5.674   1.923 -1.6518  0.1290  1.1369
17168TIP3    H272920   3.362   5.696   2.070  1.9673  0.4966  0.5194
17169TIP3   OH272921   1.737   2.932   5.669 -0.1021  0.2350  0.4146
17169TIP3    H172922   1.793   2.854   5.667  0.2564  0.4744 -2.2261
17169TIP3    H272923   1.651   2.899   5.641 -0.5703  0.3975  1.6103
17170TIP3   OH272924   1.336   1.256  16.358  0.7086  1.0831 -0.0921
17170TIP3    H172925   1.316   1.284  16.447 -0.0106 -0.1979  0.1760
17170TIP3    H272926   1.428   1.231  16.361  1.3231  3.1814 -0.3063
17171TIP3   OH272927   4.570   3.919   0.309  0.0199  0.4544 -0.4125
17171TIP3    H172928   4.487   3.882   0.280 -0.3237  1.1424 -0.3396
17171TIP3    H272929   4.547   4.003   0.348  0.8982  1.4797 -1.9454
17172TIP3   OH272930   1.361   6.091  14.073 -0.2441  0.2936 -0.7815
17172TIP3    H172931   1.281   6.098  14.019 -1.0569 -0.1692  0.3244
17172TIP3    H272932   1.355   6.165  14.133 -0.3422 -0.2786 -0.0675
17173TIP3   OH272933   1.155   5.672  14.507  0.4285 -0.3264 -0.0684
17173TIP3    H172934   1.179   5.760  14.535  1.0011 -1.2322  2.5183
17173TIP3    H272935   1.105   5.636  14.580  0.8568 -2.4132 -0.7395
17174TIP3   OH272936   1.407   2.986   2.545 -0.6206 -0.4102  0.2189
17174TIP3    H172937   1.387   2.952   2.632 -0.9044 -1.3251 -0.1865
17174TIP3    H272938   1.326   3.029   2.517 -0.7814 -0.7838  0.1051
17175TIP3   OH272939   4.160   4.842   0.420  0.0882 -0.4513 -0.7277
17175TIP3    H172940   4.106   4.807   0.491 -1.2312 -1.3419 -2.0906
17175TIP3    H272941   4.138   4.935   0.417  1.0535 -0.1421  0.7511
17176TIP3   OH272942   4.808   2.939   4.698 -0.3955  0.4366 -0.2039
17176TIP3    H172943   4.823   2.847   4.678 -1.7678 -0.2050  1.4185
17176TIP3    H272944   4.760   2.972   4.622 -1.3040 -0.6350 -0.1289
17177TIP3   OH272945   2.867   2.563  12.890  0.1038 -0.8543  0.4330
17177TIP3    H172946   2.892   2.651  12.861 -2.2146 -0.1698  0.2636
17177TIP3    H272947   2.836   2.576  12.979 -0.6886 -1.4116  0.2439
17178TIP3   OH272948   6.149   5.618  14.681 -0.3961 -0.6333 -0.5194
17178TIP3    H172949   6.233   5.651  14.713 -0.2781  0.5184 -1.9537
17178TIP3    H272950   6.172   5.550  14.617 -0.6179 -1.7750  0.5596
17179TIP3   OH272951   1.405   6.754   5.364 -0.1557 -0.2287 -0.0241
17179TIP3    H172952   1.384   6.692   5.434  0.1060  0.7759  0.9711
17179TIP3    H272953   1.370   6.838   5.395 -0.9645  0.0357 -1.5821
17180TIP3   OH272954   1.585   3.317   6.085  0.1844  0.4889  0.0014
17180TIP3    H172955   1.498   3.276   6.087  0.0645  0.7479  1.7114
17180TIP3    H272956   1.581   3.385   6.152  1.7847  0.3274  0.3087
17181TIP3   OH272957   2.779   4.760  15.683 -0.2141 -0.0530  0.0880
17181TIP3    H172958   2.786   4.853  15.658  1.6964 -0.7263 -2.2732
17181TIP3    H272959   2.687   4.739  15.667 -0.3787  1.1175 -0.7108
17182TIP3   OH272960   3.475   2.607   2.491 -0.2503  0.2008  0.3718
17182TIP3    H172961   3.391   2.563   2.503 -0.7823  0.8349 -0.7826
17182TIP3    H272962   3.456   2.699   2.507 -0.3947  0.7052 -2.2041
17183TIP3   OH272963   4.444   1.016   1.638  0.2031  0.5354 -0.1678
17183TIP3    H172964   4.402   0.936   1.607  0.5011  0.4878 -0.4512
17183TIP3    H272965   4.459   1.000   1.731  1.2359 -0.1777 -0.4356
17184TIP3   OH272966   5.862   1.802  12.724 -0.1045 -0.6649 -0.7305
17184TIP3    H172967   5.915   1.881  12.715 -0.3728 -0.2151  1.2571
17184TIP3    H272968   5.894   1.744  12.655  1.1439  0.5905 -1.2561
17185TIP3   OH272969   1.013   2.209  14.518  0.2437  0.4519  0.1012
17185TIP3    H172970   1.015   2.227  14.424 -1.3880  2.7466  0.4201
17185TIP3    H272971   1.085   2.147  14.532 -0.8207 -1.7594 -2.9654
17186TIP3   OH272972   6.101   2.527  16.660 -0.4971 -0.1034 -0.7662
17186TIP3    H172973   6.162   2.453  16.667  0.9503  1.0737 -0.5931
17186TIP3    H272974   6.023   2.498  16.707  0.4604 -1.0995  0.2593
17187TIP3   OH272975   4.653   6.037  14.273  0.4202  0.1841 -0.4700
17187TIP3    H172976   4.597   6.096  14.322 -0.6611 -0.5013 -0.8430
17187TIP3    H272977   4.719   6.093  14.232 -0.4405  1.0871 -0.6261
17188TIP3   OH272978   4.156   4.852  11.219 -0.2110 -0.3526 -0.8837
17188TIP3    H172979   4.178   4.762  11.240 -2.8876 -0.7396  0.6030
17188TIP3    H272980   4.154   4.897  11.304 -0.6762  0.6603 -1.4087
17189TIP3   OH272981   0.543   0.853  12.315  0.2015  0.3384 -0.2087
17189TIP3    H172982   0.591   0.771  12.321 -0.2586  0.0453 -0.5363
17189TIP3    H272983   0.603   0.913  12.271  0.6191  0.2456  0.2251
17190TIP3   OH272984   0.959   4.841   5.604  0.3046  0.1803 -0.0884
17190TIP3    H172985   0.953   4.869   5.696  0.0209  1.8167 -0.5664
17190TIP3    H272986   0.939   4.748   5.606 -1.9471  0.6180  1.2654
17191TIP3   OH272987   2.105   0.671   2.475  0.6806  0.1700  0.2997
17191TIP3    H172988   2.177   0.648   2.417  1.5474 -0.2979  1.5148
17191TIP3    H272989   2.062   0.587   2.495 -0.0265  0.4105 -0.1894
17192TIP3   OH272990   1.447   4.073  14.490 -0.1960 -0.2638  0.4463
17192TIP3    H172991   1.494   4.030  14.419  2.8361  0.4521  1.8533
17192TIP3    H272992   1.482   4.033  14.570 -0.4058  1.7811  1.6442
17193TIP3   OH272993   5.596   6.707   2.010  0.5511 -0.0044  0.0244
17193TIP3    H172994   5.614   6.774   2.075  0.7278  0.8874 -0.9197
17193TIP3    H272995   5.674   6.705   1.955 -0.3112  0.5895 -1.2794
17194TIP3   OH272996   0.039   3.330  14.527 -0.6256  0.2318 -0.1913
17194TIP3    H172997  -0.033   3.391  14.545 -0.6958  0.1650 -0.2428
17194TIP3    H272998   0.012   3.286  14.446 -0.6876 -0.0386 -0.0214
17195TIP3   OH272999   4.469   6.586  16.293 -0.2046 -0.1551  0.0553
17195TIP3    H173000   4.422   6.592  16.210 -0.8965  0.8336  0.4968
17195TIP3    H273001   4.546   6.642  16.281  0.2616 -0.8530 -0.2692
17196TIP3   OH273002   5.946   1.745  17.111  0.2296  0.6908  0.0967
17196TIP3    H173003   5.851   1.741  17.119  0.1877  0.0354 -0.6357
17196TIP3    H273004   5.966   1.839  17.105 -0.3620  0.8340  0.3036
17197TIP3   OH273005   2.043   4.941  14.531  0.1117 -0.3028 -0.1614
17197TIP3    H173006   2.027   5.014  14.591  1.2773 -0.0216 -0.1757
17197TIP3    H273007   2.135   4.919  14.545  0.4956 -0.0456 -2.0498
17198TIP3   OH273008   2.796   3.676  12.088  0.2091 -0.0217  0.0641
17198TIP3    H173009   2.825   3.722  12.010  1.7204 -2.7259 -1.0907
17198TIP3    H273010   2.709   3.642  12.065  0.2353  0.0032 -0.0716
17199TIP3   OH273011   2.146   0.363  15.221 -0.1983  0.1463 -0.1370
17199TIP3    H173012   2.114   0.350  15.132  1.6956 -0.4089 -0.7781
17199TIP3    H273013   2.185   0.280  15.246 -1.3574  0.0489  1.5386
17200TIP3   OH273014   2.821   0.633   2.029  0.0281 -0.0529 -1.0720
17200TIP3    H173015   2.906   0.662   1.997  0.3410  0.9017  0.4921
17200TIP3    H273016   2.772   0.611   1.950  1.1155  1.0842 -2.1209
17201TIP3   OH273017   5.738   0.757  12.917  0.5089  0.3289  0.5720
17201TIP3    H173018   5.749   0.737  12.824 -1.5763  0.4853  0.2433
17201TIP3    H273019   5.710   0.675  12.956 -0.5984  0.7227  0.6512
17202TIP3   OH273020   4.624   3.667   4.717  0.3056 -0.0063 -0.6925
17202TIP3    H173021   4.636   3.592   4.776 -0.2386  0.2006 -0.3158
17202TIP3    H273022   4.541   3.706   4.744  0.5630  0.7076 -0.9142
17203TIP3   OH273023   3.982   2.725  13.937 -0.0466  0.8874  0.1780
17203TIP3    H173024   3.950   2.642  13.972  1.8664 -0.2558 -0.6144
17203TIP3    H273025   4.043   2.758  14.003  1.3233  0.2084 -0.6977
17204TIP3   OH273026   6.390   4.250   3.851 -0.7484 -0.3124 -0.1104
17204TIP3    H173027   6.442   4.330   3.853 -0.1368 -0.6859  1.9048
17204TIP3    H273028   6.326   4.261   3.921 -0.2853 -1.7798  0.5934
17205TIP3   OH273029   4.279   4.386   5.111 -0.4229  0.1212 -0.2990
17205TIP3    H173030   4.367   4.423   5.101 -0.7701  1.1856  0.4060
17205TIP3    H273031   4.293   4.292   5.122  0.9707  0.6179  3.6529
17206TIP3   OH273032   0.712   1.605   4.961  0.3753  0.4561  0.0333
17206TIP3    H173033   0.730   1.681   4.905 -0.6414  0.4463 -0.3288
17206TIP3    H273034   0.618   1.607   4.974  0.4552 -0.2261  0.7875
17207TIP3   OH273035   5.885   0.951   2.956 -0.8284  0.4128  0.0775
17207TIP3    H173036   5.979   0.944   2.977 -0.9428 -0.5522  0.3188
17207TIP3    H273037   5.871   0.887   2.887 -1.5101 -0.2195  0.7754
17208TIP3   OH273038   4.094   0.232   4.407 -0.0890  0.3206 -0.4390
17208TIP3    H173039   4.113   0.147   4.367  0.8934  0.0012  0.6641
17208TIP3    H273040   3.998   0.237   4.406 -0.1827 -0.9888 -0.1546
17209TIP3   OH273041   4.457   4.034   2.771  0.8542  0.1098  0.1002
17209TIP3    H173042   4.459   4.067   2.681  0.2902 -1.0353 -0.3423
17209TIP3    H273043   4.533   4.074   2.813  1.0636  0.7353 -0.8516
17210TIP3   OH273044   5.473   2.017  16.525  0.4914  0.0763 -0.1203
17210TIP3    H173045   5.386   2.049  16.499 -0.4809 -0.7182  1.9187
17210TIP3    H273046   5.518   1.999  16.442 -1.3512  0.2979 -1.2290
17211TIP3   OH273047   4.823   2.121  14.698  0.7486 -0.1170 -0.2983
17211TIP3    H173048   4.762   2.194  14.693  0.1340 -0.7051 -2.1007
17211TIP3    H273049   4.791   2.068  14.771  1.1953  1.3471  1.0236
17212TIP3   OH273050   6.170   3.775   3.763 -0.0255 -0.4897 -0.6310
17212TIP3    H173051   6.225   3.853   3.766 -1.2608  0.4419 -1.3158
17212TIP3    H273052   6.200   3.728   3.685  0.0696 -0.1989 -0.7700
17213TIP3   OH273053   3.082   3.518   1.901 -0.5288 -0.3439 -0.0735
17213TIP3    H173054   3.069   3.447   1.964  1.9180 -0.1065  0.7830
17213TIP3    H273055   3.112   3.592   1.953 -1.0604  0.7173 -1.2102
17214TIP3   OH273056   4.338   6.628  13.485  0.2280 -0.3114 -0.8447
17214TIP3    H173057   4.413   6.614  13.427  0.9239 -1.0555  0.1927
17214TIP3    H273058   4.336   6.550  13.541 -0.2148  0.5244  0.3401
17215TIP3   OH273059   6.236   5.958   1.776  0.1312 -0.3238 -0.3304
17215TIP3    H173060   6.228   5.929   1.867 -2.8332 -3.1313 -1.2901
17215TIP3    H273061   6.308   5.906   1.740  0.3616 -0.2642  0.0414
17216TIP3   OH273062   2.283   4.044  15.502 -0.1309 -0.1581 -0.0202
17216TIP3    H173063   2.281   4.052  15.597  0.1668 -0.7636  0.0445
17216TIP3    H273064   2.326   4.124  15.472 -1.3343  0.6192  0.2604
17217TIP3   OH273065   5.856   3.200   0.952  0.1642 -0.0399  0.2787
17217TIP3    H173066   5.911   3.196   0.873  0.6990  0.1539  0.6344
17217TIP3    H273067   5.810   3.116   0.953  1.5180 -0.8158  0.7221
17218TIP3   OH273068   5.150   4.243  13.504 -0.1253 -0.1747 -0.1381
17218TIP3    H173069   5.138   4.304  13.431  1.4705 -0.9784 -1.1598
17218TIP3    H273070   5.104   4.163  13.477  0.1214 -0.3373 -0.0868
17219TIP3   OH273071   3.160   5.880   0.361 -0.3671  0.3097  0.2143
17219TIP3    H173072   3.171   5.937   0.437  1.7724 -0.1864  0.3381
17219TIP3    H273073   3.186   5.935   0.287 -1.1944  0.3933 -0.0205
17220TIP3   OH273074   2.997   6.614  11.190 -0.5100  0.0394 -0.1710
17220TIP3    H173075   2.987   6.558  11.113 -1.0740 -0.2365  0.1023
17220TIP3    H273076   3.033   6.696  11.155  1.3221 -0.8300 -0.4313
17221TIP3   OH273077   6.730   5.284   3.818  0.2061 -0.2009  0.0623
17221TIP3    H173078   6.688   5.370   3.814 -0.3138 -0.3949  0.9347
17221TIP3    H273079   6.780   5.277   3.737  1.0367  1.3150  0.4205
17222TIP3   OH273080   2.482   5.823   0.588  0.3427  0.3761  0.3838
17222TIP3    H173081   2.565   5.814   0.541 -0.0679  2.0410 -0.8042
17222TIP3    H273082   2.491   5.906   0.636 -0.8179  0.9107 -0.2690
17223TIP3   OH273083   2.018   2.273  14.589  0.2739 -0.2824 -0.6750
17223TIP3    H173084   2.079   2.305  14.522  2.2457  0.6289  1.4079
17223TIP3    H273085   2.067   2.205  14.636 -0.1175  0.7051  1.2805
17224TIP3   OH273086   0.863   3.466  12.419  0.4490 -1.0546  0.0123
17224TIP3    H173087   0.937   3.482  12.478 -0.6850 -0.8195  1.4474
17224TIP3    H273088   0.806   3.406  12.468  0.4785 -2.6076 -1.7522
17225TIP3   OH273089   2.305   2.606  15.025 -0.2641 -0.1223  0.1605
17225TIP3    H173090   2.274   2.525  14.984 -0.8763  1.0191 -1.7819
17225TIP3    H273091   2.399   2.607  15.007 -0.3563 -0.1248 -0.3432
17226TIP3   OH273092   5.794   1.938   2.482 -0.3184 -0.0351  0.3560
17226TIP3    H173093   5.883   1.945   2.449  0.4119  1.8768  2.4626
17226TIP3    H273094   5.755   2.024   2.466 -0.9254 -0.0329  1.6505
17227TIP3   OH273095   1.243   0.754  11.137  0.3743 -0.2531  0.3851
17227TIP3    H173096   1.275   0.843  11.126 -0.0980 -0.0616  0.5158
17227TIP3    H273097   1.321   0.699  11.129  0.5285  0.0967 -0.7405
17228TIP3   OH273098   4.571   6.523   4.565  0.0137 -0.1738  0.2335
17228TIP3    H173099   4.566   6.446   4.508 -0.9381 -0.0188  0.0786
17228TIP3    H273100   4.505   6.507   4.633  0.1569  0.2762  0.4828
17229TIP3   OH273101   3.068   5.728  10.575 -0.0064  0.4779  0.5383
17229TIP3    H173102   3.152   5.693  10.606 -0.0887 -0.5204 -0.3130
17229TIP3    H273103   3.052   5.804  10.631  1.2104  0.3819  1.0596
17230TIP3   OH273104   2.531   4.350   3.708 -0.1430 -0.1426 -0.1761
17230TIP3    H173105   2.478   4.428   3.694 -0.4437  0.1247  2.1853
17230TIP3    H273106   2.491   4.284   3.650 -1.0756  0.9179 -0.7779
17231TIP3   OH273107   2.366   2.437   1.419  0.3711 -0.2995 -0.3196
17231TIP3    H173108   2.434   2.495   1.385 -0.1751 -0.3116 -1.5100
17231TIP3    H273109   2.286   2.490   1.415  0.1797 -0.5228  0.3825
17232TIP3   OH273110   0.980   2.597   2.775  0.4939  0.1542  0.1548
17232TIP3    H173111   0.997   2.678   2.823  0.7244  1.2060 -1.6222
17232TIP3    H273112   0.927   2.544   2.836  0.0254  1.7696  1.2197
17233TIP3   OH273113   0.117   0.259   1.798 -0.1048 -0.2526  0.0383
17233TIP3    H173114   0.207   0.228   1.806  0.1389  0.6493  0.8948
17233TIP3    H273115   0.065   0.179   1.789  0.5287 -0.9281  1.9672
17234TIP3   OH273116   2.595   2.072  12.297 -0.5012  0.5397  0.0325
17234TIP3    H173117   2.621   2.026  12.217 -0.7771 -1.6674  1.1276
17234TIP3    H273118   2.674   2.075  12.350 -1.0730 -1.1132  1.0476
17235TIP3   OH273119   0.839   4.159  11.060 -0.2757 -0.5741 -0.1930
17235TIP3    H173120   0.843   4.197  10.972  0.5603 -0.7669 -0.2429
17235TIP3    H273121   0.925   4.119  11.073 -1.0172 -2.1959 -0.0308
17236TIP3   OH273122   0.481   3.690   2.679  0.3857  0.7557  0.8687
17236TIP3    H173123   0.438   3.759   2.629  0.2408  0.1591  0.1643
17236TIP3    H273124   0.441   3.695   2.766 -0.2159  1.0087  0.5802
17237TIP3   OH273125   3.092   2.760   4.846  0.6965 -0.4633 -0.3680
17237TIP3    H173126   3.021   2.713   4.891  0.2545  0.4568 -0.0766
17237TIP3    H273127   3.122   2.699   4.779  1.6849 -2.0571  1.4293
17238TIP3   OH273128   3.590   0.442   3.693  0.3831  0.6920 -0.3429
17238TIP3    H173129   3.641   0.381   3.746 -0.9679  1.2532  1.7001
17238TIP3    H273130   3.633   0.527   3.706 -0.7019  1.0747  0.9873
17239TIP3   OH273131   5.077   5.266  11.663  0.1938  0.4800  0.0907
17239TIP3    H173132   5.126   5.266  11.581 -1.4244  0.9864 -0.9120
17239TIP3    H273133   5.036   5.352  11.666 -2.8114 -0.8116 -0.4914
17240TIP3   OH273134   2.505   3.374   2.797  0.2768 -0.3251  0.3466
17240TIP3    H173135   2.510   3.278   2.796 -1.7199 -0.4845  0.9197
17240TIP3    H273136   2.553   3.401   2.719 -0.6129 -1.9158 -0.8298
17241TIP3   OH273137   1.202   4.466  16.632  0.3798 -0.1263 -0.0816
17241TIP3    H173138   1.265   4.529  16.666  1.5521 -0.4330 -1.6037
17241TIP3    H273139   1.255   4.403  16.583 -1.1708 -0.0528 -1.9323
17242TIP3   OH273140   4.822   4.011  15.413  0.5873 -0.0662  0.3749
17242TIP3    H173141   4.767   3.946  15.369 -0.1194  0.0294  1.1039
17242TIP3    H273142   4.882   4.042  15.345 -0.1817 -0.2520 -0.3974
17243TIP3   OH273143   3.121   3.561   0.541 -0.9966 -0.3667  0.7260
17243TIP3    H173144   3.048   3.498   0.539 -1.2175 -0.1001 -1.4784
17243TIP3    H273145   3.097   3.623   0.610 -3.2109  0.0851 -0.3644
17244TIP3   OH273146   0.572   3.506   2.526 -0.1340  0.2130  0.0625
17244TIP3    H173147   0.537   3.577   2.580  2.3972  1.8741 -0.3198
17244TIP3    H273148   0.575   3.430   2.584 -1.3481  0.8314  0.9832
17245TIP3   OH273149   1.505   6.399  14.096 -0.1129 -0.4832  0.1156
17245TIP3    H173150   1.534   6.356  14.015 -1.4116  0.1205 -0.7168
17245TIP3    H273151   1.584   6.409  14.148  0.7339 -1.0537 -1.0159
17246TIP3   OH273152   4.234   4.305   1.265  0.4975 -0.1379 -0.2787
17246TIP3    H173153   4.188   4.343   1.340 -0.5584 -1.5647 -0.1678
17246TIP3    H273154   4.254   4.215   1.293  0.7513 -0.4510 -1.4368
17247TIP3   OH273155   3.858   5.280  11.339 -0.6340  0.3314  0.0168
17247TIP3    H173156   3.913   5.249  11.410  0.1908  1.0389 -0.2932
17247TIP3    H273157   3.833   5.369  11.364 -2.3260 -0.2671  0.5350
17248TIP3   OH273158   6.710   1.808  13.493  0.3884  0.5842  0.2223
17248TIP3    H173159   6.710   1.747  13.566 -0.8127  0.9733  0.5718
17248TIP3    H273160   6.665   1.761  13.422  0.1682  0.7763  0.2351
17249TIP3   OH273161   3.466   1.861  15.362  0.1916  0.0523 -0.2373
17249TIP3    H173162   3.462   1.920  15.286 -0.0362 -1.0971 -1.1425
17249TIP3    H273163   3.395   1.891  15.419  0.7255  1.2949 -0.1728
17250TIP3   OH273164   1.683   0.847   1.209  0.0287 -0.0309 -0.0989
17250TIP3    H173165   1.611   0.865   1.149 -0.2707 -0.9603 -0.0369
17250TIP3    H273166   1.641   0.827   1.293  0.2477 -1.8896 -0.3860
17251TIP3   OH273167   3.479   2.764   3.394 -0.0212 -0.3126  0.0188
17251TIP3    H173168   3.542   2.705   3.435 -1.3957 -0.6161  1.8350
17251TIP3    H273169   3.410   2.774   3.459 -1.1538  1.1551 -1.3263
17252TIP3   OH273170   4.141   5.156   3.301  0.1984  0.3168 -0.7433
17252TIP3    H173171   4.076   5.195   3.243  1.5465  0.5326 -2.1572
17252TIP3    H273172   4.204   5.225   3.317 -0.4588  0.4590  1.5504
17253TIP3   OH273173   4.588   1.701  17.059 -0.3353  0.6187 -0.0645
17253TIP3    H173174   4.535   1.625  17.083 -0.0413  1.0917  2.3765
17253TIP3    H273175   4.585   1.703  16.964 -0.6145 -2.2541 -0.2243
17254TIP3   OH273176   2.742   1.660  14.577  0.2835 -0.5313  0.2487
17254TIP3    H173177   2.782   1.585  14.621 -1.0628 -0.9120  0.8769
17254TIP3    H273178   2.689   1.621  14.507  1.2243 -0.0214 -0.7574
17255TIP3   OH273179   2.055   1.079   3.335 -0.2623 -0.2910 -0.6250
17255TIP3    H173180   1.964   1.090   3.306 -1.8706 -3.1580  2.6336
17255TIP3    H273181   2.070   0.984   3.329  1.3829 -0.2551  1.7267
17256TIP3   OH273182   5.931   1.665  12.484  0.2985 -0.4465  0.6606
17256TIP3    H173183   5.861   1.603  12.462  0.0271 -0.0678  0.4239
17256TIP3    H273184   6.010   1.629  12.445  0.3934 -1.2714  1.5794
17257TIP3   OH273185   4.773   5.921   1.670 -0.1392  0.2579  0.2997
17257TIP3    H173186   4.862   5.957   1.672  0.0395 -0.1595 -0.0578
17257TIP3    H273187   4.752   5.912   1.577  0.0889 -1.2035  0.3661
17258TIP3   OH273188   2.708   1.508  16.843 -0.5989  0.0245  0.0874
17258TIP3    H173189   2.630   1.453  16.840 -0.8947  0.4290  0.3895
17258TIP3    H273190   2.780   1.447  16.829 -0.7705 -0.7507  2.2338
17259TIP3   OH273191   4.241   3.863   5.107 -0.0241 -0.2398 -0.0833
17259TIP3    H173192   4.240   3.869   5.203  0.6176  0.9320 -0.1365
17259TIP3    H273193   4.172   3.800   5.087  0.1227 -0.8427  1.1722
17260TIP3   OH273194   4.893   4.300  15.675  0.5309  0.2475  0.0582
17260TIP3    H173195   4.948   4.351  15.735  0.4720 -0.0997  0.4078
17260TIP3    H273196   4.955   4.257  15.617  0.5808  0.7431 -0.2685
17261TIP3   OH273197   0.780   0.774  11.269 -0.1161  0.3703  0.5181
17261TIP3    H173198   0.756   0.738  11.355 -0.8107 -2.4970 -0.7524
17261TIP3    H273199   0.797   0.697  11.215  0.3311  2.0887 -1.9468
17262TIP3   OH273200   5.522   4.442   3.644 -0.0402  0.3293  0.3945
17262TIP3    H173201   5.458   4.459   3.574  0.2687 -0.1927 -0.0229
17262TIP3    H273202   5.540   4.528   3.682 -2.9776  0.2280  2.3102
17263TIP3   OH273203   1.740   5.713   3.592 -0.0978  0.1285 -0.2757
17263TIP3    H173204   1.725   5.619   3.597 -0.5102  0.2296  0.5543
17263TIP3    H273205   1.696   5.741   3.512  1.0797 -0.5674 -1.2010
17264TIP3   OH273206   4.709   0.035  12.313 -0.5071  0.1142 -0.7419
17264TIP3    H173207   4.669   0.062  12.396 -1.9984 -3.0466 -0.2837
17264TIP3    H273208   4.641   0.052  12.247 -0.1127  0.6677 -1.0195
17265TIP3   OH273209   0.241   2.390   6.611  0.5036  0.8493 -0.3293
17265TIP3    H173210   0.191   2.308   6.611  1.9921 -0.2451  2.9143
17265TIP3    H273211   0.318   2.371   6.557  0.2033  0.5802 -0.6697
17266TIP3   OH273212   2.094   2.871   5.212 -0.2210  0.2087  0.2749
17266TIP3    H173213   2.050   2.859   5.128 -2.7238  0.9099  1.3985
17266TIP3    H273214   2.076   2.791   5.261 -1.4295  1.0165  1.2122
17267TIP3   OH273215   5.893   0.098   6.193 -0.6430 -0.0668  0.2254
17267TIP3    H173216   5.916   0.017   6.238  0.1507 -0.8151 -1.4338
17267TIP3    H273217   5.899   0.166   6.261  0.8183 -1.0857  1.1732
17268TIP3   OH273218   6.270   2.355  11.498  0.0287  0.5336 -0.5402
17268TIP3    H173219   6.271   2.311  11.413  2.3784  0.7518 -0.6826
17268TIP3    H273220   6.193   2.318  11.542  0.7014 -2.2305 -1.4266
17269TIP3   OH273221   5.983   6.431   3.031 -0.0888 -0.1746  0.8114
17269TIP3    H173222   5.967   6.349   3.078 -1.5250  0.3869  1.3712
17269TIP3    H273223   5.904   6.484   3.048 -0.3167  0.3530 -1.6094
17270TIP3   OH273224   6.656   0.830  13.782  0.2097 -0.5079 -0.1107
17270TIP3    H173225   6.686   0.920  13.792  0.7512 -0.7336  0.3612
17270TIP3    H273226   6.623   0.826  13.692  0.3632  0.1053 -0.2011
17271TIP3   OH273227   0.043   0.282   2.092  0.3039  0.5519 -0.0818
17271TIP3    H173228  -0.003   0.217   2.144  2.3993  0.7353  2.1894
17271TIP3    H273229   0.111   0.233   2.047 -0.0449  0.7351 -0.8169
17272TIP3   OH273230   3.898   3.223   4.537 -0.0603 -0.2866  0.4791
17272TIP3    H173231   3.905   3.290   4.469 -1.2087 -0.4207  0.2065
17272TIP3    H273232   3.970   3.162   4.518 -0.6022 -0.5522 -0.8821
17273TIP3   OH273233   2.488   0.245  14.209  0.9581 -0.6383 -0.4064
17273TIP3    H173234   2.408   0.297  14.213  1.2521  0.0830 -2.4660
17273TIP3    H273235   2.503   0.215  14.298  0.1974  1.9550  0.6597
17274TIP3   OH273236   5.447   0.185  13.557 -0.5624 -0.2866 -0.2147
17274TIP3    H173237   5.375   0.123  13.556 -1.5710  0.8262  0.8155
17274TIP3    H273238   5.410   0.266  13.522  0.3372  0.1551 -0.1835
17275TIP3   OH273239   0.904   4.779   1.247  0.0009 -0.3362  0.1931
17275TIP3    H173240   0.857   4.781   1.331  0.4411  0.2873  0.4335
17275TIP3    H273241   0.980   4.724   1.264 -0.5889 -1.3008 -0.1814
17276TIP3   OH273242   6.105   2.662  11.067 -0.5443 -0.9488 -0.2651
17276TIP3    H173243   6.022   2.627  11.033 -0.8515  0.0077 -0.5339
17276TIP3    H273244   6.087   2.681  11.159 -0.5696 -0.9114 -0.2772
17277TIP3   OH273245   2.918   4.179   1.232  0.2855 -0.5069  0.0475
17277TIP3    H173246   2.834   4.204   1.193  1.6614 -0.8634 -3.4997
17277TIP3    H273247   2.925   4.085   1.215  1.5348 -0.4114 -0.0459
17278TIP3   OH273248   0.573   2.555  16.048 -0.0242 -0.4282  0.1693
17278TIP3    H173249   0.659   2.563  16.007 -0.4976 -0.1155 -0.8111
17278TIP3    H273250   0.539   2.471  16.017 -1.0926  0.5609 -1.5767
17279TIP3   OH273251   4.793   0.941   4.480 -0.1767  0.0632  0.4214
17279TIP3    H173252   4.813   0.887   4.557 -2.8053 -1.1728  0.3363
17279TIP3    H273253   4.807   0.882   4.406  2.1732  1.1996 -0.1294
17280TIP3   OH273254   1.067   2.843   4.680 -0.2900  0.3022 -0.2273
17280TIP3    H173255   1.043   2.863   4.770 -0.7836 -0.1257 -0.2566
17280TIP3    H273256   1.151   2.798   4.687 -0.0214  0.8205 -0.0351
17281TIP3   OH273257   4.942   1.815  15.462 -0.0510 -0.4872  0.3473
17281TIP3    H173258   4.993   1.809  15.381  0.4195 -0.7741  0.6616
17281TIP3    H273259   4.883   1.889  15.447 -1.4521 -1.8170 -1.0774
17282TIP3   OH273260   1.179   0.198  11.526 -0.1344 -0.3730 -0.0680
17282TIP3    H173261   1.225   0.257  11.586  2.3328 -3.5601  1.4809
17282TIP3    H273262   1.099   0.175  11.573  0.5640 -0.8725  0.9284
17283TIP3   OH273263   4.920   1.879  12.865 -0.5698  0.6368 -0.5300
17283TIP3    H173264   4.949   1.967  12.842 -2.0331  0.9445 -1.3482
17283TIP3    H273265   4.861   1.893  12.940 -0.2488  0.2721 -0.2083
17284TIP3   OH273266   6.030   5.135   1.441 -0.0350  0.2059 -0.0721
17284TIP3    H173267   6.018   5.197   1.513  1.8854  0.9567 -0.3318
17284TIP3    H273268   6.097   5.176   1.386  0.4292 -1.5711 -0.8897
17285TIP3   OH273269   2.203   6.461   6.154  0.0020 -0.0478 -0.0638
17285TIP3    H173270   2.123   6.426   6.116 -0.4736 -0.2034  1.0515
17285TIP3    H273271   2.186   6.465   6.248  0.4604  2.0718 -0.0169
17286TIP3   OH273272   1.634   3.286   3.745  0.2995  0.0758 -0.4143
17286TIP3    H173273   1.617   3.366   3.794 -0.7087 -0.2606 -0.1927
17286TIP3    H273274   1.718   3.255   3.778 -0.6024 -0.4336  1.5114
17287TIP3   OH273275   1.003   3.550   0.388  0.6411  0.3293  0.1195
17287TIP3    H173276   0.938   3.599   0.438  0.4776 -1.1251  1.3862
17287TIP3    H273277   1.056   3.505   0.454  2.7199  1.1521 -0.8908
17288TIP3   OH273278   3.883   5.152   0.164 -0.5198 -0.5095 -0.1393
17288TIP3    H173279   3.906   5.077   0.109 -2.8273 -1.7639  0.4901
17288TIP3    H273280   3.899   5.228   0.107  1.1942 -1.4672 -1.0308
17289TIP3   OH273281   2.836   1.428   1.874 -0.1605 -0.9838  0.7081
17289TIP3    H173282   2.795   1.348   1.906  1.1343 -1.5672  0.9558
17289TIP3    H273283   2.827   1.490   1.947 -2.5486 -0.3348 -0.0288
17290TIP3   OH273284   5.977   2.636   0.033 -0.3422 -0.2356 -0.2375
17290TIP3    H173285   6.070   2.650   0.016 -0.5608 -0.1138 -1.3870
17290TIP3    H273286   5.970   2.640   0.129  0.6170  1.1947 -0.1925
17291TIP3   OH273287   3.187   0.035  15.380  0.4363 -0.2145  0.0989
17291TIP3    H173288   3.227  -0.043  15.343  0.5448 -0.4145  0.6223
17291TIP3    H273289   3.114   0.055  15.321 -1.2380 -2.2563  1.3461
17292TIP3   OH273290   1.243   0.175   3.125  0.6775  0.3741  0.2657
17292TIP3    H173291   1.246   0.129   3.208  3.4431 -1.1679 -0.5581
17292TIP3    H273292   1.309   0.244   3.133 -0.2072  1.2888 -0.1113
17293TIP3   OH273293   0.446   4.286   6.473  0.1827  0.0010  0.6926
17293TIP3    H173294   0.412   4.336   6.547 -0.0445  0.2062  0.4522
17293TIP3    H273295   0.482   4.352   6.414  2.9103 -0.3017  1.8515
17294TIP3   OH273296   1.821   1.428  16.436 -0.1149  0.2371  0.5002
17294TIP3    H173297   1.850   1.519  16.441  0.0253  0.3202 -1.1830
17294TIP3    H273298   1.766   1.416  16.513  0.7605  1.4133  1.3474
17295TIP3   OH273299   4.053   2.486  11.752  0.0620 -0.2019  0.4748
17295TIP3    H173300   4.133   2.455  11.794 -0.3495 -1.0791  0.6441
17295TIP3    H273301   3.983   2.463  11.815 -0.4135 -0.2909 -0.0783
17296TIP3   OH273302   4.098   0.753   6.543  0.9672  0.0766 -0.4278
17296TIP3    H173303   4.005   0.729   6.536  1.2297 -0.7464 -1.3439
17296TIP3    H273304   4.143   0.669   6.552  1.5314  0.5418  1.3595
17297TIP3   OH273305   4.990   5.062  13.848 -0.1304 -0.8041  0.5327
17297TIP3    H173306   4.990   5.122  13.922 -0.4864 -1.2621  0.9073
17297TIP3    H273307   5.044   5.106  13.782 -3.1223  1.5723 -0.5771
17298TIP3   OH273308   2.939   2.628  14.274 -0.3405  0.3613 -0.0533
17298TIP3    H173309   2.902   2.554  14.323  1.2254 -0.2344  0.2822
17298TIP3    H273310   2.936   2.701  14.336  0.4288 -0.0644  0.4926
17299TIP3   OH273311   6.332   2.522  16.024  0.0134  0.3176 -0.0438
17299TIP3    H173312   6.335   2.564  16.109  0.0513  1.7000 -0.6999
17299TIP3    H273313   6.265   2.570  15.975 -0.0880 -0.5190 -0.7561
17300TIP3   OH273314   3.070   3.608   4.831  0.3124  0.1683  0.7914
17300TIP3    H173315   3.033   3.565   4.754 -1.4086  0.7791  1.2230
17300TIP3    H273316   3.130   3.543   4.868  2.3081  0.3694 -1.7919
17301TIP3   OH273317   2.218   3.836  14.637 -0.1084 -0.2120 -0.0541
17301TIP3    H173318   2.222   3.826  14.732  0.5344  0.2696 -0.0179
17301TIP3    H273319   2.230   3.748  14.603 -1.6728 -0.5824  0.3213
17302TIP3   OH273320   0.677   5.027  14.976 -0.0697 -0.3065 -0.1791
17302TIP3    H173321   0.730   5.066  14.907 -1.0048  0.2537 -0.5866
17302TIP3    H273322   0.611   5.093  14.997 -1.0652 -1.2677 -0.1936
17303TIP3   OH273323   2.246   4.113  15.764  0.1746  0.2213  0.0758
17303TIP3    H173324   2.155   4.085  15.757  0.5062 -0.7023 -0.7771
17303TIP3    H273325   2.294   4.035  15.791  0.6378  0.8669  1.1955
17304TIP3   OH273326   2.123   1.317   4.803 -0.4241  0.0909  0.0234
17304TIP3    H173327   2.047   1.308   4.861 -0.4172 -0.9159 -0.1060
17304TIP3    H273328   2.175   1.239   4.819  0.0857  0.2850 -0.6257
17305TIP3   OH273329   2.501   3.170  11.318 -0.0379 -0.2706 -0.9431
17305TIP3    H173330   2.406   3.183  11.311 -0.1062  0.8098  1.0387
17305TIP3    H273331   2.539   3.250  11.282 -0.0070  0.2974  0.2764
17306TIP3   OH273332   2.214   4.281  10.846  0.7382  0.2428  0.2997
17306TIP3    H173333   2.250   4.247  10.764  0.0566  1.9700 -0.7891
17306TIP3    H273334   2.119   4.270  10.836  0.3806  3.2399 -0.5849
17307TIP3   OH273335   4.003   3.998   2.526  0.1174 -0.5288  0.8278
17307TIP3    H173336   4.045   4.084   2.528  0.8483 -0.7597 -1.4657
17307TIP3    H273337   4.075   3.936   2.530 -0.2183 -0.9833  0.0965
17308TIP3   OH273338   2.542   1.682   2.518 -0.4446 -0.6169 -0.5419
17308TIP3    H173339   2.447   1.669   2.523 -0.3526 -0.9732  0.6433
17308TIP3    H273340   2.578   1.593   2.527  0.0284 -0.3056  1.0819
17309TIP3   OH273341   0.024   0.500  11.389  0.2428 -0.0408  0.0344
17309TIP3    H173342   0.039   0.567  11.322  1.0782  0.1944  0.4369
17309TIP3    H273343  -0.069   0.509  11.411 -0.5215 -1.3262 -2.3249
17310TIP3   OH273344   1.344   0.291   0.588  0.0610 -0.1896  0.1725
17310TIP3    H173345   1.390   0.241   0.655 -2.1026 -1.4398  0.7894
17310TIP3    H273346   1.297   0.226   0.536 -0.5703  0.9858 -0.7925
17311TIP3   OH273347   3.684   4.629  15.829  0.5672  0.2411 -0.0559
17311TIP3    H173348   3.598   4.589  15.840 -1.0123  3.4553  0.4277
17311TIP3    H273349   3.745   4.563  15.860 -1.6139 -2.5058 -1.2105
17312TIP3   OH273350   4.885   6.387  15.998  0.3956 -0.1269  1.0555
17312TIP3    H173351   4.940   6.430  15.933 -0.7968 -0.4359 -0.1984
17312TIP3    H273352   4.910   6.294  15.992  0.0706 -0.2001  0.8121
17313TIP3   OH273353   6.268   0.051   2.737  0.0538 -0.1738  0.6947
17313TIP3    H173354   6.225   0.000   2.668  1.5269 -0.6172  0.0731
17313TIP3    H273355   6.226   0.137   2.733 -0.4487 -0.4463 -0.1880
17314TIP3   OH273356   5.417   6.330  11.425 -0.0835  0.1702 -0.3081
17314TIP3    H173357   5.398   6.378  11.344  1.8748  1.8776  0.1702
17314TIP3    H273358   5.442   6.397  11.488  1.9986 -1.3836  0.6353
17315TIP3   OH273359   4.727   0.493   2.231 -0.4592  0.1839  0.3522
17315TIP3    H173360   4.769   0.525   2.151 -1.2305  0.7794  0.1643
17315TIP3    H273361   4.757   0.552   2.300 -0.8493  0.5141  0.2456
17316TIP3   OH273362   5.115   1.633  11.105 -0.4629 -0.3051  0.1069
17316TIP3    H173363   5.065   1.627  11.024 -0.0774 -1.9463 -0.0470
17316TIP3    H273364   5.202   1.662  11.077 -0.7093  0.4564  0.1129
17317TIP3   OH273365   4.133   2.073   4.740  0.1531 -0.1495 -0.0954
17317TIP3    H173366   4.062   2.065   4.804 -0.0214 -2.2890 -0.4711
17317TIP3    H273367   4.209   2.036   4.785  0.9342  1.6302  0.1088
17318TIP3   OH273368   6.262   4.596   5.088 -0.1676  0.4528 -0.1342
17318TIP3    H173369   6.179   4.643   5.087  0.3936  1.4763 -0.1668
17318TIP3    H273370   6.315   4.642   5.153  0.3111 -0.3070  0.0285
17319TIP3   OH273371   0.910   6.745  15.218  0.2225  0.3144 -0.1444
17319TIP3    H173372   0.967   6.810  15.177  0.4298  1.3890  1.7022
17319TIP3    H273373   0.835   6.738  15.160  0.6979  1.4135 -0.9208
17320TIP3   OH273374   5.113   0.186   2.171 -0.1023 -0.4422  0.5646
17320TIP3    H173375   5.176   0.115   2.164  0.0133 -0.2661 -0.2632
17320TIP3    H273376   5.142   0.251   2.107 -0.8300 -0.1355  0.5347
17321TIP3   OH273377   2.357   0.963  16.116  0.6586 -0.3428  0.0858
17321TIP3    H173378   2.376   0.942  16.208  0.1867 -0.7885  0.0860
17321TIP3    H273379   2.298   0.893  16.087  0.6485 -0.0977 -0.5027
17322TIP3   OH273380   4.085   4.305  13.773 -0.2735 -0.1012 -0.5002
17322TIP3    H173381   4.097   4.210  13.776  0.7518  0.0338  0.0031
17322TIP3    H273382   4.065   4.330  13.863  0.2684  0.2529 -0.4741
17323TIP3   OH273383   2.195   0.075  15.303  0.0035  0.0301 -0.3936
17323TIP3    H173384   2.219  -0.003  15.253 -0.4290 -0.4215  0.0835
17323TIP3    H273385   2.103   0.091  15.280  0.0729  0.3655 -0.4426
17324TIP3   OH273386   2.283   3.690   3.437 -0.6579  0.3630 -0.9107
17324TIP3    H173387   2.225   3.677   3.362 -0.1887  0.5899 -1.3191
17324TIP3    H273388   2.224   3.704   3.511 -1.4195 -4.8867 -0.0998
17325TIP3   OH273389   1.988   0.576  13.190 -0.2408  0.2411 -0.7083
17325TIP3    H173390   1.901   0.596  13.157 -0.2367  2.1627  0.3284
17325TIP3    H273391   1.977   0.491  13.235 -1.3217 -0.0262 -1.4385
17326TIP3   OH273392   1.750   3.642   5.561 -0.3274 -0.4214  0.1702
17326TIP3    H173393   1.815   3.625   5.630  1.9390  0.3284 -1.6458
17326TIP3    H273394   1.733   3.556   5.523  0.3477 -0.5256  0.0765
17327TIP3   OH273395   4.898   1.320   0.624 -0.0894 -0.3826 -0.0804
17327TIP3    H173396   4.983   1.310   0.581 -0.4338 -0.6803 -0.6979
17327TIP3    H273397   4.916   1.302   0.717  0.6342  0.1573 -0.1114
17328TIP3   OH273398   5.897   1.991   3.832  0.0447 -0.0079 -0.1372
17328TIP3    H173399   5.830   1.996   3.901  0.0541 -0.4795 -0.0913
17328TIP3    H273400   5.869   1.918   3.777  0.9423 -0.7106  0.3268
17329TIP3   OH273401   0.121   4.297  16.591 -0.7949 -0.4037 -0.5581
17329TIP3    H173402   0.097   4.256  16.674  1.7180  0.6839  0.8006
17329TIP3    H273403   0.055   4.366  16.579 -0.7400 -0.0518  0.9655
17330TIP3   OH273404   2.887   5.944   4.322 -0.1793 -0.3556  0.6190
17330TIP3    H173405   2.954   5.876   4.311  0.2978 -0.1043  1.8817
17330TIP3    H273406   2.809   5.908   4.278  0.8119 -0.5417 -1.0899
17331TIP3   OH273407   0.321   1.180  10.987  0.3821 -0.9708 -0.3503
17331TIP3    H173408   0.285   1.099  11.023 -1.5929 -0.1001 -0.2366
17331TIP3    H273409   0.293   1.180  10.895 -1.9478  0.7374  0.2627
17332TIP3   OH273410   4.628   0.857   2.468 -0.1451 -0.2196 -0.4928
17332TIP3    H173411   4.571   0.827   2.397 -0.3624 -0.5299 -0.1848
17332TIP3    H273412   4.686   0.783   2.486 -0.3794 -0.3001 -0.0493
17333TIP3   OH273413   3.012   4.589  11.089  0.0312  0.0800  0.0199
17333TIP3    H173414   2.958   4.665  11.068  1.8449  1.1996 -0.9007
17333TIP3    H273415   3.001   4.577  11.183 -0.4973  1.3540  0.1377
17334TIP3   OH273416   6.456   1.523   2.093 -0.5066  0.0798  0.2977
17334TIP3    H173417   6.401   1.573   2.033  0.1110  0.7337  0.2571
17334TIP3    H273418   6.458   1.435   2.056 -0.9459  0.2263 -0.0845
17335TIP3   OH273419   1.237   4.686   5.552 -0.2395 -0.6684 -0.0157
17335TIP3    H173420   1.293   4.608   5.546 -1.3841 -1.5212  0.0185
17335TIP3    H273421   1.148   4.651   5.553 -0.7938  0.6792 -0.4497
17336TIP3   OH273422   0.990   3.232  13.098 -0.6378 -0.3176 -0.0963
17336TIP3    H173423   0.966   3.157  13.153  0.6126 -0.5394  0.1737
17336TIP3    H273424   0.916   3.244  13.040 -0.4489 -2.4085 -0.8341
17337TIP3   OH273425   2.878   5.301  14.068  0.2633  0.5013  0.2151
17337TIP3    H173426   2.864   5.354  13.990 -0.9088  1.2901  0.9288
17337TIP3    H273427   2.884   5.211  14.036 -0.7467  0.7536 -0.7327
17338TIP3   OH273428   1.510   5.414   1.922  0.1666  0.1976  0.5668
17338TIP3    H173429   1.599   5.449   1.919  0.4111 -0.4899 -0.6787
17338TIP3    H273430   1.463   5.473   1.982  0.4821  2.8865 -1.6383
17339TIP3   OH273431   5.120   3.576   4.153  0.0721 -0.7644  0.1638
17339TIP3    H173432   5.184   3.505   4.156 -1.5112 -2.2554  0.3045
17339TIP3    H273433   5.089   3.584   4.243 -0.4615 -0.5821 -0.0298
17340TIP3   OH273434   5.962   3.540  15.894  0.0424  0.1787  0.9865
17340TIP3    H173435   6.014   3.537  15.974  1.4976 -1.2824  0.0435
17340TIP3    H273436   5.884   3.489  15.914  0.4387 -0.2567  1.4429
17341TIP3   OH273437   0.188   1.290  13.100  0.4376  0.3460  0.3568
17341TIP3    H173438   0.224   1.373  13.069 -0.0190  0.8070  1.0456
17341TIP3    H273439   0.265   1.238  13.124  0.7322  0.5004 -0.2288
17342TIP3   OH273440   2.546   2.264   0.538 -0.2913  0.5153 -0.0502
17342TIP3    H173441   2.454   2.288   0.550 -0.4337  0.3900 -0.8009
17342TIP3    H273442   2.544   2.168   0.530 -0.1780  0.5574 -0.6636
17343TIP3   OH273443   5.442   3.656  11.877 -0.3755 -0.5150  0.3504
17343TIP3    H173444   5.521   3.693  11.836 -1.5846  2.1700  0.2311
17343TIP3    H273445   5.404   3.600  11.809  0.2376 -0.0311 -0.4118
17344TIP3   OH273446   0.321   6.163  15.184  0.2260  0.1762  0.5107
17344TIP3    H173447   0.400   6.215  15.172  0.1945 -0.3783 -3.0105
17344TIP3    H273448   0.350   6.072  15.169 -1.0203 -0.0519 -0.5944
17345TIP3   OH273449   1.484   0.698   2.059  0.4335 -0.1977  0.3565
17345TIP3    H173450   1.404   0.657   2.091  1.5842 -1.3773  1.8511
17345TIP3    H273451   1.553   0.667   2.117  2.3906 -1.0331 -2.1824
17346TIP3   OH273452   2.491   6.678   3.992 -0.0261 -0.2262 -0.3694
17346TIP3    H173453   2.519   6.746   4.054 -0.1322  0.2234 -0.8115
17346TIP3    H273454   2.459   6.607   4.048 -0.4114  0.2991  0.0860
17347TIP3   OH273455   5.244   3.500   4.644 -0.4630 -0.1917  0.3849
17347TIP3    H173456   5.320   3.510   4.587 -1.7862  1.4842 -1.2366
17347TIP3    H273457   5.222   3.407   4.639  0.1169 -0.2797 -1.0054
17348TIP3   OH273458   0.041   5.592  17.253 -0.2603 -0.0740 -0.3592
17348TIP3    H173459   0.059   5.517  17.197  0.6357 -0.6006  0.5901
17348TIP3    H273460   0.046   5.558  17.342  1.0448  1.2592  0.1301
17349TIP3   OH273461   3.914   6.251  15.581 -0.3830 -0.0901 -0.6430
17349TIP3    H173462   3.893   6.217  15.668 -1.3234 -1.7912 -1.4712
17349TIP3    H273463   3.997   6.208  15.559 -0.6110 -0.3901 -0.9336
17350TIP3   OH273464   0.572   5.044  12.105 -0.7186 -0.1180 -0.7028
17350TIP3    H173465   0.483   5.049  12.073 -0.2612  1.2681 -1.8549
17350TIP3    H273466   0.595   4.951  12.099 -2.9165 -0.9778  2.1411
17351TIP3   OH273467   3.087   5.992   2.247  0.0802  0.2617 -0.3490
17351TIP3    H173468   3.056   6.073   2.205 -0.9056 -0.1410 -0.4362
17351TIP3    H273469   3.090   6.014   2.340  0.5521  0.6248 -0.4457
17352TIP3   OH273470   0.311   4.920   1.255  0.2730 -0.0492 -0.1670
17352TIP3    H173471   0.396   4.913   1.296 -0.1577  2.5113  1.3665
17352TIP3    H273472   0.261   4.847   1.291  1.1916 -0.3439  0.5496
17353TIP3   OH273473   2.964   0.611   5.015  0.8210 -0.3602 -0.4002
17353TIP3    H173474   2.913   0.647   5.088 -0.4126 -2.5428 -0.0972
17353TIP3    H273475   3.055   0.637   5.035  0.1115  2.0468  0.0202
17354TIP3   OH273476   4.025   5.637  15.177  0.0995  0.3908  0.0003
17354TIP3    H173477   4.064   5.723  15.193 -0.9076  0.8336  0.1063
17354TIP3    H273478   3.948   5.654  15.123 -0.3786 -0.3924  0.4103
17355TIP3   OH273479   1.462   4.130  15.229  0.0486 -0.6835 -0.0215
17355TIP3    H173480   1.449   4.118  15.135  0.1890 -0.8662 -0.0179
17355TIP3    H273481   1.556   4.141  15.240 -0.0546  0.2807 -0.0028
17356TIP3   OH273482   1.886   4.569   5.748  0.7411  0.4164 -0.7480
17356TIP3    H173483   1.831   4.639   5.780 -0.4294 -0.9988  0.4954
17356TIP3    H273484   1.962   4.613   5.709  0.2393  2.3272  0.3315
17357TIP3   OH273485   4.326   0.958   4.003 -0.4150  0.2366 -0.7096
17357TIP3    H173486   4.365   0.956   4.090 -0.0789  0.6738 -0.8468
17357TIP3    H273487   4.236   0.926   4.016  0.0187 -0.9394 -0.4180
17358TIP3   OH273488   2.760   3.335   6.759 -0.6268  0.1450  0.6577
17358TIP3    H173489   2.845   3.377   6.746 -0.4590 -0.4135 -0.1268
17358TIP3    H273490   2.701   3.381   6.700 -0.5652 -0.3383  0.2118
17359TIP3   OH273491   1.401   3.774   1.259  0.0865  0.1691  0.5547
17359TIP3    H173492   1.496   3.766   1.265  0.0750 -0.3074  0.1134
17359TIP3    H273493   1.383   3.866   1.280  0.6477  0.2833  0.5344
17360TIP3   OH273494   0.199   2.689   0.855 -0.3915 -0.4398  0.0322
17360TIP3    H173495   0.287   2.660   0.834 -0.4570  0.5735 -1.9171
17360TIP3    H273496   0.200   2.703   0.950  1.7269  0.1066 -0.0115
17361TIP3   OH273497   0.442   2.034   1.302  0.1230 -0.2309  0.4926
17361TIP3    H173498   0.503   2.013   1.232  0.3328  1.9381 -0.0418
17361TIP3    H273499   0.363   2.065   1.257 -0.4068 -0.5176  1.2045
17362TIP3   OH273500   2.622   4.629   2.773 -0.4120  0.3532 -0.6094
17362TIP3    H173501   2.691   4.656   2.712 -0.4080 -0.0759 -0.7989
17362TIP3    H273502   2.659   4.646   2.860 -0.4904  1.1417 -0.7219
17363TIP3   OH273503   5.353   1.522   1.818  0.2177  0.3936 -0.0913
17363TIP3    H173504   5.344   1.507   1.912 -0.7046  0.3332 -0.1766
17363TIP3    H273505   5.416   1.456   1.789  0.4222  0.3387  0.4623
17364TIP3   OH273506   5.494   1.527  10.784 -0.7293  0.3800 -0.2718
17364TIP3    H173507   5.454   1.449  10.822 -0.9110  1.7207  2.5925
17364TIP3    H273508   5.588   1.515  10.796 -0.7237  0.3956 -0.3000
17365TIP3   OH273509   2.164   2.334  11.056  0.1303  0.3851  0.0987
17365TIP3    H173510   2.199   2.420  11.031 -0.6866  0.8051  0.3627
17365TIP3    H273511   2.241   2.277  11.057  0.7680  1.2133  0.3869
17366TIP3   OH273512   6.242   4.122  11.415  0.0594  0.2794 -0.1491
17366TIP3    H173513   6.193   4.198  11.385 -1.0248  0.3468  1.6124
17366TIP3    H273514   6.252   4.067  11.338 -1.0996  1.1800 -0.9732
17367TIP3   OH273515   4.474   2.132  16.156 -0.6676 -0.1089  0.1419
17367TIP3    H173516   4.507   2.189  16.087 -0.5730 -0.3259  0.0075
17367TIP3    H273517   4.553   2.098  16.198 -0.7147  0.6182  0.8600
17368TIP3   OH273518   5.197   5.079   0.448  0.6323  0.0889  1.0618
17368TIP3    H173519   5.205   5.045   0.537  1.5066 -0.6310  0.7199
17368TIP3    H273520   5.287   5.094   0.420  0.4374 -0.9122 -0.1695
17369TIP3   OH273521   6.576   4.236   2.110 -1.1473  0.8970  0.4318
17369TIP3    H173522   6.627   4.305   2.153 -2.0306  1.3154  0.8249
17369TIP3    H273523   6.597   4.156   2.159 -0.2299  0.8977  0.0620
17370TIP3   OH273524   0.143   3.414   3.455 -0.5080 -0.9196 -0.1222
17370TIP3    H173525   0.156   3.492   3.401  0.7067 -1.8136 -1.1961
17370TIP3    H273526   0.142   3.447   3.545 -1.2141  0.4502 -0.6074
17371TIP3   OH273527   0.293   0.814  11.448 -0.8749  0.2335 -0.6480
17371TIP3    H173528   0.243   0.895  11.453 -1.0778  0.0536  2.6786
17371TIP3    H273529   0.380   0.837  11.479 -0.1848 -0.3573 -2.0752
17372TIP3   OH273530   6.343   5.996  11.115 -0.1665 -0.1960 -0.3276
17372TIP3    H173531   6.356   5.975  11.208  1.2256  0.0521 -0.4456
17372TIP3    H273532   6.409   6.062  11.095 -1.3507  0.7860 -1.1768
17373TIP3   OH273533   6.037   5.566   1.311  0.2218 -0.5079  0.3936
17373TIP3    H173534   6.116   5.521   1.282 -0.0151 -0.0285 -1.1010
17373TIP3    H273535   5.989   5.585   1.230 -0.0612  1.7249  1.0111
17374TIP3   OH273536   4.985   0.808   4.964 -0.0641 -0.1246 -0.4846
17374TIP3    H173537   4.922   0.758   5.016  0.5322 -0.9299 -0.5180
17374TIP3    H273538   5.070   0.775   4.992  0.3383  0.6982 -0.6977
17375TIP3   OH273539   0.051   2.011  14.524 -0.4431 -0.3219 -0.6256
17375TIP3    H173540   0.098   2.093  14.509  0.2475 -0.5347  0.2369
17375TIP3    H273541  -0.020   2.034  14.584 -0.5531 -0.2586 -0.7819
17376TIP3   OH273542   4.840   4.770   3.600 -0.7002  0.0441  0.2575
17376TIP3    H173543   4.810   4.860   3.613 -0.2754  0.3935 -1.0851
17376TIP3    H273544   4.864   4.765   3.508  0.6946 -1.0169  0.6354
17377TIP3   OH273545   1.269   1.738  16.748 -0.2823  0.3200  0.8716
17377TIP3    H173546   1.293   1.831  16.743  0.9326  0.0735  1.8714
17377TIP3    H273547   1.191   1.737  16.804 -1.1783  0.8544 -0.3004
17378TIP3   OH273548   6.316   6.076  13.043  0.3955  0.7315 -0.2509
17378TIP3    H173549   6.290   6.023  13.119 -0.0285  0.3327 -0.6678
17378TIP3    H273550   6.255   6.051  12.974  1.2311  0.5468 -0.9468
17379TIP3   OH273551   4.605   2.250  11.153 -0.3074  0.0522 -0.0752
17379TIP3    H173552   4.649   2.254  11.068 -0.2917  1.6003 -0.0141
17379TIP3    H273553   4.609   2.339  11.187 -1.4146 -0.2774  1.0015
17380TIP3   OH273554   0.956   0.637   5.456 -0.0825 -0.2198 -0.1772
17380TIP3    H173555   0.871   0.602   5.428 -0.9108  0.9762  0.7241
17380TIP3    H273556   0.985   0.576   5.525  0.6609 -1.6065 -1.6378
17381TIP3   OH273557   2.561   6.109  14.407  0.4515  0.2165  0.2945
17381TIP3    H173558   2.640   6.060  14.384  2.2497  3.2752 -0.6632
17381TIP3    H273559   2.584   6.156  14.487 -1.6157 -1.2138  1.8452
17382TIP3   OH273560   6.728   3.252  16.356  0.6470  0.1216  0.4526
17382TIP3    H173561   6.698   3.241  16.265  1.9204  0.5459 -0.0321
17382TIP3    H273562   6.752   3.345  16.362  0.3910  0.1412  1.2894
17383TIP3   OH273563   4.368   3.020   4.713 -0.2700 -0.2451  0.1349
17383TIP3    H173564   4.440   2.979   4.666 -0.8109 -1.4790  0.3504
17383TIP3    H273565   4.404   3.042   4.799 -0.3666 -1.6837  0.5711
17384TIP3   OH273566   6.678   3.132  16.609  0.1400  0.0035 -0.1197
17384TIP3    H173567   6.711   3.180  16.533  0.2352 -1.9344 -1.3523
17384TIP3    H273568   6.636   3.199  16.663 -1.1252  1.2393 -2.5065
17385TIP3   OH273569   1.573   5.467  17.096  0.4627  0.2423  0.3006
17385TIP3    H173570   1.651   5.454  17.150  0.0597  1.4240  1.2163
17385TIP3    H273571   1.544   5.556  17.117  1.0309  1.3140 -2.8490
17386TIP3   OH273572   3.117   1.464   4.885 -0.1467  0.0977 -0.5116
17386TIP3    H173573   3.210   1.472   4.863  0.3619  0.3339  1.4484
17386TIP3    H273574   3.094   1.374   4.864  0.0069  0.5147 -2.6735
17387TIP3   OH273575   5.621   4.480   2.786 -0.4591 -0.0030  0.6788
17387TIP3    H173576   5.668   4.538   2.846  0.3490 -0.8914  0.9270
17387TIP3    H273577   5.588   4.538   2.718  0.8261  0.6890  0.6092
17388TIP3   OH273578   0.850   3.524  15.219  0.1094  0.3132 -0.0613
17388TIP3    H173579   0.883   3.580  15.289 -1.3004  0.1533  0.7707
17388TIP3    H273580   0.842   3.581  15.143 -0.0203  0.9112  0.4020
17389TIP3   OH273581   3.701   3.562  12.253 -0.8218  0.5780 -0.0647
17389TIP3    H173582   3.627   3.563  12.192 -0.6193 -1.5114 -0.4354
17389TIP3    H273583   3.778   3.559  12.197 -0.5121  1.3967  0.3144
17390TIP3   OH273584   2.950   1.171   4.315 -0.0137  0.1254 -0.0095
17390TIP3    H173585   3.043   1.152   4.327 -0.4383 -2.4278 -0.1704
17390TIP3    H273586   2.912   1.159   4.402 -0.2592  0.9103  0.0018
17391TIP3   OH273587   6.707   0.725  15.605 -0.0581  0.3748  0.4294
17391TIP3    H173588   6.795   0.757  15.590 -0.4004  0.6609 -1.0823
17391TIP3    H273589   6.658   0.749  15.526 -1.8589  1.4853  1.7860
17392TIP3   OH273590   4.082   4.833   4.344 -0.2038 -0.1099 -0.1200
17392TIP3    H173591   4.080   4.874   4.431  0.7730  0.5121 -0.3768
17392TIP3    H273592   4.009   4.874   4.297  0.2746  0.7554 -0.1165
17393TIP3   OH273593   4.026   2.995   3.104 -0.3161  1.0280  0.2688
17393TIP3    H173594   4.021   3.025   3.013  0.2267 -1.1802 -0.5383
17393TIP3    H273595   3.998   3.071   3.155  0.0728  2.5809 -1.6761
17394TIP3   OH273596   5.736   0.251  14.865  0.3875  0.1625  0.1401
17394TIP3    H173597   5.736   0.155  14.871 -0.3734  0.1779  0.4206
17394TIP3    H273598   5.680   0.280  14.937  0.3579  0.8047 -0.1347
17395TIP3   OH273599   4.751   2.941   1.011 -0.3823 -0.3297 -0.3868
17395TIP3    H173600   4.731   2.853   0.978 -0.1988 -0.2861 -0.6180
17395TIP3    H273601   4.671   2.969   1.054 -0.6050 -0.4145 -0.7410
17396TIP3   OH273602   6.091   5.161  16.698 -0.1779 -0.4300 -0.0383
17396TIP3    H173603   6.094   5.238  16.755 -0.3258  0.2106 -0.8820
17396TIP3    H273604   6.183   5.139  16.684 -0.1034  0.1709 -0.5475
17397TIP3   OH273605   1.334   3.313   1.064 -0.0859  0.3002  0.1468
17397TIP3    H173606   1.314   3.394   1.017 -0.7224 -0.2113 -0.4839
17397TIP3    H273607   1.392   3.340   1.135 -1.0137  1.4380  0.4838
17398TIP3   OH273608   1.407   6.686  13.507 -0.1311 -0.4509  0.2269
17398TIP3    H173609   1.315   6.660  13.504 -0.1652 -0.2679 -0.8961
17398TIP3    H273610   1.407   6.779  13.483  0.3539 -0.4932  0.0472
17399TIP3   OH273611   3.571   2.526  14.943  0.3871 -0.6757  0.3357
17399TIP3    H173612   3.534   2.451  14.895 -2.1377  0.9577 -0.5157
17399TIP3    H273613   3.616   2.577  14.876 -0.1156 -0.1809  0.3585
17400TIP3   OH273614   4.204   4.950   0.964 -0.6351  0.2318 -0.2294
17400TIP3    H173615   4.218   4.855   0.971 -1.2166  0.0508 -1.3091
17400TIP3    H273616   4.286   4.983   0.928 -0.8864 -0.0460 -1.0789
17401TIP3   OH273617   3.799   1.225  16.161 -0.3322  0.1443  0.4252
17401TIP3    H173618   3.821   1.254  16.250  0.5801  1.3732 -0.1561
17401TIP3    H273619   3.762   1.138  16.172  0.7466 -0.1673  1.9211
17402TIP3   OH273620   2.593   5.845   3.628  0.5281  0.2079  0.5142
17402TIP3    H173621   2.621   5.798   3.550  0.1777  1.0517 -0.1325
17402TIP3    H273622   2.592   5.779   3.697  0.5131 -0.6175 -0.2650
17403TIP3   OH273623   4.645   1.837   5.868  0.4353 -0.0290  0.3963
17403TIP3    H173624   4.647   1.744   5.892 -0.8623 -0.7963 -2.0808
17403TIP3    H273625   4.699   1.842   5.789  1.1945  1.5383  0.9755
17404TIP3   OH273626   5.646   6.699  16.396 -0.0946  0.2010  0.2008
17404TIP3    H173627   5.634   6.773  16.336  1.0708  1.8167  1.8474
17404TIP3    H273628   5.582   6.714  16.466  1.5136  0.8759  1.6090
17405TIP3   OH273629   2.059   3.981  12.321 -0.0984 -0.9800  0.0488
17405TIP3    H173630   2.009   4.048  12.276  0.6593  1.3570  2.4070
17405TIP3    H273631   2.118   3.946  12.255 -0.5823  0.6322 -1.2951
17406TIP3   OH273632   3.435   2.385   0.971  0.1968  0.2487 -0.1865
17406TIP3    H173633   3.510   2.333   0.940  0.0708 -0.8414  1.2398
17406TIP3    H273634   3.431   2.459   0.910  3.0410  0.9055  0.2447
17407TIP3   OH273635   0.675   5.523  11.626 -0.0663  0.3143 -1.0187
17407TIP3    H173636   0.728   5.602  11.631 -0.3493  0.5250 -1.2880
17407TIP3    H273637   0.705   5.469  11.699 -1.7825  1.8570  0.9757
17408TIP3   OH273638   5.569   1.259  13.528  0.4496  0.4548  0.3966
17408TIP3    H173639   5.524   1.287  13.608  0.3447 -0.4029  0.6459
17408TIP3    H273640   5.593   1.168  13.545  0.3605  0.2442 -0.5800
17409TIP3   OH273641   3.416   4.264   2.036 -0.5033 -0.4401  0.3439
17409TIP3    H173642   3.454   4.294   1.954 -0.9759  0.9264  0.5916
17409TIP3    H273643   3.406   4.344   2.088 -0.8389 -1.1862  1.4676
17410TIP3   OH273644   2.440   6.116   3.421 -0.6506  0.1565 -0.5671
17410TIP3    H173645   2.384   6.160   3.358 -1.6570 -1.5545 -0.9499
17410TIP3    H273646   2.503   6.182   3.449 -1.2147  1.4024 -2.1240
17411TIP3   OH273647   2.972   5.272   4.931 -0.1303 -0.4402  0.6535
17411TIP3    H173648   2.909   5.254   5.001 -0.5547  1.5981  0.8664
17411TIP3    H273649   3.027   5.342   4.967 -0.4435  0.7457 -1.0645
17412TIP3   OH273650   0.613   3.717  14.722  0.0203  0.0059  0.3150
17412TIP3    H173651   0.549   3.778  14.686  0.1195 -0.3289 -0.4479
17412TIP3    H273652   0.690   3.726  14.666 -0.2519 -1.4004 -0.3398
17413TIP3   OH273653   3.496   5.556   1.521  0.2548  0.2088  0.2291
17413TIP3    H173654   3.416   5.506   1.536 -0.1188 -0.0833 -2.2613
17413TIP3    H273655   3.470   5.647   1.530 -0.2694  0.0951 -0.1032
17414TIP3   OH273656   3.133   1.336  15.704  0.1725  0.2055  0.1375
17414TIP3    H173657   3.066   1.361  15.640 -1.4614 -1.6555  0.9921
17414TIP3    H273658   3.100   1.370  15.787  1.0093  0.4822  0.3622
17415TIP3   OH273659   6.122   1.475  13.578  0.7511 -0.2171 -0.0904
17415TIP3    H173660   6.082   1.550  13.532 -2.6156 -1.0077  1.2355
17415TIP3    H273661   6.104   1.400  13.521 -0.7795 -0.7515  1.0332
17416TIP3   OH273662   0.763   1.589  14.468 -0.2610 -0.0513  0.3458
17416TIP3    H173663   0.760   1.543  14.552  1.0496  0.5933  0.7806
17416TIP3    H273664   0.679   1.569  14.427 -1.3425  0.3643  2.2036
17417TIP3   OH273665   3.839   2.912  10.912  0.3568  0.0691 -0.4521
17417TIP3    H173666   3.885   2.995  10.897  1.5876 -0.2888  1.0842
17417TIP3    H273667   3.759   2.937  10.958 -0.2561  0.5540 -1.7324
17418TIP3   OH273668   2.996   0.115  12.191 -0.2122 -0.3872  0.1316
17418TIP3    H173669   3.064   0.132  12.126 -1.8082 -0.2564 -1.5990
17418TIP3    H273670   3.036   0.053  12.252  1.2838 -0.6826 -1.0817
17419TIP3   OH273671   3.071   1.760   4.906  0.8202  0.2632 -0.2803
17419TIP3    H173672   3.096   1.669   4.891  2.0429  0.7684 -1.5146
17419TIP3    H273673   3.027   1.786   4.826  2.5374  1.4036 -0.9110
17420TIP3   OH273674   2.975   5.133   0.048 -0.3841  0.8192 -0.4630
17420TIP3    H173675   3.047   5.173   0.098 -0.2427 -1.6016  1.4562
17420TIP3    H273676   2.898   5.144   0.104 -0.3956 -1.1703 -0.0028
17421TIP3   OH273677   6.757   2.532   0.839  0.3829 -0.3064  0.2107
17421TIP3    H173678   6.773   2.440   0.863  0.9654 -0.0794  0.7155
17421TIP3    H273679   6.837   2.577   0.864  0.7543  0.0766 -1.5097
17422TIP3   OH273680   1.525   1.399  13.464  0.1742 -0.4284 -0.2736
17422TIP3    H173681   1.547   1.381  13.372  1.6236 -0.2730  0.0201
17422TIP3    H273682   1.464   1.330  13.488 -0.7080 -0.1319 -1.5201
17423TIP3   OH273683   3.578   4.686   2.584 -0.0476  0.1884  0.0049
17423TIP3    H173684   3.519   4.635   2.640 -0.1580 -0.1519 -0.4138
17423TIP3    H273685   3.538   4.773   2.580 -0.7152 -0.1287 -0.5421
17424TIP3   OH273686   1.481   0.678  15.419  0.3833  0.1382 -0.3522
17424TIP3    H173687   1.409   0.631  15.460  0.3458  1.1021  0.7510
17424TIP3    H273688   1.465   0.770  15.440  0.3708  0.7017 -2.5618
17425TIP3   OH273689   2.771   6.197   1.785  0.0495 -0.0768 -0.3653
17425TIP3    H173690   2.703   6.262   1.803 -1.1218 -0.6238 -2.4774
17425TIP3    H273691   2.814   6.230   1.706  1.7918 -0.1221  0.5240
17426TIP3   OH273692   2.358   1.964   1.682 -0.0298  0.7386 -0.2288
17426TIP3    H173693   2.329   2.019   1.608 -1.4600 -0.1344 -0.3572
17426TIP3    H273694   2.277   1.944   1.729  0.7904  0.7659  1.2420
17427TIP3   OH273695   0.210   1.686   1.204  0.0450  0.1666  0.1783
17427TIP3    H173696   0.211   1.608   1.260  1.9621  0.6157  0.8174
17427TIP3    H273697   0.126   1.727   1.223 -0.2948 -0.8766  1.0495
17428TIP3   OH273698   1.593   5.555  10.496  0.7658 -0.1264 -0.2676
17428TIP3    H173699   1.615   5.581  10.406  0.7871  0.5435 -0.0740
17428TIP3    H273700   1.628   5.467  10.504 -1.5042 -1.2730 -1.7562
17429TIP3   OH273701   2.642   5.197  12.509 -0.1513  0.2798  0.2609
17429TIP3    H173702   2.583   5.272  12.499 -0.9052 -0.5860 -2.7123
17429TIP3    H273703   2.728   5.237  12.524 -0.5035  1.7799 -1.3838
17430TIP3   OH273704   2.437   2.800   0.875 -0.3089  0.1553 -0.2218
17430TIP3    H173705   2.369   2.859   0.843 -2.0098 -0.5499  1.8956
17430TIP3    H273706   2.403   2.712   0.857  0.0721 -0.2106  0.8028
17431TIP3   OH273707   3.155   5.367  14.122  0.0067 -0.1576  0.6470
17431TIP3    H173708   3.064   5.350  14.097  0.3109 -0.2936 -0.4260
17431TIP3    H273709   3.172   5.455  14.089  0.3944 -0.2996  0.4717
17432TIP3   OH273710   1.827   3.087  16.000  0.3044  0.0611 -0.0198
17432TIP3    H173711   1.858   3.175  16.021  1.2999 -0.5707  1.2898
17432TIP3    H273712   1.827   3.040  16.083 -2.4067 -0.5625 -0.2876
17433TIP3   OH273713   1.255   6.169   5.794  0.7587 -0.0964  0.3497
17433TIP3    H173714   1.315   6.239   5.772 -0.2275  0.4822 -0.6003
17433TIP3    H273715   1.263   6.159   5.889  2.1353  0.1349  0.2778
17434TIP3   OH273716   3.998   5.086  16.388  0.3495 -0.2587 -0.1525
17434TIP3    H173717   3.935   5.082  16.460 -0.9947  1.0091 -1.1971
17434TIP3    H273718   3.986   5.003  16.342  0.6115 -0.7168  0.6005
17435TIP3   OH273719   5.064   2.711  17.228  0.2492 -0.1390  0.0577
17435TIP3    H173720   5.114   2.631  17.243 -2.4955 -1.7299  1.6133
17435TIP3    H273721   5.127   2.772  17.190  2.5896 -2.8587 -0.7770
17436TIP3   OH273722   5.052   4.856   6.077 -0.1373 -0.4435  0.1262
17436TIP3    H173723   5.125   4.825   6.129  0.5245  0.2669 -0.3459
17436TIP3    H273724   5.055   4.952   6.086  0.9713 -0.1602 -2.4219
17437TIP3   OH273725   1.409   2.339   0.341 -0.2098  0.0954 -0.1468
17437TIP3    H173726   1.442   2.261   0.385  1.0524  1.3281  1.2519
17437TIP3    H273727   1.435   2.329   0.250  0.4132 -0.8711  0.1247
17438TIP3   OH273728   2.688   3.885  16.153 -0.0089  0.1854 -0.4766
17438TIP3    H173729   2.669   3.968  16.195 -1.6116  0.1445 -1.0459
17438TIP3    H273730   2.602   3.853  16.122  0.4091 -2.1033  0.5263
17439TIP3   OH273731   1.205   4.334  10.981 -0.4845 -0.0492  0.3541
17439TIP3    H173732   1.177   4.244  10.960 -0.3782 -0.3688  1.5443
17439TIP3    H273733   1.288   4.323  11.028 -1.2053  0.5786  1.8239
17440TIP3   OH273734   2.916   6.677  15.343  0.2981 -0.2501 -0.4861
17440TIP3    H173735   2.949   6.590  15.362  2.6207  0.7098  0.2644
17440TIP3    H273736   2.920   6.724  15.426  0.7129  1.0300 -1.1882
17441TIP3   OH273737   6.074   5.844  11.127  0.0164 -0.0489 -0.0363
17441TIP3    H173738   6.048   5.839  11.035  0.8229 -1.7553 -0.2245
17441TIP3    H273739   6.145   5.908  11.129 -0.8187  0.8976 -0.3817
17442TIP3   OH273740   6.075   5.861  16.502 -0.2243  0.2714  0.4911
17442TIP3    H173741   6.133   5.872  16.426  1.1921  0.7327  1.6126
17442TIP3    H273742   6.030   5.945  16.510  0.3051  0.5358  0.7118
17443TIP3   OH273743   1.606   2.248  16.430  1.0287  0.0089 -0.0912
17443TIP3    H173744   1.584   2.298  16.352  1.0347 -1.9440 -1.4319
17443TIP3    H273745   1.523   2.238  16.477  1.0280  1.2089  0.1753
17444TIP3   OH273746   0.923   0.961   4.726  0.2079 -0.2430 -0.2057
17444TIP3    H173747   1.014   0.975   4.699  0.3928 -0.3213  0.3693
17444TIP3    H273748   0.913   1.012   4.806 -0.6740  0.9004 -1.0174
17445TIP3   OH273749   2.267   0.785   6.258  0.3495 -0.4835  0.4290
17445TIP3    H173750   2.235   0.872   6.236  0.7545 -0.0288  1.5679
17445TIP3    H273751   2.335   0.800   6.324  0.8741 -1.6203  0.1727
17446TIP3   OH273752   3.160   2.110   0.236 -0.2067  0.2092  0.4084
17446TIP3    H173753   3.135   2.172   0.168  0.4651  0.7847  0.6627
17446TIP3    H273754   3.131   2.151   0.318 -0.5141 -0.2100  0.5078
17447TIP3   OH273755   1.876   1.828  16.136  0.5477 -0.3471  0.3496
17447TIP3    H173756   1.892   1.921  16.154  0.0695 -0.0461 -0.7346
17447TIP3    H273757   1.908   1.815  16.047  0.9256 -1.3142  0.6179
17448TIP3   OH273758   3.528   0.757  12.773  0.3845 -0.2041  0.8111
17448TIP3    H173759   3.466   0.684  12.783 -1.8083  1.2848 -0.9221
17448TIP3    H273760   3.527   0.776  12.679 -1.0553  3.5988  1.4522
17449TIP3   OH273761   3.129   2.227  14.464  0.7079  0.0785 -0.0261
17449TIP3    H173762   3.130   2.134  14.488 -0.8169  0.0794  0.1531
17449TIP3    H273763   3.208   2.263  14.502  1.0824 -1.0532  0.3085
17450TIP3   OH273764   1.051   2.364  14.764 -0.3997  0.2380 -0.6150
17450TIP3    H173765   1.103   2.445  14.765  0.6323 -0.4045 -0.5937
17450TIP3    H273766   1.017   2.358  14.675  1.5948 -0.5654 -1.3702
17451TIP3   OH273767   3.610   4.074  12.148 -0.0077 -0.6488 -0.5263
17451TIP3    H173768   3.551   4.037  12.083 -1.7049 -1.3159  1.2848
17451TIP3    H273769   3.693   4.029  12.133 -0.4689 -1.0754 -1.9412
17452TIP3   OH273770   3.463   1.530  10.702 -0.6715  0.2732 -0.2698
17452TIP3    H173771   3.410   1.487  10.768  0.1491  0.2347  0.3833
17452TIP3    H273772   3.418   1.613  10.685 -0.8888  0.2896  0.3593
17453TIP3   OH273773   4.820   1.395  16.268  0.1367  0.1623 -0.0907
17453TIP3    H173774   4.837   1.367  16.178  1.0791  0.2543  0.0472
17453TIP3    H273775   4.766   1.473  16.259 -0.8292 -0.5321 -0.5332
17454TIP3   OH273776   3.003   5.546   5.430 -0.1932  0.0616 -0.0878
17454TIP3    H173777   2.966   5.518   5.346 -2.7019  1.5634  0.4248
17454TIP3    H273778   2.927   5.557   5.487  0.9961  3.2536  1.0809
17455TIP3   OH273779   1.539   0.983   1.717 -0.0123 -0.9246  0.2885
17455TIP3    H173780   1.546   1.015   1.627  2.0026  0.0433  0.7223
17455TIP3    H273781   1.547   0.888   1.709  2.9302 -0.7210 -0.4345
17456TIP3   OH273782   4.949   4.553  12.014  0.3480  0.0686  0.3089
17456TIP3    H173783   5.017   4.619  12.002  0.3449 -0.2465 -1.6375
17456TIP3    H273784   4.982   4.476  11.969  0.3497 -1.3307  2.5560
17457TIP3   OH273785   0.108   3.172   4.591 -0.6260  0.0080 -0.6090
17457TIP3    H173786   0.092   3.080   4.614 -0.2614 -0.1074 -0.8150
17457TIP3    H273787   0.199   3.174   4.562 -0.3353  0.6158  0.2976
17458TIP3   OH273788   2.176   0.346  13.426  0.2842 -0.5320  0.6463
17458TIP3    H173789   2.236   0.295  13.481  0.0382 -0.6524  0.8084
17458TIP3    H273790   2.134   0.406  13.487  0.9891  0.2666  0.3600
17459TIP3   OH273791   6.280   1.404  12.895 -0.3418 -0.4255  0.5913
17459TIP3    H173792   6.372   1.429  12.894 -0.6485  0.7879 -0.3739
17459TIP3    H273793   6.268   1.354  12.814 -0.8037  0.5763  0.0216
17460TIP3   OH273794   0.019   6.223  15.095 -0.0004 -0.0585  0.2172
17460TIP3    H173795   0.097   6.264  15.058 -1.0103  1.5810 -0.2146
17460TIP3    H273796   0.050   6.179  15.174  1.3454  0.6342  0.1065
17461TIP3   OH273797   3.898   2.375   1.550  0.8294  0.1236  0.4720
17461TIP3    H173798   3.866   2.442   1.610 -0.7829  1.4544 -1.7091
17461TIP3    H273799   3.974   2.337   1.594  0.2288  1.5560  2.9348
17462TIP3   OH273800   4.130   4.478   0.492  0.3464 -0.0780  0.0689
17462TIP3    H173801   4.110   4.543   0.560  3.0095  1.0690 -0.1383
17462TIP3    H273802   4.114   4.523   0.410  2.6447  0.5401 -0.0820
17463TIP3   OH273803   5.107   3.968   0.015 -0.2559 -0.2629 -0.7555
17463TIP3    H173804   5.131   4.042  -0.041 -0.4029  0.1281 -0.3110
17463TIP3    H273805   5.067   3.904  -0.044 -0.8438  0.3423 -1.0239
17464TIP3   OH273806   5.198   3.361   1.497 -0.0011 -0.3155 -0.0044
17464TIP3    H173807   5.185   3.284   1.441 -0.7528 -1.3758  1.5807
17464TIP3    H273808   5.278   3.343   1.545  0.3956  0.3888 -0.3823
17465TIP3   OH273809   4.020   4.133   6.622  0.1938 -0.2323  0.0936
17465TIP3    H173810   4.101   4.082   6.616 -0.2313 -0.7849 -1.4822
17465TIP3    H273811   4.047   4.223   6.602  0.5242 -0.2981  0.2398
17466TIP3   OH273812   0.893   5.920   3.288  0.5823  0.7403 -0.1233
17466TIP3    H173813   0.856   5.880   3.209  1.1057 -0.0031 -0.0006
17466TIP3    H273814   0.943   5.850   3.329  0.4668  1.1753  0.7785
17467TIP3   OH273815   3.470   3.692   5.010  0.0261 -0.2476  1.3849
17467TIP3    H173816   3.488   3.649   4.926 -0.9961 -0.3325  1.1938
17467TIP3    H273817   3.522   3.643   5.073  1.4363  0.3193  0.7038
17468TIP3   OH273818   3.449   1.955  12.380  0.8737 -0.1480  0.0604
17468TIP3    H173819   3.357   1.979  12.396  0.3887 -1.3727 -0.8015
17468TIP3    H273820   3.463   1.973  12.287  1.2903 -0.6428  0.0245
17469TIP3   OH273821   1.900   4.653  14.839 -0.5516 -0.4177 -0.0296
17469TIP3    H173822   1.854   4.736  14.850  0.1979 -0.0935  0.7823
17469TIP3    H273823   1.834   4.594  14.803 -1.5908  0.0353  1.0479
17470TIP3   OH273824   1.636   4.242   1.173 -0.5890 -0.2532 -0.1516
17470TIP3    H173825   1.658   4.184   1.100 -1.6395 -0.9076  0.0465
17470TIP3    H273826   1.682   4.204   1.248 -0.4406 -0.2352 -0.2324
17471TIP3   OH273827   4.680   3.295   1.454  0.4588 -0.0715 -0.5026
17471TIP3    H173828   4.589   3.323   1.444  0.2303 -0.0980  1.2712
17471TIP3    H273829   4.730   3.355   1.398 -0.1277  3.2344  2.2078
17472TIP3   OH273830   5.084   2.114  15.612  0.2923  0.6029  0.3722
17472TIP3    H173831   5.083   2.121  15.517  0.9389  0.3075  0.3394
17472TIP3    H273832   4.997   2.142  15.639  0.0952  0.6613 -0.3084
17473TIP3   OH273833   4.884   5.689   0.279  0.3122 -0.2397  0.3946
17473TIP3    H173834   4.973   5.708   0.248  0.3720 -1.5612 -0.3118
17473TIP3    H273835   4.873   5.746   0.355  1.1137  1.2262 -0.5264
17474TIP3   OH273836   2.601   0.150  16.487 -0.3638 -0.3064 -0.1579
17474TIP3    H173837   2.537   0.191  16.430 -1.2905 -0.0851  0.9984
17474TIP3    H273838   2.680   0.142  16.433 -0.8220  0.9971 -1.0757
17475TIP3   OH273839   4.435   5.820   2.973 -0.2622 -0.0311 -0.3672
17475TIP3    H173840   4.382   5.792   2.898 -1.6002  0.2316  0.4400
17475TIP3    H273841   4.491   5.889   2.938  0.6699 -1.3457 -1.5963
17476TIP3   OH273842   6.263   4.917   2.156  0.3825  0.1310 -0.2176
17476TIP3    H173843   6.308   4.955   2.081  0.3190 -0.7428 -0.7049
17476TIP3    H273844   6.259   4.824   2.137  0.7428 -0.1664  1.0691
17477TIP3   OH273845   2.237   4.377   1.096 -0.1614  0.2370  0.6693
17477TIP3    H173846   2.149   4.415   1.097 -1.0505 -1.6496 -0.4908
17477TIP3    H273847   2.295   4.452   1.087 -1.7216  1.4674  0.4258
17478TIP3   OH273848   0.224   5.073   3.779  0.0117  0.0729  0.6167
17478TIP3    H173849   0.285   5.135   3.819  0.6572  0.7387 -1.2889
17478TIP3    H273850   0.277   4.998   3.754  0.7346  1.6129 -3.2169
17479TIP3   OH273851   2.932   6.632  14.356  0.2399  0.5382 -0.4383
17479TIP3    H173852   2.863   6.632  14.289 -0.4516  0.0363  0.2625
17479TIP3    H273853   2.956   6.725  14.365  0.6283  0.5831 -1.6451
17480TIP3   OH273854   2.066   4.454   0.540  0.9235 -0.1968  0.4234
17480TIP3    H173855   2.106   4.415   0.462 -0.3277  0.2694 -0.4756
17480TIP3    H273856   2.137   4.455   0.605  0.9701 -4.2596  0.6635
17481TIP3   OH273857   5.333   4.141   1.293 -0.1526  0.4078 -0.1215
17481TIP3    H173858   5.424   4.112   1.296 -0.4308 -0.6778 -1.2681
17481TIP3    H273859   5.316   4.158   1.200 -0.3200  3.3914  0.3742
17482TIP3   OH273860   2.045   0.663   0.054  0.2979 -0.3241 -0.5014
17482TIP3    H173861   2.049   0.743   0.002  0.8104 -0.1458 -0.1971
17482TIP3    H273862   2.026   0.594  -0.009  0.7896 -0.0942 -0.9100
17483TIP3   OH273863   0.243   5.338   6.341 -0.1205 -0.5328  1.0992
17483TIP3    H173864   0.254   5.278   6.414 -0.0875 -1.0043  0.7129
17483TIP3    H273865   0.322   5.328   6.288 -0.0620 -0.0618  1.0886
17484TIP3   OH273866   4.902   6.452   4.593 -0.1111 -0.1410  0.0724
17484TIP3    H173867   4.883   6.364   4.626 -1.1373 -0.6547 -1.7436
17484TIP3    H273868   4.815   6.493   4.584  0.3163  0.8467  0.2993
17485TIP3   OH273869   2.761   5.414   0.042 -0.1613  0.1119  0.1041
17485TIP3    H173870   2.721   5.328   0.056 -0.1088 -0.0978 -0.9710
17485TIP3    H273871   2.764   5.425  -0.053 -0.0684  1.2618  0.2166
17486TIP3   OH273872   0.901   6.306   3.979  0.0487 -0.0869 -0.1269
17486TIP3    H173873   0.812   6.333   3.957 -0.1892 -0.1206  0.7690
17486TIP3    H273874   0.937   6.379   4.028 -0.2232 -0.9232  1.3557
17487TIP3   OH273875   5.559   3.162   0.190  0.6060 -0.3696 -0.2820
17487TIP3    H173876   5.533   3.226   0.123  1.1090 -0.2064 -0.3200
17487TIP3    H273877   5.476   3.135   0.230  0.3200 -0.2881 -0.8045
17488TIP3   OH273878   2.944   5.773   0.768  0.4898  0.1298  0.0633
17488TIP3    H173879   2.986   5.743   0.849 -0.2233 -0.3389  0.2666
17488TIP3    H273880   2.975   5.712   0.701 -0.5213 -0.7540  0.3729
17489TIP3   OH273881   2.454   2.328  15.598  0.9212 -0.2201  0.3700
17489TIP3    H173882   2.511   2.357  15.527  1.8054 -0.4228  0.9795
17489TIP3    H273883   2.478   2.236  15.612 -0.6424 -0.7667 -0.3916
17490TIP3   OH273884   5.620   2.526   0.081 -0.0322  0.1955  0.0363
17490TIP3    H173885   5.609   2.490   0.169  1.1260 -0.0741  0.0860
17490TIP3    H273886   5.572   2.609   0.083  0.6513  0.5763  1.1708
17491TIP3   OH273887   2.108   2.983   6.181  0.2318 -0.3146  0.1591
17491TIP3    H173888   2.097   2.980   6.276 -0.4733  0.8480  0.1268
17491TIP3    H273889   2.094   3.074   6.158 -2.8317 -1.0587 -1.4033
17492TIP3   OH273890   6.767   6.756   4.489  0.1528  0.1305  0.5448
17492TIP3    H173891   6.717   6.824   4.533  0.9221 -0.2298  2.0161
17492TIP3    H273892   6.767   6.682   4.550  1.5140 -0.2726  0.1018
17493TIP3   OH273893   4.247   6.246  11.668 -0.0193 -1.2726  0.1521
17493TIP3    H173894   4.291   6.260  11.752 -0.1729  1.2046 -0.1121
17493TIP3    H273895   4.173   6.190  11.689  0.9160 -2.1375  1.3287
17494TIP3   OH273896   6.287   2.454   5.183  0.3012 -0.1606 -0.5093
17494TIP3    H173897   6.331   2.538   5.190 -0.8066  0.4435 -0.5122
17494TIP3    H273898   6.319   2.403   5.257  0.7466  0.3698 -0.3349
17495TIP3   OH273899   5.938   5.226   0.297 -0.3911 -0.2984  0.7026
17495TIP3    H173900   5.867   5.161   0.300 -0.7652  0.1196  1.3354
17495TIP3    H273901   5.921   5.276   0.217  0.3568 -1.4601 -0.2144
17496TIP3   OH273902   5.872   5.542  17.052 -0.0725 -0.0886  0.2240
17496TIP3    H173903   5.908   5.494  17.126 -0.9356 -0.3554  0.4810
17496TIP3    H273904   5.791   5.581  17.086  2.1160  4.3997  1.0939
17497TIP3   OH273905   3.967   0.396   1.119  0.0603  0.4167  0.2332
17497TIP3    H173906   3.888   0.371   1.167 -0.1327  0.0503 -0.2636
17497TIP3    H273907   3.991   0.317   1.070  1.2594  0.2366  1.0753
17498TIP3   OH273908   2.693   4.326   2.714 -0.1760 -0.0455  0.1263
17498TIP3    H173909   2.647   4.313   2.796  1.9852 -1.7048  1.1655
17498TIP3    H273910   2.629   4.370   2.657 -2.1873 -0.1403  2.1887
17499TIP3   OH273911   1.579   2.865  13.578  0.2608 -0.7353  0.0241
17499TIP3    H173912   1.630   2.934  13.535  0.0656 -0.6097 -0.0072
17499TIP3    H273913   1.630   2.785  13.562  0.3889 -0.6299 -0.1071
17500TIP3   OH273914   4.109   1.696  13.025 -0.1646 -0.1996  0.6894
17500TIP3    H173915   4.036   1.729  12.972 -0.4429 -1.0825  0.4989
17500TIP3    H273916   4.078   1.702  13.115 -0.4617 -0.5060  0.6143
17501TIP3   OH273917   2.413   3.411  15.701  0.2214  0.2130 -0.0123
17501TIP3    H173918   2.435   3.504  15.700 -1.4664  0.6500 -0.1416
17501TIP3    H273919   2.493   3.368  15.730  0.3218  1.9186  2.5958
17502TIP3   OH273920   4.794   3.689  13.133  0.0848  0.0487  0.3982
17502TIP3    H173921   4.800   3.724  13.044 -0.4332  1.2538  0.8086
17502TIP3    H273922   4.707   3.651  13.139  0.3975 -0.7170  0.1643
17503TIP3   OH273923   3.280   6.018   4.033  0.5185 -0.3646  0.1054
17503TIP3    H173924   3.350   6.077   4.006  0.3112  0.3025  0.9682
17503TIP3    H273925   3.253   6.050   4.119  0.7256 -1.9961  0.8264
17504TIP3   OH273926   2.768   2.710   0.501  0.5788  0.3826 -0.2369
17504TIP3    H173927   2.768   2.804   0.520  0.4762  1.5368 -4.7384
17504TIP3    H273928   2.837   2.698   0.436  0.3846 -2.6562 -0.0532
17505TIP3   OH273929   5.851   6.252   3.789 -0.3125  0.9517 -0.1815
17505TIP3    H173930   5.899   6.297   3.720 -0.8033  0.4436 -0.8739
17505TIP3    H273931   5.918   6.212   3.844  0.0833  1.3864 -0.3454
17506TIP3   OH273932   5.682   1.577   4.682  0.0125 -0.1478  0.4084
17506TIP3    H173933   5.628   1.499   4.690  0.9230 -0.7269  1.0350
17506TIP3    H273934   5.769   1.545   4.660  0.4398  0.6793  0.8353
17507TIP3   OH273935   5.298   6.550   4.173  0.3254 -0.7308 -0.8507
17507TIP3    H173936   5.248   6.550   4.091  0.0990  0.0751 -0.7180
17507TIP3    H273937   5.232   6.534   4.241  0.1621  0.7610 -0.6349
17508TIP3   OH273938   1.144   2.051   2.529 -0.3328 -0.5143 -0.5949
17508TIP3    H173939   1.170   2.001   2.606  0.6786  2.8231  1.4314
17508TIP3    H273940   1.049   2.038   2.524 -0.9141  1.0809  2.9057
17509TIP3   OH273941   6.294   3.064   6.312  0.4670 -0.3764  0.6020
17509TIP3    H173942   6.216   3.116   6.325 -0.0791 -0.8264 -0.7147
17509TIP3    H273943   6.339   3.105   6.238  0.5809 -1.1406  0.2406
17510TIP3   OH273944   3.365   0.047  11.466 -0.0500 -0.2195  0.1852
17510TIP3    H173945   3.386   0.038  11.373 -1.2938  0.5496 -0.1899
17510TIP3    H273946   3.353  -0.043  11.496 -0.1319 -0.4537 -0.5236
17511TIP3   OH273947   2.858   0.110   1.035  0.7887  0.3689 -0.1885
17511TIP3    H173948   2.843   0.174   1.105 -0.2484  0.7673 -0.7527
17511TIP3    H273949   2.934   0.143   0.988  0.8809  0.6353  0.1398
17512TIP3   OH273950   4.911   4.160  11.122  0.1112  0.0709 -0.5509
17512TIP3    H173951   5.001   4.183  11.145  0.2624 -0.1930 -0.8603
17512TIP3    H273952   4.908   4.167  11.026  0.7535 -3.0496 -0.9233
17513TIP3   OH273953   1.788   5.038  13.232 -0.4341  0.3960 -0.0441
17513TIP3    H173954   1.788   5.129  13.202  1.1498  0.3743 -0.1693
17513TIP3    H273955   1.875   5.005  13.209 -0.1339 -0.4477  2.1280
17514TIP3   OH273956   5.999   6.029   3.512 -0.2009 -0.1611  0.2986
17514TIP3    H173957   5.928   6.090   3.532 -0.7287 -0.7835  0.3842
17514TIP3    H273958   6.067   6.082   3.471 -0.8349  0.3997 -0.0337
17515TIP3   OH273959   5.932   3.174  12.207  0.4677 -0.4392 -0.1713
17515TIP3    H173960   5.973   3.089  12.189  0.1650 -0.3769 -1.2428
17515TIP3    H273961   6.006   3.230  12.231  0.5800 -1.1777  1.3213
17516TIP3   OH273962   4.506   1.212  14.963  0.5788  0.0215  0.3849
17516TIP3    H173963   4.552   1.172  15.037  1.1183  0.2525  0.1805
17516TIP3    H273964   4.430   1.155  14.948 -0.0471  0.4635  1.6900
17517TIP3   OH273965   5.119   2.788  16.454  0.3753  0.8557  0.4278
17517TIP3    H173966   5.151   2.736  16.528  1.1796 -0.5871 -0.8876
17517TIP3    H273967   5.196   2.838  16.425  0.1882  1.0354  0.2406
17518TIP3   OH273968   5.355   0.805   4.098  1.2445 -0.0035 -0.2408
17518TIP3    H173969   5.379   0.898   4.100  3.3522 -0.4834  0.4393
17518TIP3    H273970   5.440   0.759   4.099  0.2844 -1.9320  1.6675
17519TIP3   OH273971   0.562   4.661   5.716 -0.0394  0.2998  0.0965
17519TIP3    H173972   0.618   4.730   5.681 -0.7337  0.0411 -1.6115
17519TIP3    H273973   0.511   4.631   5.641 -0.7368 -1.1310  1.0984
17520TIP3   OH273974   6.108   5.924  13.211  0.4467  0.2584 -0.0387
17520TIP3    H173975   6.023   5.883  13.229  0.3555  0.2168 -0.5661
17520TIP3    H273976   6.172   5.854  13.226  0.5241  0.6973  1.8951
17521TIP3   OH273977   4.402   1.036  15.878 -0.2504  0.3412  0.2107
17521TIP3    H173978   4.459   1.058  15.805  1.2496  0.2570  1.2985
17521TIP3    H273979   4.367   1.120  15.908  1.6510  0.8105  1.3308
17522TIP3   OH273980   0.807   0.153  10.936  0.6589 -0.4352  0.2312
17522TIP3    H173981   0.792   0.229  10.992 -1.6153  0.4477 -1.4293
17522TIP3    H273982   0.739   0.090  10.961 -0.5602  0.0803 -1.6363
17523TIP3   OH273983   3.127   5.916   1.389 -0.6531 -0.1144  0.2554
17523TIP3    H173984   3.133   5.885   1.480 -1.9173  0.9036  0.7164
17523TIP3    H273985   3.049   5.874   1.355 -0.1829 -0.4900 -0.3908
17524TIP3   OH273986   1.574   0.033  12.838 -0.5704 -0.4150  0.1299
17524TIP3    H173987   1.638   0.006  12.904 -0.2065  1.2966  0.5191
17524TIP3    H273988   1.622   0.091  12.779 -1.2586 -0.7622 -0.8067
17525TIP3   OH273989   2.141   4.988   2.856  0.3884  0.4722 -0.2679
17525TIP3    H173990   2.091   4.991   2.937 -1.4895 -2.0272 -1.2103
17525TIP3    H273991   2.224   4.948   2.880 -0.8665 -2.0617  0.2267
17526TIP3   OH273992   0.476   4.194   5.737  0.5977 -0.2837  0.3451
17526TIP3    H173993   0.455   4.143   5.659  0.4802 -1.3557  1.0534
17526TIP3    H273994   0.393   4.203   5.783  0.8080 -0.3733  0.7495
17527TIP3   OH273995   4.696   2.687  13.964  0.1608 -0.1296  0.1719
17527TIP3    H173996   4.720   2.763  13.910  2.2317 -0.7394  0.1609
17527TIP3    H273997   4.623   2.647  13.917  0.4153  0.6756 -0.9529
17528TIP3   OH273998   1.275   6.363   2.309  0.2000  0.6170 -0.4277
17528TIP3    H173999   1.211   6.404   2.368 -0.6465  0.0034 -0.9062
17528TIP3    H274000   1.311   6.291   2.360  0.4461  0.9010 -0.1937
17529TIP3   OH274001   6.255   3.988  11.175  0.4178 -0.0534  0.1107
17529TIP3    H174002   6.166   4.022  11.165  0.0520 -0.6739  1.1640
17529TIP3    H274003   6.258   3.912  11.117  1.0459  1.3374 -1.7770
17530TIP3   OH274004   1.172   5.272  12.586  0.0896 -0.0976  0.0346
17530TIP3    H174005   1.259   5.275  12.547  0.0939  0.1726  0.0610
17530TIP3    H274006   1.153   5.179  12.596  1.4393 -0.1946  2.4338
17531TIP3   OH274007   2.250   4.099   2.522  0.1472  0.7052  0.3600
17531TIP3    H174008   2.329   4.084   2.573 -0.0366  1.5927  0.9245
17531TIP3    H274009   2.253   4.033   2.453  2.0741  1.5707 -0.4543
17532TIP3   OH274010   1.089   1.169   5.589 -0.0334 -0.9687  0.3100
17532TIP3    H174011   1.006   1.134   5.556 -0.2318 -1.1304  0.9737
17532TIP3    H274012   1.070   1.196   5.679  0.4834 -0.4587  0.2728
17533TIP3   OH274013   0.565   4.687  11.333 -0.0781 -0.1576 -0.2051
17533TIP3    H174014   0.651   4.657  11.364  0.2346  0.1521 -0.7596
17533TIP3    H274015   0.507   4.675  11.408  0.4996 -0.1501  0.2500
17534TIP3   OH274016   2.268   4.674  17.178  0.1307 -0.5175  0.1248
17534TIP3    H174017   2.280   4.592  17.226  0.2979  0.6393  2.1848
17534TIP3    H274018   2.219   4.730  17.239  0.8634  1.2380 -0.8359
17535TIP3   OH274019   4.857   6.576  11.420  0.3024 -0.3741 -1.1107
17535TIP3    H174020   4.907   6.656  11.405 -0.7578  0.7809  1.1673
17535TIP3    H274021   4.830   6.580  11.511 -1.6303 -2.2881 -1.5037
17536TIP3   OH274022   0.183   4.544   2.156  0.3551  0.0108  0.9137
17536TIP3    H174023   0.208   4.457   2.125  0.1691  0.1561  0.3461
17536TIP3    H274024   0.249   4.566   2.222  0.3732 -0.5797  1.0982
17537TIP3   OH274025   5.886   5.352   5.169 -0.3056 -0.1175  0.2454
17537TIP3    H174026   5.914   5.294   5.098  0.0083 -1.1083  1.1497
17537TIP3    H274027   5.810   5.308   5.208 -0.3839  0.3370  0.6196
17538TIP3   OH274028   6.685   5.714  12.143  0.2140 -0.4133  0.5555
17538TIP3    H174029   6.645   5.744  12.061 -1.5636 -2.4007  0.6327
17538TIP3    H274030   6.669   5.786  12.205 -1.9170 -0.4706  0.1480
17539TIP3   OH274031   2.985   5.632  16.614  0.4341  0.0621  0.4471
17539TIP3    H174032   3.015   5.688  16.543  2.1967 -1.2225  0.1128
17539TIP3    H274033   2.894   5.658  16.628  1.0660  2.7141  0.0834
17540TIP3   OH274034   0.212   5.530   0.294  0.0683 -0.2871  0.0481
17540TIP3    H174035   0.128   5.494   0.266  0.2954 -0.9039  0.1457
17540TIP3    H274036   0.222   5.500   0.384  0.3591 -0.1464  0.0631
17541TIP3   OH274037   2.661   3.804  14.002 -0.6394 -0.2783 -0.2790
17541TIP3    H174038   2.719   3.792  13.927  0.2687  0.2606  0.3162
17541TIP3    H274039   2.681   3.730  14.060  1.1226  1.0941  0.9575
17542TIP3   OH274040   1.830   1.500   1.427 -0.5086 -0.1597 -0.0453
17542TIP3    H174041   1.922   1.488   1.407 -1.4390 -1.0980 -5.0001
17542TIP3    H274042   1.812   1.439   1.499  2.0855 -2.3747 -1.1260
17543TIP3   OH274043   2.805   2.494   4.782  0.2632 -0.1701 -0.3804
17543TIP3    H174044   2.816   2.399   4.790 -1.0799 -0.4557 -1.5536
17543TIP3    H274045   2.713   2.509   4.801  0.6457  1.0353  0.6650
17544TIP3   OH274046   6.038   5.810   1.633 -0.0349  0.4871  0.1261
17544TIP3    H174047   5.956   5.821   1.682  0.8133  0.9265  1.5221
17544TIP3    H274048   6.099   5.870   1.676  0.5103  1.6666 -2.1434
17545TIP3   OH274049   1.347   5.752   4.636 -0.0662  0.4683  0.2390
17545TIP3    H174050   1.264   5.720   4.670 -0.1225  0.9417  0.5671
17545TIP3    H274051   1.332   5.846   4.620  0.1113  0.3585 -0.6253
17546TIP3   OH274052   1.156   6.404   3.608 -0.1706 -0.0408 -0.4514
17546TIP3    H174053   1.210   6.475   3.575 -1.2755  1.2211  0.3725
17546TIP3    H274054   1.219   6.335   3.632  1.1339  1.5019  0.8202
17547TIP3   OH274055   6.274   0.154  13.259  0.2658 -0.6424 -0.5170
17547TIP3    H174056   6.258   0.069  13.299  0.2599  0.4752  2.0832
17547TIP3    H274057   6.194   0.205  13.278  1.7130  1.0683  1.4097
17548TIP3   OH274058   3.933   6.207   0.341 -0.1212 -0.2451 -0.0824
17548TIP3    H174059   3.851   6.208   0.292 -0.7381 -1.0871  0.8934
17548TIP3    H274060   3.949   6.299   0.363 -0.8919 -0.0947 -0.1259
17549TIP3   OH274061   3.150   3.439   0.061  0.7084  0.3690  0.7786
17549TIP3    H174062   3.226   3.482   0.021 -0.2480 -0.9984 -2.8888
17549TIP3    H274063   3.183   3.354   0.089  0.4665 -0.6252 -1.7059
17550TIP3   OH274064   5.408   2.244   2.698  0.1243  0.1833 -1.3347
17550TIP3    H174065   5.490   2.281   2.730  0.1071 -0.5390 -0.4302
17550TIP3    H274066   5.429   2.152   2.681 -0.5354 -0.0313 -0.9911
17551TIP3   OH274067   5.923   6.577  13.438  0.6999 -0.1357 -0.2676
17551TIP3    H174068   5.970   6.512  13.386 -0.2137 -0.7302 -0.3693
17551TIP3    H274069   5.866   6.621  13.375  0.4427 -0.0587  0.0176
17552TIP3   OH274070   4.425   4.272   1.775  0.1467  0.6682  0.2609
17552TIP3    H174071   4.356   4.334   1.799 -1.3847 -0.7252 -0.3484
17552TIP3    H274072   4.431   4.280   1.680 -0.6029 -0.6122  0.0876
17553TIP3   OH274073   1.357   5.497  14.415 -0.3977 -0.4607  0.2479
17553TIP3    H174074   1.289   5.561  14.435 -1.7815 -0.8340 -2.7293
17553TIP3    H274075   1.346   5.478  14.322  3.5663 -0.8742 -0.3095
17554TIP3   OH274076   0.326   6.615  12.268 -0.0563  0.7495  0.3076
17554TIP3    H174077   0.337   6.521  12.281  1.8402  0.9135  0.0885
17554TIP3    H274078   0.344   6.653  12.354 -1.7910  0.8799  0.6489
17555TIP3   OH274079   0.639   2.909  13.167  0.7085 -0.3603  0.2965
17555TIP3    H174080   0.697   2.958  13.225 -0.2207 -1.1642  1.9992
17555TIP3    H274081   0.698   2.858  13.112  1.6413  1.1925 -0.2103
17556TIP3   OH274082   1.482   6.135  14.591  0.1455  0.4507  0.0210
17556TIP3    H174083   1.525   6.082  14.658  2.6115  0.8951 -1.0745
17556TIP3    H274084   1.500   6.226  14.616 -0.3927  0.6660 -0.3458
17557TIP3   OH274085   0.984   3.042  11.875 -0.8214  0.2196  0.0264
17557TIP3    H174086   0.992   2.951  11.844 -0.9841  0.2698 -0.1670
17557TIP3    H274087   0.990   3.035  11.970 -1.3041 -0.0483  0.0399
17558TIP3   OH274088   6.288   0.937   2.140 -0.1354  0.1079  0.4523
17558TIP3    H174089   6.361   0.955   2.080 -0.3153 -1.3406 -0.2470
17558TIP3    H274090   6.318   0.863   2.193 -1.0495 -0.4695  0.1910
17559TIP3   OH274091   5.577   3.152   6.302  0.2646 -0.1198  0.6612
17559TIP3    H174092   5.534   3.230   6.336  0.2837 -0.2848  1.0767
17559TIP3    H274093   5.525   3.079   6.337 -1.4091 -0.2931 -1.9052
17560TIP3   OH274094   3.826   0.012  13.732  0.0111 -0.3351 -0.3596
17560TIP3    H174095   3.868   0.012  13.818  0.5858 -0.9169 -0.6299
17560TIP3    H274096   3.733   0.003  13.751  0.0929 -0.0412  0.2137
17561TIP3   OH274097   5.547   5.478   1.312  0.4954 -0.1747  0.0549
17561TIP3    H174098   5.617   5.543   1.314  0.0919  0.2642 -0.1937
17561TIP3    H274099   5.514   5.481   1.222  1.9080 -2.2516 -0.6149
17562TIP3   OH274100   2.714   5.679  13.296  0.3162 -0.2581  0.3267
17562TIP3    H174101   2.648   5.671  13.364  0.6066 -2.0054  0.4632
17562TIP3    H274102   2.731   5.772  13.289 -2.4088  0.3065  0.0272
17563TIP3   OH274103   4.024   1.604   4.854 -0.3000 -0.4117 -0.2618
17563TIP3    H174104   4.060   1.523   4.819  0.8617  0.2675 -0.6839
17563TIP3    H274105   4.010   1.659   4.777  1.7483  0.8860  0.2301
17564TIP3   OH274106   1.225   1.871  12.256 -0.4409 -0.1427  0.3226
17564TIP3    H174107   1.161   1.891  12.323 -0.8661  5.5292 -1.2595
17564TIP3    H274108   1.175   1.826  12.187 -0.2927 -4.6304  2.7676
17565TIP3   OH274109   4.711   4.621   3.040  0.0527  0.2015 -0.5713
17565TIP3    H174110   4.692   4.551   3.102 -1.2903 -0.0156 -1.2069
17565TIP3    H274111   4.645   4.688   3.059  1.2909  1.3172  0.0115
17566TIP3   OH274112   1.355   2.435  15.219  0.0222 -0.5514  0.0092
17566TIP3    H174113   1.425   2.378  15.251  0.7792  0.9477  1.1542
17566TIP3    H274114   1.347   2.413  15.126  1.5591 -1.2249  0.0057
17567TIP3   OH274115   0.482   0.772   3.263  0.6001 -0.1628  0.2108
17567TIP3    H174116   0.542   0.795   3.334  0.8474 -0.0141 -0.0438
17567TIP3    H274117   0.414   0.839   3.266  0.5512 -0.2193  0.3751
17568TIP3   OH274118   1.632   5.387   2.364  0.1729  0.3303 -0.4268
17568TIP3    H174119   1.598   5.451   2.426  2.3285 -0.1402  1.3736
17568TIP3    H274120   1.629   5.303   2.410 -0.8000 -0.5809 -2.0368
17569TIP3   OH274121   3.329   0.586  13.260 -0.1185  0.8723  0.0351
17569TIP3    H174122   3.383   0.629  13.326  0.6469  0.2286 -0.1535
17569TIP3    H274123   3.382   0.592  13.180 -0.7206  1.0118 -0.3541
17570TIP3   OH274124   3.476   0.912   0.854  0.2919  0.1726 -0.2372
17570TIP3    H174125   3.389   0.952   0.858  1.1318  2.1713 -0.7012
17570TIP3    H274126   3.536   0.986   0.851  1.9548 -1.1469 -1.4991
17571TIP3   OH274127   2.728   1.660   5.890  0.3502 -1.0451 -0.5887
17571TIP3    H174128   2.697   1.570   5.888 -1.5092 -0.4423 -0.8049
17571TIP3    H274129   2.650   1.713   5.875  1.3549  0.6191 -0.2522
17572TIP3   OH274130   2.991   3.607   0.793 -0.4028  0.1614 -0.0479
17572TIP3    H174131   3.062   3.666   0.818 -0.9240  0.6855  0.2013
17572TIP3    H274132   2.971   3.558   0.872 -0.0045 -0.3227 -0.2413
17573TIP3   OH274133   1.998   0.029   5.314 -0.2945  1.1863 -0.4483
17573TIP3    H174134   2.005  -0.047   5.372  0.6598  0.9935 -0.7889
17573TIP3    H274135   1.979   0.102   5.372  2.3898  1.3263  0.4298
17574TIP3   OH274136   1.660   2.156   3.406  0.3203  0.1862  0.1096
17574TIP3    H174137   1.749   2.193   3.400  0.1434  0.5421 -0.4793
17574TIP3    H274138   1.618   2.206   3.476  0.9433 -0.7689  1.1791
17575TIP3   OH274139   3.251   3.414  11.668  0.3944 -0.1827 -0.0952
17575TIP3    H174140   3.326   3.472  11.680 -0.4916  1.1498 -0.7850
17575TIP3    H274141   3.175   3.471  11.673 -0.5781 -1.4624  0.3062
17576TIP3   OH274142   3.673   3.252  12.693 -0.1326 -0.0704 -1.0201
17576TIP3    H174143   3.661   3.303  12.614 -2.1119  0.1295 -0.6459
17576TIP3    H274144   3.600   3.190  12.693  0.3306 -0.6535  0.2004
17577TIP3   OH274145   5.384   1.883   4.714 -0.0990 -0.4918  0.4090
17577TIP3    H174146   5.347   1.957   4.665  0.9257  0.6115  1.2176
17577TIP3    H274147   5.321   1.866   4.783 -0.7793 -0.9942 -0.3153
17578TIP3   OH274148   5.926   0.559   1.226 -0.1832  0.1369  0.4203
17578TIP3    H174149   5.838   0.521   1.235  0.1715 -0.6374  0.7067
17578TIP3    H274150   5.976   0.493   1.178  0.2948  0.4893  0.4252
17579TIP3   OH274151   4.440   5.806  16.964 -0.4554 -0.3423 -0.0038
17579TIP3    H174152   4.362   5.828  16.915 -0.2246  0.0828 -0.1807
17579TIP3    H274153   4.500   5.879  16.950  0.4936 -1.2744 -0.9784
17580TIP3   OH274154   6.208   5.822   3.346  0.7509  0.3682  0.5348
17580TIP3    H174155   6.159   5.900   3.319 -1.4687 -1.1123 -0.0050
17580TIP3    H274156   6.158   5.788   3.421  1.6249 -0.5937  0.7002
17581TIP3   OH274157   4.429   3.433  14.723  0.2482  0.0742 -0.0520
17581TIP3    H174158   4.500   3.490  14.754  0.6136  0.2879 -1.2615
17581TIP3    H274159   4.466   3.345  14.727  0.5157  0.1631 -0.4630
17582TIP3   OH274160   4.787   2.130  12.296  0.0124 -0.4668  0.3041
17582TIP3    H174161   4.759   2.213  12.335 -0.2562 -0.7580  0.7441
17582TIP3    H274162   4.705   2.086  12.273  0.1668  0.1719 -1.6453
17583TIP3   OH274163   6.226   4.167  13.132  0.5955 -0.5910 -0.7172
17583TIP3    H174164   6.163   4.157  13.061 -0.3099  2.7034 -0.5061
17583TIP3    H274165   6.305   4.201  13.089  0.3639  0.4968 -0.3068
17584TIP3   OH274166   6.515   5.040   4.769 -0.9870  0.8219 -0.1484
17584TIP3    H174167   6.581   5.092   4.724 -0.1894 -0.6850 -0.7663
17584TIP3    H274168   6.520   4.953   4.729 -1.3623 -0.1364  1.7247
17585TIP3   OH274169   6.056   6.506   1.577  0.6995  0.6834  0.5891
17585TIP3    H174170   6.031   6.454   1.654 -0.1822  1.4197  0.8222
17585TIP3    H274171   6.124   6.454   1.534 -0.5265 -0.9558  0.4873
17586TIP3   OH274172   4.999   0.350  14.111 -0.4861  0.6690  0.0659
17586TIP3    H174173   5.062   0.400  14.163  3.2512  2.3483 -5.2335
17586TIP3    H274174   5.021   0.259  14.129  2.2432  1.2013 -0.0852
17587TIP3   OH274175   3.605   3.035   5.263 -0.2655  0.2114  0.0912
17587TIP3    H174176   3.676   2.971   5.266 -1.0646 -0.6683  0.8008
17587TIP3    H274177   3.587   3.045   5.169  1.4932  1.2829 -0.1781
17588TIP3   OH274178   4.698   4.607   6.761  0.7882 -0.3248  0.0521
17588TIP3    H174179   4.673   4.533   6.816  0.1348 -0.4979 -0.4712
17588TIP3    H274180   4.736   4.567   6.683  1.5672 -0.0807  0.2885
17589TIP3   OH274181   6.708   2.908   4.762  0.1272 -0.0554 -0.3049
17589TIP3    H174182   6.630   2.955   4.790  0.9609  0.0143  2.1905
17589TIP3    H274183   6.699   2.900   4.667 -2.2880  1.0054 -0.2381
17590TIP3   OH274184   0.705   1.288  11.292 -0.1496 -0.6993  0.2371
17590TIP3    H174185   0.749   1.363  11.253  0.8167 -1.5495 -0.3715
17590TIP3    H274186   0.649   1.253  11.222 -2.2115  0.6203  1.1264
17591TIP3   OH274187   5.181   4.225  14.588 -0.1744  0.5423  0.5178
17591TIP3    H174188   5.163   4.202  14.679 -0.6426  0.4158  0.3984
17591TIP3    H274189   5.272   4.253  14.588  0.4964 -1.5120  0.6296
17592TIP3   OH274190   2.499   1.229   4.289 -0.2560  0.1409 -0.4502
17592TIP3    H174191   2.566   1.262   4.229  2.2924  1.8585  2.9330
17592TIP3    H274192   2.549   1.189   4.361 -2.9733 -0.3964  1.3098
17593TIP3   OH274193   1.312   4.047  17.249  0.1524 -0.7196 -0.2737
17593TIP3    H174194   1.244   4.039  17.182 -0.8768  1.2176  0.4579
17593TIP3    H274195   1.369   4.118  17.218  0.2304 -0.4658  0.4149
17594TIP3   OH274196   6.744   1.060  12.456  0.4378  0.4824  0.2906
17594TIP3    H174197   6.707   1.148  12.450  0.6282  0.5247 -0.2946
17594TIP3    H274198   6.754   1.032  12.365 -2.1771 -1.2281  0.4183
17595TIP3   OH274199   0.548   5.228   3.917  0.0009 -0.4316 -0.4172
17595TIP3    H174200   0.476   5.230   3.981  0.0019 -1.7180 -0.3463
17595TIP3    H274201   0.579   5.137   3.920 -0.5985 -0.7825 -2.9268
17596TIP3   OH274202   3.234   5.182   2.656 -0.4022 -0.5730  0.0860
17596TIP3    H174203   3.249   5.188   2.750  1.7648 -1.4479 -0.1577
17596TIP3    H274204   3.236   5.273   2.626 -1.1767 -0.2852  0.8664
17597TIP3   OH274205   5.333   6.442  11.171 -0.4667  0.1053 -0.1674
17597TIP3    H174206   5.252   6.481  11.206  1.2053  1.6602  2.3623
17597TIP3    H274207   5.345   6.484  11.086 -0.9854  1.9110  0.5956
17598TIP3   OH274208   0.047   4.473   2.519  0.0605  0.3383 -0.8897
17598TIP3    H174209   0.068   4.529   2.594  0.1576 -0.0754 -0.6040
17598TIP3    H274210   0.089   4.389   2.539 -0.3101  0.0791 -1.1868
17599TIP3   OH274211   2.352   4.273   4.189 -0.0263  0.2750 -0.1011
17599TIP3    H174212   2.378   4.324   4.112  0.0666  0.2312 -0.0981
17599TIP3    H274213   2.369   4.182   4.165 -1.2726  0.1396 -0.5438
17600TIP3   OH274214   1.095   6.330   5.145  0.1951  0.2945  0.4716
17600TIP3    H174215   1.145   6.369   5.216  0.1774  0.0207  0.6361
17600TIP3    H274216   1.021   6.389   5.133 -0.9539 -0.7183  2.0932
17601TIP3   OH274217   4.574   2.979   0.711  0.3551 -0.1502  0.6470
17601TIP3    H174218   4.630   2.997   0.787  1.4657  0.5478 -0.3055
17601TIP3    H274219   4.489   2.956   0.749  0.2509  2.2204  2.1091
17602TIP3   OH274220   6.772   0.962   4.288 -0.4389 -0.2559 -0.3372
17602TIP3    H174221   6.735   1.050   4.284 -1.6215 -0.6876  0.5647
17602TIP3    H274222   6.703   0.908   4.327  0.3081 -1.5632 -0.7480
17603TIP3   OH274223   4.496   1.817   1.587  0.0603 -0.1663 -0.5116
17603TIP3    H174224   4.462   1.895   1.631 -1.3236 -1.0118 -0.0487
17603TIP3    H274225   4.423   1.787   1.532  0.2404 -1.6707  0.0342
17604TIP3   OH274226   4.706   1.947   5.355 -0.8790 -0.1204 -0.2053
17604TIP3    H174227   4.614   1.920   5.348 -0.3693 -2.1597  0.1605
17604TIP3    H274228   4.718   1.965   5.448 -1.3567  2.0946 -0.5258
17605TIP3   OH274229   2.830   5.440  16.264 -0.2103 -0.0481 -0.5457
17605TIP3    H174230   2.763   5.372  16.270 -1.1300  0.7862 -0.9289
17605TIP3    H274231   2.913   5.393  16.273 -0.7816 -1.3184 -1.4922
17606TIP3   OH274232   1.603   3.201   4.111  0.4824 -0.4043 -0.3905
17606TIP3    H174233   1.543   3.265   4.149  2.4816  0.4391  1.5674
17606TIP3    H274234   1.558   3.117   4.120 -0.8655  0.3378 -0.0330
17607TIP3   OH274235   0.602   0.255   1.706  0.1970 -0.5893 -0.4345
17607TIP3    H174236   0.689   0.250   1.744  0.1792 -0.0940 -0.3305
17607TIP3    H274237   0.598   0.180   1.646 -0.3883 -2.4857  1.7901
17608TIP3   OH274238   0.312   3.970  16.784 -1.1396 -0.1331  0.3384
17608TIP3    H174239   0.346   3.911  16.716 -1.6277  0.6900 -0.6430
17608TIP3    H274240   0.219   3.980  16.763 -1.1326  0.7317  0.6737
17609TIP3   OH274241   3.451   5.932  11.537  0.5862  0.6979  0.1383
17609TIP3    H174242   3.425   6.015  11.578 -0.6684 -0.0195  0.8403
17609TIP3    H274243   3.466   5.955  11.446  1.6492  1.9673  0.5855
17610TIP3   OH274244   4.032   1.794   0.620  0.2610  0.5204  0.2821
17610TIP3    H174245   4.063   1.789   0.530 -0.2489 -0.5135  0.1545
17610TIP3    H274246   4.112   1.784   0.673  0.7490  2.4032 -0.0243
17611TIP3   OH274247   0.562   2.568   4.845 -0.3633 -0.1273  0.5517
17611TIP3    H174248   0.529   2.651   4.880 -0.0990  0.5572 -0.7709
17611TIP3    H274249   0.617   2.533   4.915  1.8615  2.2106  0.1502
17612TIP3   OH274250   6.495   1.194  16.576 -0.4368  0.1588  0.0379
17612TIP3    H174251   6.481   1.143  16.656 -0.2639  0.1206  0.0429
17612TIP3    H274252   6.503   1.284  16.607 -0.2911  0.1342  0.0688
17613TIP3   OH274253   6.540   1.740  13.295  0.1297 -0.7889 -0.0261
17613TIP3    H174254   6.470   1.735  13.360  0.2556  2.8851  0.6461
17613TIP3    H274255   6.497   1.769  13.215  0.6288  0.2072  0.0362
17614TIP3   OH274256   3.672   4.726   6.563  0.1773 -0.1826 -0.3108
17614TIP3    H174257   3.683   4.645   6.614  0.0045 -0.4555 -0.7045
17614TIP3    H274258   3.683   4.796   6.627  0.9366 -0.5048 -0.0693
17615TIP3   OH274259   5.087   4.886  16.841 -0.8465 -0.5611 -0.6911
17615TIP3    H174260   4.993   4.900  16.824 -0.7691 -0.6456 -1.2085
17615TIP3    H274261   5.128   4.970  16.822 -0.9742 -0.1133  0.8629
17616TIP3   OH274262   5.850   2.187  14.008 -0.1221  0.1947 -0.4544
17616TIP3    H174263   5.887   2.099  14.013  0.8154  0.5829 -0.2443
17616TIP3    H274264   5.774   2.178  13.951 -0.3380 -0.8440 -0.0189
17617TIP3   OH274265   4.960   5.950  12.140  0.4595 -0.1677  0.2291
17617TIP3    H174266   4.942   6.004  12.217  1.2225 -0.8420  0.9059
17617TIP3    H274267   5.054   5.961  12.124  0.7985 -1.8582  0.8610
17618TIP3   OH274268   4.256   4.079  17.260 -0.1933  0.6054  0.1895
17618TIP3    H174269   4.201   4.104  17.185 -0.4065 -1.4552 -0.3955
17618TIP3    H274270   4.343   4.066  17.222 -0.7900 -2.7765 -0.2502
17619TIP3   OH274271   4.803   2.468  16.019 -0.0882 -0.2218  0.4369
17619TIP3    H174272   4.863   2.508  16.082  0.7543  0.0883 -0.5346
17619TIP3    H274273   4.745   2.539  15.993 -0.2183 -0.2653  0.6059
17620TIP3   OH274274   5.779   2.626  15.713 -0.2268 -0.3215  0.3330
17620TIP3    H174275   5.773   2.699  15.651 -0.0278 -0.5417  0.0491
17620TIP3    H274276   5.705   2.639  15.773 -0.8324 -0.4877 -0.3636
17621TIP3   OH274277   6.241   2.094  12.877 -0.1342 -0.2826 -0.2475
17621TIP3    H174278   6.224   2.187  12.865 -0.3450 -0.3128 -0.1719
17621TIP3    H274279   6.233   2.079  12.971  0.4762 -0.2617 -0.1834
17622TIP3   OH274280   5.824   0.208  13.934  0.0122  0.1647  0.2490
17622TIP3    H174281   5.851   0.199  13.842 -0.9441 -0.7662  0.0435
17622TIP3    H274282   5.793   0.121  13.959 -0.0254  0.4850  1.3633
17623TIP3   OH274283   3.223   6.102   4.942 -0.3556  0.3139  0.5523
17623TIP3    H174284   3.130   6.083   4.949  0.2563 -3.4877  0.8482
17623TIP3    H274285   3.253   6.049   4.869  1.6766  0.9858  0.8277
17624TIP3   OH274286   5.727   5.735  13.814  0.4420  0.1928 -0.2753
17624TIP3    H174287   5.725   5.823  13.852  1.0206 -0.2827  0.9163
17624TIP3    H274288   5.701   5.677  13.885 -0.9404 -0.5497 -1.3258
17625TIP3   OH274289   2.410   5.410  17.039 -0.3510  0.6278  0.2362
17625TIP3    H174290   2.402   5.475  17.109 -0.4258  0.5379  0.3105
17625TIP3    H274291   2.358   5.336  17.068  1.3023 -0.2702  1.0732
17626TIP3   OH274292   0.565   1.674   1.588 -0.4653  0.2245 -0.3703
17626TIP3    H174293   0.629   1.692   1.520 -0.5301  0.9333 -0.2542
17626TIP3    H274294   0.480   1.687   1.545 -0.5388 -0.6214 -0.5006
17627TIP3   OH274295   4.077   4.885  13.674  0.2787 -0.0234  0.8257
17627TIP3    H174296   3.987   4.891  13.704 -0.1961  0.0853 -0.5396
17627TIP3    H274297   4.105   4.797  13.699 -0.6620 -0.5484  0.0727
17628TIP3   OH274298   5.570   4.333  12.935  0.3965 -0.0179 -0.0749
17628TIP3    H174299   5.643   4.320  12.875  1.6272 -1.8067  1.6798
17628TIP3    H274300   5.587   4.417  12.976  0.4422  0.4355 -1.0001
17629TIP3   OH274301   5.278   4.025   4.518 -0.1557  0.2562  0.1056
17629TIP3    H174302   5.207   3.975   4.478 -0.6464  1.1923 -0.2231
17629TIP3    H274303   5.357   3.994   4.474 -0.0781 -2.0941  1.7201
17630TIP3   OH274304   1.473   6.494   1.304 -0.8011  0.7311 -0.4242
17630TIP3    H174305   1.548   6.453   1.347 -1.6464  0.3079  0.6841
17630TIP3    H274306   1.512   6.542   1.231  0.3825 -0.8310 -0.9001
17631TIP3   OH274307   0.014   0.373   6.069  0.4353  0.3477 -0.0180
17631TIP3    H174308   0.027   0.328   6.152 -0.8998  0.4482  0.2721
17631TIP3    H274309  -0.070   0.417   6.079  1.7869  3.1477 -0.1946
17632TIP3   OH274310   4.696   2.378  13.345 -0.1532 -0.2331  0.5391
17632TIP3    H174311   4.724   2.355  13.433  1.7102 -1.3617 -0.2965
17632TIP3    H274312   4.646   2.459  13.356  0.8073  0.1437  2.5049
17633TIP3   OH274313   2.312   3.127   4.764 -0.2986 -0.0766 -0.2523
17633TIP3    H174314   2.325   3.109   4.857 -0.2780 -0.6107 -0.3528
17633TIP3    H274315   2.306   3.222   4.758  2.6941  0.2264 -0.0559
17634TIP3   OH274316   1.964   5.970  17.204  0.0880  0.1767  0.3474
17634TIP3    H174317   1.969   5.940  17.113 -0.0389 -1.9595  1.0040
17634TIP3    H274318   2.049   6.011  17.220  1.2342 -1.9246  0.0505
17635TIP3   OH274319   3.626   1.632   1.513  0.1260 -0.2114  0.5879
17635TIP3    H174320   3.588   1.707   1.467  0.7586 -0.8875 -1.1211
17635TIP3    H274321   3.551   1.588   1.552 -0.3033  1.0478  1.2619
17636TIP3   OH274322   0.261   4.021  13.039  0.3856 -0.5341 -0.3762
17636TIP3    H174323   0.275   4.037  13.132  3.4115  0.7813 -0.9316
17636TIP3    H274324   0.282   3.928  13.027  0.7758 -0.5154  0.1421
17637TIP3   OH274325   5.741   5.500  15.632 -0.3090 -0.2323  0.0084
17637TIP3    H174326   5.679   5.566  15.601 -1.2868 -0.8059  0.6863
17637TIP3    H274327   5.686   5.434  15.674  0.4147 -2.4972 -2.3125
17638TIP3   OH274328   2.406   4.261  17.126  0.3851  0.3013 -0.1031
17638TIP3    H174329   2.340   4.204  17.166  1.0053  0.8796  1.8751
17638TIP3    H274330   2.470   4.202  17.088 -1.4787 -0.2925 -2.6010
17639TIP3   OH274331   0.480   1.413   6.446  0.5509 -0.2475 -0.5373
17639TIP3    H174332   0.475   1.319   6.430 -2.4126  0.1068 -2.4596
17639TIP3    H274333   0.572   1.430   6.465  0.7846 -3.8586  2.5607
17640TIP3   OH274334   2.941   3.589  13.012 -0.0149 -0.1554 -0.0306
17640TIP3    H174335   2.998   3.536  12.956  0.5521  1.5102 -1.1412
17640TIP3    H274336   2.857   3.591  12.967  0.1086  0.2639 -0.2500
17641TIP3   OH274337   5.205   6.767   5.110 -0.1246 -0.6330 -0.0805
17641TIP3    H174338   5.280   6.722   5.149  0.0880 -1.8758 -1.7994
17641TIP3    H274339   5.131   6.709   5.126 -0.3866 -0.2454  0.1119
17642TIP3   OH274340   2.904   3.356  15.999 -0.0805  0.0828 -0.2314
17642TIP3    H174341   2.929   3.396  16.082 -0.3669 -0.6279  0.2027
17642TIP3    H274342   2.822   3.311  16.017 -0.7948  0.9475 -1.2123
17643TIP3   OH274343   5.525   6.703  11.802 -0.0602 -0.4249  0.2476
17643TIP3    H174344   5.572   6.628  11.839  0.3865  0.0139  0.5821
17643TIP3    H274345   5.447   6.712  11.856  0.2857 -0.1611  0.7025
17644TIP3   OH274346   4.175   2.374  14.310 -0.0260 -0.5818 -0.0127
17644TIP3    H174347   4.241   2.433  14.345 -0.2827 -0.4312  0.2206
17644TIP3    H274348   4.108   2.369  14.378  0.5769 -2.1316  0.5195
17645TIP3   OH274349   2.076   5.341   2.153 -0.0748 -0.0651 -0.2466
17645TIP3    H174350   2.072   5.294   2.070  0.5699 -1.0521  0.2678
17645TIP3    H274351   2.029   5.286   2.215 -0.8021  0.8011  0.0036
17646TIP3   OH274352   0.163   1.529   1.701  0.2055 -0.2795 -0.2461
17646TIP3    H174353   0.134   1.440   1.721  0.0641 -0.3795 -0.8736
17646TIP3    H274354   0.154   1.537   1.606 -1.2757  0.9315 -0.0373
17647TIP3   OH274355   2.316   5.313  12.475  0.0665 -0.3553  0.5646
17647TIP3    H174356   2.257   5.381  12.441 -0.5123 -0.1985  1.7976
17647TIP3    H274357   2.311   5.242  12.411 -0.8337 -0.0011  0.2216
17648TIP3   OH274358   6.153   1.458  15.403 -0.1527  1.0271  0.8216
17648TIP3    H174359   6.192   1.420  15.482  2.7947  2.1812  0.0656
17648TIP3    H274360   6.213   1.434  15.333 -1.7873  1.4808 -0.8189
17649TIP3   OH274361   6.031   6.208   1.330  0.1989  0.4788  0.1700
17649TIP3    H174362   6.098   6.275   1.344  0.0747  0.5180  0.5713
17649TIP3    H274363   6.065   6.130   1.374  1.5557 -0.5101 -2.3918
17650TIP3   OH274364   6.153   0.902   3.595 -0.0484  0.2471 -0.0096
17650TIP3    H174365   6.094   0.872   3.665 -0.5044  1.4282  0.1420
17650TIP3    H274366   6.094   0.930   3.525  0.3855  0.0663 -0.4550
17651TIP3   OH274367   6.109   4.750   2.550  0.2149  0.3529  0.6797
17651TIP3    H174368   6.126   4.657   2.559  0.8406  0.5535  1.7790
17651TIP3    H274369   6.082   4.761   2.459 -0.6051 -1.0043  0.7391
17652TIP3   OH274370   1.186   2.597  14.094  0.0912 -0.4562  0.7638
17652TIP3    H174371   1.219   2.547  14.019 -3.2792 -0.6599 -0.8097
17652TIP3    H274372   1.210   2.546  14.171  2.6459 -0.8495 -0.2121
17653TIP3   OH274373   1.047   5.712   4.745  0.2251  0.1160  0.2795
17653TIP3    H174374   1.002   5.700   4.661  1.2990  0.0336 -0.2952
17653TIP3    H274375   0.978   5.699   4.810 -0.8250  1.0746 -0.5950
17654TIP3   OH274376   5.393   0.797  13.352  0.3661  0.2570  0.3425
17654TIP3    H174377   5.373   0.764  13.440 -1.2982 -1.6132 -0.6688
17654TIP3    H274378   5.352   0.884  13.349  0.0017  0.1262  1.2426
17655TIP3   OH274379   2.641   5.075  17.178 -0.1652 -0.0307 -0.2851
17655TIP3    H174380   2.715   5.081  17.117  0.4886 -0.7517  0.4257
17655TIP3    H274381   2.576   5.136  17.142 -0.7924 -2.1453 -3.0688
17656TIP3   OH274382   1.267   4.732   4.413 -0.0480  0.0783  0.4401
17656TIP3    H174383   1.345   4.705   4.462 -0.1881 -0.0603  0.5872
17656TIP3    H274384   1.297   4.805   4.359  0.2549 -0.1499  0.2914
17657TIP3   OH274385   2.875   6.277   6.279  0.8254  0.1764  0.5007
17657TIP3    H174386   2.907   6.357   6.236 -0.7227  1.5604  1.7908
17657TIP3    H274387   2.839   6.307   6.362 -0.9291 -1.6905  0.4921
17658TIP3   OH274388   1.392   3.106   3.257  0.2659  0.1820 -0.0450
17658TIP3    H174389   1.387   3.192   3.300  1.0128  0.0768  0.2798
17658TIP3    H274390   1.486   3.086   3.255  0.0399 -1.1797  1.0111
17659TIP3   OH274391   4.956   4.503   3.577 -0.4114 -0.4850  0.1216
17659TIP3    H174392   4.918   4.590   3.562 -0.1398 -0.5968 -1.3700
17659TIP3    H274393   4.881   4.448   3.599 -0.7756 -0.1788 -0.3434
17660TIP3   OH274394   4.319   5.197   5.117  0.2703 -0.1385  0.5810
17660TIP3    H174395   4.326   5.115   5.166  0.6057  1.5152  3.6009
17660TIP3    H274396   4.307   5.264   5.185  1.3708  2.4883 -1.6300
17661TIP3   OH274397   2.026   4.760   0.250  0.8357  0.2680  0.0494
17661TIP3    H174398   1.991   4.740   0.164  2.9429 -0.4903 -0.6873
17661TIP3    H274399   2.001   4.851   0.266 -1.4873 -0.2436 -0.3321
17662TIP3   OH274400   5.003   5.284   1.818 -0.0861 -0.8744  0.2662
17662TIP3    H174401   4.990   5.378   1.806  1.8913 -0.8173 -2.1283
17662TIP3    H274402   5.053   5.277   1.900  0.6614  0.2624 -0.0638
17663TIP3   OH274403   5.379   6.221   0.756 -0.0377 -0.2157 -0.7415
17663TIP3    H174404   5.374   6.126   0.748  0.6453 -0.1792 -1.6400
17663TIP3    H274405   5.429   6.236   0.836  0.3866 -0.6112 -0.9329
17664TIP3   OH274406   6.313   5.703   4.385 -0.0895  0.5129 -0.0292
17664TIP3    H174407   6.352   5.725   4.301  0.6219  0.3236  0.2491
17664TIP3    H274408   6.302   5.608   4.383 -0.4142  0.5470 -0.0469
17665TIP3   OH274409   2.085   1.799   2.903  0.2692 -0.1008  0.0560
17665TIP3    H174410   2.128   1.715   2.883 -0.8951 -1.0317  1.2492
17665TIP3    H274411   1.996   1.787   2.871  0.1552  0.7948  0.0343
17666TIP3   OH274412   0.355   5.161   6.534 -0.0673  0.0564 -0.1240
17666TIP3    H174413   0.436   5.141   6.581 -0.6663  0.3062  1.0513
17666TIP3    H274414   0.338   5.083   6.482 -0.1977 -0.8816  1.2681
17667TIP3   OH274415   2.479   1.220  15.481 -0.1495 -0.8543  0.0013
17667TIP3    H174416   2.524   1.289  15.529 -0.8371 -0.3866 -0.0151
17667TIP3    H274417   2.531   1.141  15.498  0.1732 -0.5016  0.6909
17668TIP3   OH274418   0.013   0.181   0.298  0.0399  0.2976  0.1203
17668TIP3    H174419  -0.052   0.212   0.235  0.8949  0.3851 -0.7519
17668TIP3    H274420   0.011   0.246   0.368 -1.0836  0.0821  0.2990
17669TIP3   OH274421   2.285   3.004   0.810  0.9305  0.3046 -0.1180
17669TIP3    H174422   2.344   3.064   0.856  1.8751 -0.5236 -0.2167
17669TIP3    H274423   2.201   3.051   0.806  1.2605  1.0321  1.0431
17670TIP3   OH274424   2.501   6.659   6.406 -0.2129 -0.0318  1.3440
17670TIP3    H174425   2.416   6.628   6.439 -0.4803 -1.7587 -0.7744
17670TIP3    H274426   2.493   6.754   6.406 -2.2387 -0.1559  1.0265
17671TIP3   OH274427   3.447   6.726  14.531 -0.4247  0.3173 -0.0901
17671TIP3    H174428   3.513   6.738  14.600  1.7713  0.7961 -2.1547
17671TIP3    H274429   3.368   6.699  14.579  1.1083  0.1006  2.5541
17672TIP3   OH274430   2.128   1.644   1.503 -0.0262 -0.2397  0.2895
17672TIP3    H174431   2.157   1.555   1.483 -1.2690 -0.5982 -0.0394
17672TIP3    H274432   2.136   1.651   1.598  0.3086 -0.6186  0.2934
17673TIP3   OH274433   2.080   2.787   3.766 -0.3459 -0.0654  0.6895
17673TIP3    H174434   2.091   2.881   3.749  0.3844 -0.3409 -0.4902
17673TIP3    H274435   2.043   2.752   3.685  1.4803 -1.1478  0.2662
17674TIP3   OH274436   5.654   1.805   0.586 -0.0332  0.2816  0.3010
17674TIP3    H174437   5.677   1.883   0.535 -0.5590 -0.2902 -0.8596
17674TIP3    H274438   5.689   1.822   0.673 -0.9046  2.2151  0.3418
17675TIP3   OH274439   2.143   0.916  12.359 -0.3634 -0.3639 -0.7171
17675TIP3    H174440   2.128   0.961  12.443  0.0739  0.2608 -0.9668
17675TIP3    H274441   2.061   0.929  12.311 -0.3719 -0.1374 -0.6460
17676TIP3   OH274442   4.085   2.830  12.417 -0.4625  1.0434  0.0916
17676TIP3    H174443   4.026   2.810  12.344 -0.7946  0.6200  0.4690
17676TIP3    H274444   4.109   2.922  12.405 -2.8454  1.8571  1.0761
17677TIP3   OH274445   1.602   2.448  14.279 -0.2535 -0.0361  0.4375
17677TIP3    H174446   1.662   2.406  14.217 -0.8328  2.1562 -1.7603
17677TIP3    H274447   1.611   2.541  14.261 -2.1670  0.5386  2.1266
17678TIP3   OH274448   1.686   6.681  14.538  0.6221  0.7739  0.1766
17678TIP3    H174449   1.595   6.691  14.509  0.6942 -1.4521 -1.0321
17678TIP3    H274450   1.679   6.648  14.628  0.1875 -0.2585 -0.2234
17679TIP3   OH274451   6.289   2.173   4.282 -0.4279 -0.3388  0.0090
17679TIP3    H174452   6.198   2.144   4.282  0.2308 -2.6600 -0.1503
17679TIP3    H274453   6.334   2.108   4.337  1.2713  0.1904 -0.6929
17680TIP3   OH274454   6.446   1.933   0.933  0.5873 -0.5572 -0.1474
17680TIP3    H174455   6.424   2.023   0.958  0.2706 -0.4647 -0.7408
17680TIP3    H274456   6.537   1.938   0.905  1.5185 -0.9770  2.4982
17681TIP3   OH274457   2.198   3.209   6.415 -0.0517  0.3869  0.2996
17681TIP3    H174458   2.171   3.295   6.447  0.2331  0.7230 -0.3536
17681TIP3    H274459   2.142   3.147   6.463 -1.4022  1.0151 -0.4218
17682TIP3   OH274460   5.255   3.328  13.741 -0.0948  0.1635 -0.2051
17682TIP3    H174461   5.330   3.295  13.791 -1.4007 -0.3877  1.4490
17682TIP3    H274462   5.276   3.305  13.650  1.8848  0.3292  0.1593
17683TIP3   OH274463   3.257   5.929   2.640  0.0501 -0.5031  0.5566
17683TIP3    H174464   3.176   5.972   2.612  0.0896 -0.4960  0.4540
17683TIP3    H274465   3.319   5.948   2.570  0.4814  0.5029  1.1844
17684TIP3   OH274466   4.884   2.849  16.590  0.2027  0.0134 -0.1657
17684TIP3    H174467   4.935   2.786  16.539  1.5955  1.2477 -0.3572
17684TIP3    H274468   4.844   2.906  16.523  0.5002  0.4831  0.0533
17685TIP3   OH274469   0.726   2.625   5.557 -0.0058  0.5439  0.3292
17685TIP3    H174470   0.666   2.554   5.576  0.1032  0.3628  0.0088
17685TIP3    H274471   0.809   2.599   5.596  0.6394 -0.5428 -1.6402
17686TIP3   OH274472   1.344   3.054   5.781 -1.1243 -0.4077  0.0857
17686TIP3    H174473   1.270   3.017   5.732 -0.5122  0.1512 -1.3412
17686TIP3    H274474   1.399   3.093   5.713 -0.4271  0.7723  1.2966
17687TIP3   OH274475   3.198   3.786   0.929 -0.2126 -0.5823 -0.1755
17687TIP3    H174476   3.206   3.732   1.008 -2.5838  1.1019  1.3309
17687TIP3    H274477   3.235   3.871   0.954 -0.8208 -0.0838 -0.9315
17688TIP3   OH274478   0.645   2.359   6.129  0.6539  0.2010  0.3580
17688TIP3    H174479   0.555   2.337   6.107  0.8440  1.6048 -2.1687
17688TIP3    H274480   0.640   2.449   6.163  1.2166  0.9811 -1.4851
17689TIP3   OH274481   4.074   0.511  13.976  0.2770 -0.3976 -0.0793
17689TIP3    H174482   4.023   0.584  14.010 -0.7946 -0.9037 -0.5617
17689TIP3    H274483   4.139   0.551  13.919  1.1784  0.3468  1.4151
17690TIP3   OH274484   1.587   0.733  14.645  0.4875 -0.0436 -0.0816
17690TIP3    H174485   1.634   0.809  14.680 -0.4588  0.3529  0.3436
17690TIP3    H274486   1.615   0.728  14.553 -0.9706  2.0786 -0.7196
17691TIP3   OH274487   6.317   0.783  14.329  0.0736 -0.1208  0.1867
17691TIP3    H174488   6.318   0.855  14.267  1.6453 -0.1049  0.1846
17691TIP3    H274489   6.225   0.755  14.333 -0.1073  0.0771 -1.8816
17692TIP3   OH274490   0.386   2.404   6.010 -0.4996  0.4201 -0.5693
17692TIP3    H174491   0.364   2.478   6.066  1.2795  0.2412  0.4513
17692TIP3    H274492   0.334   2.331   6.045  1.5333 -0.0224  1.8190
17693TIP3   OH274493   2.055   4.289  14.532 -0.0782  0.2157  0.1140
17693TIP3    H174494   2.088   4.251  14.450  1.1760  0.3797  0.5325
17693TIP3    H274495   2.020   4.215  14.581  1.7011 -0.3384  0.6143
17694TIP3   OH274496   3.052   5.455  11.040 -0.7981 -0.0344 -0.0163
17694TIP3    H174497   2.983   5.521  11.036 -0.2068  0.7044  1.1426
17694TIP3    H274498   3.132   5.504  11.020  0.0962  0.4213  3.8036
17695TIP3   OH274499   0.355   5.886   5.992  0.2461 -0.1243 -0.4073
17695TIP3    H174500   0.379   5.842   6.073 -0.0645  1.6021  0.6768
17695TIP3    H274501   0.268   5.922   6.008 -0.0303 -0.1570 -1.6935
17696TIP3   OH274502   3.716   2.516   2.922  0.7962 -0.3610 -0.4263
17696TIP3    H174503   3.732   2.521   3.016 -0.9911 -0.5301 -0.0815
17696TIP3    H274504   3.705   2.423   2.904 -1.8540 -0.1774 -0.1968
17697TIP3   OH274505   1.238   3.977  13.498 -0.3360 -0.2797 -0.3594
17697TIP3    H174506   1.236   4.061  13.452  2.2358 -0.7194 -1.4193
17697TIP3    H274507   1.291   3.920  13.443  0.6032 -1.6820  1.8413
17698TIP3   OH274508   6.132   2.030   4.560 -0.0769 -0.8177  0.5602
17698TIP3    H174509   6.110   2.053   4.650  0.5268 -1.2161  0.8191
17698TIP3    H274510   6.180   2.105   4.527  1.6305 -1.5179  1.3043
17699TIP3   OH274511   5.496   2.554   5.512  0.3063 -0.0815  0.5778
17699TIP3    H174512   5.436   2.576   5.441 -0.6380  0.7362  1.5934
17699TIP3    H274513   5.554   2.487   5.475  0.0770  0.5869 -1.0601
17700TIP3   OH274514   0.460   1.278  14.033 -0.0872  0.9180 -0.0260
17700TIP3    H174515   0.412   1.355  14.001  1.0507  2.1623  1.1282
17700TIP3    H274516   0.418   1.257  14.116 -0.5345  0.1267 -0.4403
17701TIP3   OH274517   3.626   1.103  14.877 -0.0825 -0.4554 -0.2227
17701TIP3    H174518   3.670   1.131  14.957  2.9601 -1.4723 -1.3603
17701TIP3    H274519   3.568   1.032  14.904 -2.0878  1.6918  1.5312
17702TIP3   OH274520   4.753   5.912  15.265 -0.5202 -0.4797 -0.2675
17702TIP3    H174521   4.772   5.942  15.175 -0.7154  0.4306 -0.0194
17702TIP3    H274522   4.838   5.904  15.306 -0.5044  1.4955  0.1875
17703TIP3   OH274523   5.866   6.258   0.180  0.2155 -0.3349 -0.0775
17703TIP3    H174524   5.809   6.329   0.152  0.7366  1.1891  2.4499
17703TIP3    H274525   5.938   6.257   0.117  2.2200  4.0232  1.7436
17704TIP3   OH274526   1.380   2.659  11.670  0.4813  0.0868  0.1915
17704TIP3    H174527   1.309   2.711  11.707  0.5887  0.3494  0.0262
17704TIP3    H274528   1.376   2.676  11.576  1.4785  0.9901  0.2995
17705TIP3   OH274529   5.038   2.559  12.560  0.2240  0.1242 -0.2956
17705TIP3    H174530   5.099   2.579  12.631 -0.9479  1.4176  0.3917
17705TIP3    H274531   5.072   2.605  12.484 -0.2796  1.5050  0.2807
17706TIP3   OH274532   3.576   2.685  13.170  0.3873 -0.2996  0.6493
17706TIP3    H174533   3.655   2.730  13.139 -0.8570  2.2018  0.8408
17706TIP3    H274534   3.505   2.727  13.123 -0.9174 -1.9469  1.0760
17707TIP3   OH274535   5.824   0.949   0.652  0.1610 -0.3392 -0.3234
17707TIP3    H174536   5.767   1.020   0.625 -0.0885  0.5775  2.2694
17707TIP3    H274537   5.784   0.870   0.616 -2.0338  0.4098  0.3249
17708TIP3   OH274538   2.711   2.877   5.507 -0.1014 -0.1211  0.0258
17708TIP3    H174539   2.658   2.943   5.464 -3.1321 -1.7924  0.8881
17708TIP3    H274540   2.710   2.802   5.448  2.9499  0.3319 -0.7643
17709TIP3   OH274541   5.243   3.467   2.425  0.1401  0.4043  0.1551
17709TIP3    H174542   5.237   3.377   2.457 -2.7433  0.8977  1.2265
17709TIP3    H274543   5.258   3.458   2.331  0.9559 -1.1445  0.3956
17710TIP3   OH274544   1.571   3.394   0.500 -0.1323 -0.2646  0.7245
17710TIP3    H174545   1.530   3.322   0.451  1.1583 -0.0902 -0.6745
17710TIP3    H274546   1.535   3.473   0.461  0.9594 -0.1236 -0.0478
17711TIP3   OH274547   3.514   3.606   1.064  0.6630 -0.2239  0.3554
17711TIP3    H174548   3.477   3.680   1.111  0.7361 -0.4313  0.7479
17711TIP3    H274549   3.537   3.641   0.978 -3.1846 -0.7820 -1.0552
17712TIP3   OH274550   1.095   0.487  13.622 -0.1830 -0.0652  0.0333
17712TIP3    H174551   1.157   0.421  13.651 -0.8199 -0.3519  0.7784
17712TIP3    H274552   1.092   0.551  13.694 -0.2167  0.3200 -0.3055
17713TIP3   OH274553   3.437   2.312   0.579  0.1750  0.0588  0.0290
17713TIP3    H174554   3.354   2.284   0.616  0.5852 -0.4329  0.5847
17713TIP3    H274555   3.454   2.396   0.621 -0.8830  1.0410 -1.3832
17714TIP3   OH274556   2.129   1.197  13.623  0.4274  0.3509  0.0279
17714TIP3    H174557   2.089   1.247  13.553  0.0543  1.1904  0.8325
17714TIP3    H274558   2.170   1.122  13.578 -2.5372 -0.9194 -0.7791
17715TIP3   OH274559   3.636   6.655  13.073 -0.4898 -0.6680 -0.3201
17715TIP3    H174560   3.707   6.623  13.129  0.2174  1.2484 -0.0295
17715TIP3    H274561   3.556   6.632  13.120  0.0236 -0.9162  0.4529
17716TIP3   OH274562   2.644   5.001   1.089  0.5421 -0.0135 -0.4561
17716TIP3    H174563   2.690   4.955   1.019  0.0252  0.0498 -0.8385
17716TIP3    H274564   2.560   5.026   1.051 -0.6768 -1.8926  0.8326
17717TIP3   OH274565   4.998   2.874  16.832  0.4333  0.6769 -0.1834
17717TIP3    H174566   4.950   2.848  16.753 -0.7514  0.8140  0.4713
17717TIP3    H274567   5.085   2.897  16.800 -0.3055  1.6823 -1.6043
17718TIP3   OH274568   2.245   4.573  11.459 -0.2480  0.3717 -0.2492
17718TIP3    H174569   2.283   4.531  11.382  0.3745  0.7300 -0.1511
17718TIP3    H274570   2.158   4.600  11.432 -0.0194  0.5242 -0.8423
17719TIP3   OH274571   2.407   5.013   5.939  0.8518  0.2065 -0.0171
17719TIP3    H174572   2.335   5.068   5.908  0.9910  0.7719  0.6389
17719TIP3    H274573   2.398   5.012   6.034  0.0283 -2.0636 -0.0710
17720TIP3   OH274574   3.204   3.034   5.067  0.0075 -0.1179  0.1701
17720TIP3    H174575   3.252   3.116   5.057  0.7494 -0.6516 -0.9436
17720TIP3    H274576   3.246   2.990   5.141 -1.0879  0.9355  1.4715
17721TIP3   OH274577   3.709   0.358  11.074 -0.6792  0.2127  0.3553
17721TIP3    H174578   3.657   0.293  11.029 -0.9342  1.3894 -1.1237
17721TIP3    H274579   3.754   0.406  11.005  0.2262  1.0178  1.4470
17722TIP3   OH274580   5.681   0.349  17.063 -0.1217  0.2047 -0.0290
17722TIP3    H174581   5.727   0.352  16.979  1.4291  1.4995  0.8250
17722TIP3    H274582   5.745   0.314  17.125 -0.9774  0.0319  0.7800
17723TIP3   OH274583   5.932   2.962   5.055  0.0809 -0.6238 -0.2273
17723TIP3    H174584   6.024   2.965   5.084  0.6701  0.8239 -2.0633
17723TIP3    H274585   5.931   2.895   4.987 -0.2786 -0.7860 -0.0602
17724TIP3   OH274586   2.279   0.186  11.776 -0.1748  0.2676 -1.0271
17724TIP3    H174587   2.209   0.121  11.775  0.9262 -0.9896 -2.2405
17724TIP3    H274588   2.301   0.199  11.684  3.1678 -1.7488 -0.7292
17725TIP3   OH274589   5.864   2.294   2.703 -0.0393 -0.5411 -0.2958
17725TIP3    H174590   5.894   2.331   2.620  0.3971  0.9148  0.4712
17725TIP3    H274591   5.919   2.217   2.716 -0.4007 -1.0421 -1.5444
17726TIP3   OH274592   3.064   5.798  15.786  0.0331 -0.7778 -0.0155
17726TIP3    H174593   3.111   5.829  15.708  0.1169  1.7943  0.9534
17726TIP3    H274594   2.976   5.835  15.776  0.9513  2.6973  2.6043
17727TIP3   OH274595   2.710   6.605  12.097  0.5350 -0.0425 -0.0176
17727TIP3    H174596   2.732   6.567  12.182  0.4387 -0.3788 -0.1390
17727TIP3    H274597   2.718   6.532  12.035  1.0732  0.3122 -0.3710
17728TIP3   OH274598   2.358   0.312  11.499  0.3359  0.1629  0.3739
17728TIP3    H174599   2.452   0.327  11.490  0.6412 -1.2147  0.9764
17728TIP3    H274600   2.338   0.245  11.433  0.2209 -1.1420  1.6938
17729TIP3   OH274601   1.391   2.639  16.181  0.1961  0.0114 -0.2140
17729TIP3    H174602   1.347   2.717  16.149  1.7072  0.5520 -1.0345
17729TIP3    H274603   1.449   2.613  16.111  2.3664  0.2450  1.3979
17730TIP3   OH274604   4.438   2.419  15.704 -0.3451  0.3196 -0.1519
17730TIP3    H174605   4.476   2.505  15.688  0.2166  0.4744  1.7635
17730TIP3    H274606   4.501   2.357  15.668  0.1292  0.6609  0.0885
17731TIP3   OH274607   4.044   3.127   1.699  0.1532 -0.1889 -0.3363
17731TIP3    H174608   4.030   3.216   1.667 -0.2386  0.1480  0.7329
17731TIP3    H274609   4.047   3.073   1.620 -0.5191  0.6509 -0.9467
17732TIP3   OH274610   5.685   1.510   5.527 -1.1841 -0.0457 -0.7210
17732TIP3    H174611   5.671   1.453   5.451 -1.4855  0.2821 -0.9143
17732TIP3    H274612   5.598   1.544   5.547 -1.5416 -1.7798  1.0915
17733TIP3   OH274613   4.719   4.773  12.263 -0.0677 -0.5356 -0.0053
17733TIP3    H174614   4.754   4.684  12.254  2.7090  0.5997 -2.0985
17733TIP3    H274615   4.794   4.826  12.291 -0.2372  1.8820 -3.4676
17734TIP3   OH274616   5.046   2.080   3.998  0.0201 -0.5141 -0.0242
17734TIP3    H174617   5.084   2.093   4.084 -0.0956 -0.9553  0.0955
17734TIP3    H274618   4.954   2.104   4.008  0.5325  2.0020 -0.6698
17735TIP3   OH274619   0.991   1.326   5.335  0.1040 -0.0159  0.1308
17735TIP3    H174620   0.983   1.386   5.409 -2.6824 -0.4480  0.2915
17735TIP3    H274621   1.072   1.278   5.352  0.3603  0.9836  2.0538
17736TIP3   OH274622   5.771   0.035  16.759  0.3844 -0.7782 -0.5809
17736TIP3    H174623   5.697  -0.025  16.768  1.0668 -1.6359 -0.5611
17736TIP3    H274624   5.795   0.030  16.667  0.0406 -0.0352 -0.7177
17737TIP3   OH274625   0.812   0.901  17.104  0.0311  0.6302  0.0184
17737TIP3    H174626   0.749   0.972  17.111  2.0711  2.5684 -0.2786
17737TIP3    H274627   0.864   0.922  17.027  0.5513 -1.3573 -0.2365
17738TIP3   OH274628   3.510   5.963  14.805  0.6433  0.0054  0.0844
17738TIP3    H174629   3.477   6.003  14.724 -0.3115  0.9863  0.9373
17738TIP3    H274630   3.603   5.985  14.807  0.3780  1.1674 -0.0605
17739TIP3   OH274631   1.419   2.558   3.921 -0.2846 -0.1213  0.4473
17739TIP3    H174632   1.509   2.592   3.916 -0.1014 -0.3541  1.7411
17739TIP3    H274633   1.369   2.630   3.959 -0.2910 -0.5603  1.3101
17740TIP3   OH274634   2.283   6.738  12.747 -0.2788  0.1650 -0.3189
17740TIP3    H174635   2.290   6.828  12.780 -1.7905  0.2658 -0.2200
17740TIP3    H274636   2.364   6.696  12.775 -0.2262  1.0745  0.9757
17741TIP3   OH274637   2.267   6.570   6.476  0.0501 -0.0745 -0.7582
17741TIP3    H174638   2.188   6.622   6.462 -1.0132 -0.8113  1.9709
17741TIP3    H274639   2.238   6.479   6.467  0.9907 -0.3433 -1.3258
17742TIP3   OH274640   4.349   4.807  16.463 -0.0310  0.0044 -0.3739
17742TIP3    H174641   4.343   4.901  16.478 -1.2381  0.2329 -2.0133
17742TIP3    H274642   4.426   4.796  16.407 -1.0685  0.3152 -1.9372
17743TIP3   OH274643   0.577   2.218  16.924  0.6090 -0.5276 -0.5993
17743TIP3    H174644   0.519   2.239  16.997  0.7462 -0.1842 -0.5825
17743TIP3    H274645   0.519   2.187  16.854  0.4007 -0.1409 -0.5995
17744TIP3   OH274646   3.402   0.506   5.256  0.6748  0.0705 -0.2695
17744TIP3    H174647   3.338   0.447   5.217  0.9421 -0.2452 -0.2374
17744TIP3    H274648   3.415   0.472   5.345  0.2265  0.6579  0.0241
17745TIP3   OH274649   0.091   5.111   5.830 -0.1452  0.2170 -0.0961
17745TIP3    H174650   0.094   5.016   5.842  0.7176  0.0894 -1.1621
17745TIP3    H274651   0.147   5.145   5.900 -0.3492 -0.0638  0.2069
17746TIP3   OH274652   5.414   6.691   5.289  0.2813  0.1402  0.2294
17746TIP3    H174653   5.497   6.686   5.336 -0.3542 -1.5466  1.2698
17746TIP3    H274654   5.398   6.602   5.259 -0.3545  0.7815 -1.4272
17747TIP3   OH274655   1.819   5.445  17.257  0.1786  0.4250  0.0747
17747TIP3    H174656   1.796   5.532  17.289 -1.7256  0.2378 -0.6586
17747TIP3    H274657   1.816   5.389  17.336 -1.2809  0.5517  0.1309
17748TIP3   OH274658   3.087   1.471  12.771 -0.3019  0.2291  0.7845
17748TIP3    H174659   3.157   1.412  12.800 -1.9429 -1.0578  2.3533
17748TIP3    H274660   3.069   1.445  12.681  1.4257  0.8258  0.2237
17749TIP3   OH274661   3.244   6.396   4.924  0.3160  0.2775 -0.2504
17749TIP3    H174662   3.221   6.303   4.928  1.7337 -0.0681  0.9746
17749TIP3    H274663   3.340   6.396   4.917  0.3386  1.6522 -0.1852
17750TIP3   OH274664   2.259   4.992  17.132 -0.0246 -0.2631 -0.5605
17750TIP3    H174665   2.170   4.972  17.162  0.7697 -1.2164  1.3349
17750TIP3    H274666   2.289   5.060  17.192  0.9174 -0.7898 -0.4203
17751TIP3   OH274667   5.262   3.916   1.489 -0.3074 -0.2458  0.8366
17751TIP3    H174668   5.289   4.000   1.452 -1.4284 -0.6031 -0.9422
17751TIP3    H274669   5.255   3.931   1.583  1.6699  1.0219  0.8266
17752TIP3   OH274670   2.325   0.862  10.908 -0.1659 -0.5854  0.0368
17752TIP3    H174671   2.406   0.900  10.876  0.0411 -0.2656  0.9052
17752TIP3    H274672   2.292   0.810  10.835 -0.3170  1.0136 -1.0779
17753TIP3   OH274673   2.802   6.491   5.402  0.2541  0.2822  0.5383
17753TIP3    H174674   2.845   6.530   5.479  1.0016 -0.3499  0.4509
17753TIP3    H274675   2.849   6.409   5.387 -1.1656 -0.5828  0.6050
17754TIP3   OH274676   5.140   1.915   2.885  0.3432  0.1465  0.3932
17754TIP3    H174677   5.204   1.974   2.926  2.6925 -0.3875 -2.2346
17754TIP3    H274678   5.136   1.840   2.944  0.2830  1.2032  1.7972
17755TIP3   OH274679   6.255   2.048  12.592  0.0690 -0.2479 -0.3540
17755TIP3    H174680   6.341   2.027  12.556 -0.4087 -0.0261 -1.6579
17755TIP3    H274681   6.271   2.061  12.686  1.1103 -2.1635 -0.2196
17756TIP3   OH274682   4.551   5.571  10.904  0.7094 -0.4299  0.5271
17756TIP3    H174683   4.599   5.581  10.822 -1.3291 -1.6077 -0.8916
17756TIP3    H274684   4.487   5.642  10.904 -0.6762 -1.6446  0.0486
17757TIP3   OH274685   2.296   3.060  15.934  0.1588  0.6892  0.3853
17757TIP3    H174686   2.372   3.059  15.876 -0.6902  1.8102 -0.8101
17757TIP3    H274687   2.259   2.972  15.926  0.1786  0.7564 -0.6549
17758TIP3   OH274688   0.464   1.865  14.370  0.3230  0.0252  0.0979
17758TIP3    H174689   0.473   1.920  14.448 -0.1350  0.0277  0.1466
17758TIP3    H274690   0.551   1.827  14.359  1.2303  2.2455 -1.0555
17759TIP3   OH274691   0.013   0.369  15.553  0.1879  0.4317  0.0405
17759TIP3    H174692   0.067   0.441  15.587 -0.1603  0.6875  0.0482
17759TIP3    H274693  -0.006   0.316  15.631  0.5825  0.2402  0.0078
17760TIP3   OH274694   0.716   0.456   2.483 -0.1683 -0.1483 -0.2688
17760TIP3    H174695   0.791   0.397   2.493 -0.1030 -0.1130 -0.5427
17760TIP3    H274696   0.643   0.407   2.521 -0.2302 -0.6427 -1.0031
17761TIP3   OH274697   0.315   1.985  12.252 -0.0618 -0.1041 -0.2892
17761TIP3    H174698   0.369   2.051  12.209  0.5712  0.1113  0.7958
17761TIP3    H274699   0.355   1.902  12.226  0.8595  0.0554  0.5485
17762TIP3   OH274700   0.926   2.524   2.529 -0.3697  0.6785  0.3924
17762TIP3    H174701   0.847   2.492   2.571  0.3465 -1.8961 -0.0250
17762TIP3    H274702   0.963   2.587   2.591 -1.7623  0.5124  1.4295
17763TIP3   OH274703   5.929   0.556   5.491 -0.0417 -0.1544  0.1600
17763TIP3    H174704   5.995   0.611   5.450  1.0909 -0.8538  0.9886
17763TIP3    H274705   5.904   0.605   5.570  0.2322 -0.3498  0.3711
17764TIP3   OH274706   4.256   2.093   0.329 -0.4496 -0.1563 -0.6580
17764TIP3    H174707   4.240   2.084   0.423  1.1000 -1.6599 -0.4957
17764TIP3    H274708   4.209   2.173   0.305 -2.4614 -0.7501  0.9954
17765TIP3   OH274709   1.716   6.344   5.828 -0.3106  0.5850  0.4102
17765TIP3    H174710   1.742   6.256   5.805  2.5991  1.2041  0.9875
17765TIP3    H274711   1.721   6.346   5.924 -0.1035  1.4239  0.3926
17766TIP3   OH274712   2.842   5.825   3.368 -0.0862 -0.3437 -0.0699
17766TIP3    H174713   2.783   5.750   3.378 -1.5800  0.8354  0.2616
17766TIP3    H274714   2.816   5.866   3.285  0.5162 -0.0156 -0.1052
17767TIP3   OH274715   0.722   3.514  16.450  0.2501 -0.3528 -0.3377
17767TIP3    H174716   0.816   3.531  16.457  0.3796 -1.4069  1.0885
17767TIP3    H274717   0.681   3.601  16.456  1.1047  0.0339  0.1230
17768TIP3   OH274718   1.785   6.411  14.186 -0.0589 -0.0651 -0.2104
17768TIP3    H174719   1.835   6.477  14.232  1.0275 -0.2911 -1.0399
17768TIP3    H274720   1.777   6.339  14.249  2.4278 -0.8612 -0.6955
17769TIP3   OH274721   6.272   0.744  11.596 -0.1170 -0.4274 -0.6461
17769TIP3    H174722   6.187   0.759  11.554  0.1369  4.1711 -0.0619
17769TIP3    H274723   6.250   0.701  11.679 -2.1504  1.6563  0.0153
17770TIP3   OH274724   6.583   4.149   4.403 -0.0409 -0.5888 -0.7196
17770TIP3    H174725   6.656   4.204   4.430  0.4868 -0.2682 -2.6768
17770TIP3    H274726   6.610   4.111   4.320 -1.8928 -0.8601 -1.2554
17771TIP3   OH274727   1.395   3.467  17.049 -0.2561 -0.3767 -0.0251
17771TIP3    H174728   1.430   3.469  16.960 -0.2381 -1.7227 -0.0664
17771TIP3    H274729   1.445   3.398  17.093  0.3163  0.8166  1.2989
17772TIP3   OH274730   2.898   1.817   5.655  0.4354 -0.4439 -0.0527
17772TIP3    H174731   2.810   1.782   5.655  0.6643 -1.0288  0.0807
17772TIP3    H274732   2.950   1.753   5.607  1.2447 -1.3334  1.8951
17773TIP3   OH274733   1.864   0.339   3.661 -0.4748  0.3563  0.3120
17773TIP3    H174734   1.877   0.263   3.604 -1.6769  1.0692 -0.9617
17773TIP3    H274735   1.944   0.391   3.649 -0.4559  0.2028 -0.2381
17774TIP3   OH274736   5.911   3.866   1.093 -0.1248  0.5730 -0.2017
17774TIP3    H174737   5.918   3.906   1.006 -1.2802  1.0437 -0.0992
17774TIP3    H274738   5.975   3.795   1.092 -0.1015  0.5875 -1.4342
17775TIP3   OH274739   4.424   6.621   5.118  0.2842 -0.3051  0.1677
17775TIP3    H174740   4.364   6.663   5.057  2.7701  0.3384 -1.9794
17775TIP3    H274741   4.397   6.654   5.204 -3.2032 -1.1006 -0.4562
17776TIP3   OH274742   4.967   4.989  12.783 -0.7203 -0.1274 -0.1300
17776TIP3    H174743   5.050   4.953  12.752  0.5680  1.4570  1.3158
17776TIP3    H274744   4.915   5.001  12.704  0.8052 -0.2343 -1.1889
17777TIP3   OH274745   4.943   3.892   5.516  0.1862  0.0794  0.4650
17777TIP3    H174746   4.907   3.932   5.437 -0.5199  0.3714  0.9273
17777TIP3    H274747   4.941   3.798   5.498 -0.3140  0.1220  0.2739
17778TIP3   OH274748   0.845   2.394   2.050 -0.1000  0.7838  0.4393
17778TIP3    H174749   0.845   2.341   1.970  1.2611  1.9507 -0.3902
17778TIP3    H274750   0.868   2.482   2.021  2.3251  0.8733  2.2894
17779TIP3   OH274751   4.814   2.315   5.210 -0.0791  0.4951  0.6025
17779TIP3    H174752   4.860   2.233   5.224 -0.9163 -0.2928 -0.9654
17779TIP3    H274753   4.872   2.367   5.155  0.4167  0.9492  1.5306
17780TIP3   OH274754   5.919   5.241   1.720 -0.5474  0.7088  0.1865
17780TIP3    H174755   5.919   5.327   1.678  0.4048  0.5654 -0.1374
17780TIP3    H274756   5.826   5.221   1.734 -0.7914  1.6593  0.0101
17781TIP3   OH274757   3.561   1.567  10.960  0.0859  0.1416  0.4399
17781TIP3    H174758   3.495   1.497  10.953  0.4751 -0.1945  0.0518
17781TIP3    H274759   3.645   1.521  10.957  0.3925  0.7325 -1.5100
17782TIP3   OH274760   3.177   0.276  15.515 -0.6244 -0.3916 -0.4021
17782TIP3    H174761   3.257   0.321  15.489 -0.0703 -0.9057  0.3827
17782TIP3    H274762   3.172   0.200  15.457 -0.3904 -0.5146 -0.2613
17783TIP3   OH274763   3.867   2.522   4.373  0.0060  0.2473  0.1152
17783TIP3    H174764   3.850   2.490   4.285 -1.3171 -0.8563  0.7334
17783TIP3    H274765   3.811   2.599   4.382  0.0948  0.3233  0.0179
17784TIP3   OH274766   0.571   0.329   6.040 -0.0529 -0.5843 -0.1004
17784TIP3    H174767   0.561   0.396   5.972 -1.1324  0.7849  1.3353
17784TIP3    H274768   0.515   0.257   6.012  1.0493 -0.8918 -1.6212
17785TIP3   OH274769   2.218   2.910  12.115  1.1123 -0.2084 -0.0018
17785TIP3    H174770   2.271   2.845  12.162 -0.7994 -1.3106  0.7192
17785TIP3    H274771   2.238   2.894  12.022  1.5970 -0.9956  0.2230
17786TIP3   OH274772   6.759   2.249  13.106  0.8038  0.2283 -0.1309
17786TIP3    H174773   6.802   2.264  13.022 -2.1885 -1.0716 -2.0865
17786TIP3    H274774   6.759   2.154  13.116 -2.9641 -0.0480 -1.2126
17787TIP3   OH274775   3.584   4.483   5.037  0.6589  0.3549 -0.5781
17787TIP3    H174776   3.604   4.459   4.946  1.2818 -0.8909 -0.1421
17787TIP3    H274777   3.660   4.533   5.066  0.9830 -0.2232 -0.4087
17788TIP3   OH274778   0.575   1.996  16.002  0.0541  0.1813  0.6023
17788TIP3    H174779   0.637   2.061  15.968 -0.9486  1.2222  0.7100
17788TIP3    H274780   0.603   1.981  16.092  0.0666  0.7479  0.6933
17789TIP3   OH274781   5.214   5.132   1.262  0.4941  0.0113 -0.1124
17789TIP3    H174782   5.208   5.202   1.197 -1.0729  0.7551  0.7508
17789TIP3    H274783   5.298   5.146   1.304  1.4832 -0.4191 -1.8664
17790TIP3   OH274784   3.649   0.735  12.149  0.6395  0.1986 -0.0474
17790TIP3    H174785   3.685   0.753  12.063 -0.3123  0.7689 -0.3514
17790TIP3    H274786   3.554   0.727  12.134  0.2920  1.5760  1.0957
17791TIP3   OH274787   2.432   2.362   0.041 -0.2206 -0.0819  0.2211
17791TIP3    H174788   2.370   2.426   0.075  1.2745  1.8234 -0.3970
17791TIP3    H274789   2.463   2.400  -0.041  0.0657 -2.0772 -0.6555
17792TIP3   OH274790   1.939   2.851  14.416 -0.2426 -0.1489  0.7961
17792TIP3    H174791   1.903   2.917  14.475 -2.0088 -0.4618  0.1294
17792TIP3    H274792   1.997   2.900  14.358  0.8054  0.3027  2.1793
17793TIP3   OH274793   2.200   4.437  14.703  0.1640  0.1696 -0.7319
17793TIP3    H174794   2.130   4.408  14.645 -0.3322  3.1027 -1.7805
17793TIP3    H274795   2.162   4.433  14.791 -1.5459  2.0239 -1.3161
17794TIP3   OH274796   0.110   5.721  12.482 -0.0143  0.2820  0.2341
17794TIP3    H174797   0.039   5.741  12.421 -1.2890  1.5764  2.0252
17794TIP3    H274798   0.174   5.791  12.469  0.5426 -0.3782 -0.7376
17795TIP3   OH274799   4.996   6.113  15.286  0.6810  0.5558 -0.4896
17795TIP3    H174800   5.027   6.197  15.319 -1.7857  1.8053 -1.1296
17795TIP3    H274801   4.946   6.135  15.208 -1.6308 -1.2554  0.3751
17796TIP3   OH274802   6.556   6.104   4.769  0.2617 -0.1202 -0.0394
17796TIP3    H174803   6.637   6.142   4.803  0.5866 -0.9986  0.1967
17796TIP3    H274804   6.493   6.176   4.771  0.7539  0.3066  0.7590
17797TIP3   OH274805   3.889   4.834   5.135  0.0493  0.4910  0.3160
17797TIP3    H174806   3.853   4.819   5.047  0.2155 -0.5872  0.4211
17797TIP3    H274807   3.887   4.930   5.145  0.4052  0.6657 -1.0185
17798TIP3   OH274808   6.322   1.345   1.713  0.3204  0.7972  0.0460
17798TIP3    H174809   6.397   1.382   1.759  1.6363 -0.0374 -1.3599
17798TIP3    H274810   6.314   1.256   1.748  0.5283  0.5956 -0.4164
17799TIP3   OH274811   0.646   6.252  14.444  0.3083  0.6188  0.2643
17799TIP3    H174812   0.561   6.210  14.434  0.1954  0.7844  0.5000
17799TIP3    H274813   0.665   6.289  14.358 -1.0222  2.7307  0.7816
17800TIP3   OH274814   5.481   0.865  15.760  0.3068 -0.5586 -0.1972
17800TIP3    H174815   5.443   0.952  15.750  0.0812 -0.3317  2.0385
17800TIP3    H274816   5.569   0.873  15.722 -1.5859 -1.1029 -5.4858
17801TIP3   OH274817   0.378   4.373   2.539 -0.3043 -0.4321 -0.2726
17801TIP3    H174818   0.315   4.305   2.562 -2.9817  2.0024  0.1282
17801TIP3    H274819   0.396   4.418   2.621 -0.4677  0.8177 -0.8965
17802TIP3   OH274820   3.873   2.393   3.698  0.1972 -0.3979 -0.3557
17802TIP3    H174821   3.822   2.314   3.713 -1.1332 -0.1807 -3.0383
17802TIP3    H274822   3.956   2.362   3.662  1.2388 -0.6598  2.1063
17803TIP3   OH274823   5.706   5.390  11.739  0.0710 -0.1879 -0.1633
17803TIP3    H174824   5.670   5.423  11.822 -0.4452  0.8158 -0.7744
17803TIP3    H274825   5.799   5.374  11.759 -0.1223 -0.3180  0.7028
17804TIP3   OH274826   4.510   0.192   3.242 -0.5565 -0.6987 -0.1252
17804TIP3    H174827   4.474   0.181   3.154  0.2471 -2.1356 -0.3082
17804TIP3    H274828   4.485   0.280   3.268  0.0792  0.1450 -2.2078
17805TIP3   OH274829   2.725   1.923  14.877 -0.4412 -0.2176 -0.1815
17805TIP3    H174830   2.759   2.009  14.853 -0.5203  0.1441  0.9330
17805TIP3    H274831   2.792   1.862  14.847  0.6879  0.4044  0.9656
17806TIP3   OH274832   4.615   1.994  12.860  0.1370  0.1528 -0.0726
17806TIP3    H174833   4.650   1.983  12.948 -0.5022  1.3689  0.3675
17806TIP3    H274834   4.520   2.005  12.873  0.1738  1.6095 -0.7612
17807TIP3   OH274835   2.732   6.078   5.536 -0.6939 -0.0375  0.1700
17807TIP3    H174836   2.826   6.071   5.550 -0.5729  0.4224 -0.3714
17807TIP3    H274837   2.713   6.171   5.547 -1.2668 -0.2720  1.3206
17808TIP3   OH274838   2.665   5.008   1.491 -0.4633  0.2608  0.6633
17808TIP3    H174839   2.655   4.936   1.554  0.0573 -0.2845  0.1427
17808TIP3    H274840   2.592   5.066   1.509  0.1650  0.5685  2.3550
17809TIP3   OH274841   5.086   5.635   1.878 -0.1883  0.4262  0.2350
17809TIP3    H174842   5.124   5.676   1.801  3.1842 -0.9610  1.0056
17809TIP3    H274843   5.074   5.707   1.940  0.6549  1.0192 -0.2711
17810TIP3   OH274844   0.481   0.024  16.854 -0.1110  0.4285  0.6771
17810TIP3    H174845   0.424  -0.022  16.915 -2.0515  1.0703 -0.5739
17810TIP3    H274846   0.465   0.117  16.871  0.0569  0.6188 -0.1311
17811TIP3   OH274847   6.114   5.917  11.418  0.0591  0.7107 -0.1811
17811TIP3    H174848   6.072   5.978  11.357  1.2080 -0.8301 -2.6497
17811TIP3    H274849   6.207   5.939  11.415  0.3547 -0.4956 -0.3353
17812TIP3   OH274850   5.417   1.376  14.454  0.0282 -0.6022 -0.2056
17812TIP3    H174851   5.330   1.390  14.416  0.1740 -2.6157 -1.4643
17812TIP3    H274852   5.441   1.461  14.491 -1.2634  0.8149 -2.3749
17813TIP3   OH274853   0.853   0.491   5.832 -0.6392 -0.0228 -0.1737
17813TIP3    H174854   0.759   0.503   5.827 -0.7885  0.2058  2.2436
17813TIP3    H274855   0.887   0.575   5.865  0.2917 -0.4410 -0.0200
17814TIP3   OH274856   4.516   3.982  16.555 -0.3732 -0.1688 -0.2347
17814TIP3    H174857   4.429   3.960  16.589 -0.9996  3.8421  1.2887
17814TIP3    H274858   4.569   3.996  16.633  1.3494 -1.2435 -1.1492
17815TIP3   OH274859   2.716   5.093  13.496  0.0020 -0.0510  0.5631
17815TIP3    H174860   2.733   5.187  13.500 -0.3049 -0.0136  1.1043
17815TIP3    H274861   2.799   5.053  13.521  0.1451  0.0753  0.2911
17816TIP3   OH274862   4.239   1.076  12.301 -0.0484 -0.0461 -0.2646
17816TIP3    H174863   4.203   0.993  12.331 -0.9685 -0.3620 -2.0742
17816TIP3    H274864   4.330   1.075  12.330  0.0508 -1.8350 -0.5298
17817TIP3   OH274865   5.114   3.106  16.274 -0.3964 -0.2036 -0.7789
17817TIP3    H174866   5.178   3.047  16.312  1.6754  1.8740 -0.7813
17817TIP3    H274867   5.142   3.117  16.183 -1.1592  0.2203 -0.9754
17818TIP3   OH274868   3.709   2.170   1.983 -0.2102  0.5437  0.0394
17818TIP3    H174869   3.770   2.101   1.956 -0.1551  1.1626 -1.5580
17818TIP3    H274870   3.703   2.227   1.906 -1.0237  1.7670  0.9799
17819TIP3   OH274871   1.530   2.394  13.052 -0.4849  0.0103  0.0696
17819TIP3    H174872   1.545   2.305  13.020  0.4126  0.7080 -1.6238
17819TIP3    H274873   1.602   2.445  13.014 -0.2539  1.2375  2.0275
17820TIP3   OH274874   0.604   3.901   4.984  0.0814  0.1018  0.7806
17820TIP3    H174875   0.638   3.826   5.031 -1.2270 -1.1743 -0.2085
17820TIP3    H274876   0.521   3.871   4.946  0.3093  1.5138 -1.0212
17821TIP3   OH274877   6.770   1.632  15.289  0.1230  0.3643  0.7020
17821TIP3    H174878   6.767   1.611  15.382 -1.3857 -0.4982  0.4753
17821TIP3    H274879   6.752   1.550  15.244 -0.0286  0.9413 -0.3475
17822TIP3   OH274880   1.411   4.313  17.194 -0.4146  0.5542  0.0790
17822TIP3    H174881   1.406   4.261  17.113  0.1266 -1.2952  1.1726
17822TIP3    H274882   1.411   4.404  17.164 -1.5838 -0.0381 -1.9229
17823TIP3   OH274883   5.249   6.120  12.459  0.5221  0.3802  0.0022
17823TIP3    H174884   5.342   6.139  12.447  1.4455 -2.3322  1.9510
17823TIP3    H274885   5.247   6.042  12.513 -2.9457  0.9118  0.8925
17824TIP3   OH274886   4.564   0.370  14.958 -0.6315  0.0290 -0.4161
17824TIP3    H174887   4.557   0.460  14.927 -0.2563  0.2348  0.0849
17824TIP3    H274888   4.475   0.344  14.978 -0.5255  1.0929  1.6662
17825TIP3   OH274889   3.758   0.398  16.307 -0.1780  0.1056 -0.0952
17825TIP3    H174890   3.710   0.466  16.355 -1.0458 -0.0058 -0.7771
17825TIP3    H274891   3.690   0.344  16.267  0.4928 -1.3101  0.6052
17826TIP3   OH274892   0.345   5.231   4.098 -0.2865 -0.4243 -0.4364
17826TIP3    H174893   0.275   5.176   4.134 -1.0648  1.4582  1.1534
17826TIP3    H274894   0.299   5.301   4.052  0.5584  0.3017 -0.2005
17827TIP3   OH274895   0.938   4.178  16.381 -0.0373 -0.0847 -0.1240
17827TIP3    H174896   0.895   4.192  16.465  0.0996 -0.5071  0.0195
17827TIP3    H274897   0.920   4.258  16.331  0.5152  0.4861  0.5732
17828TIP3   OH274898   0.025   1.178   1.613  0.3220 -0.1132 -0.1705
17828TIP3    H174899  -0.013   1.169   1.700 -0.4983 -0.2233 -0.5317
17828TIP3    H274900  -0.030   1.243   1.569  1.0578  0.3487 -0.4300
17829TIP3   OH274901   3.232   2.373   4.879  0.3011  0.0212 -0.0449
17829TIP3    H174902   3.180   2.376   4.959  1.3949 -1.2345  0.7535
17829TIP3    H274903   3.300   2.438   4.892 -0.8716  1.5210 -1.0063
17830TIP3   OH274904   3.492   2.054  10.758 -0.0634  0.0333  0.5658
17830TIP3    H174905   3.567   2.110  10.737 -1.5401  1.2518 -1.8721
17830TIP3    H274906   3.504   1.976  10.703 -0.9201  0.5805 -0.4373
17831TIP3   OH274907   2.806   3.610   5.517  0.3204 -0.1451 -0.4592
17831TIP3    H174908   2.814   3.516   5.504  0.0198  0.0277 -2.2666
17831TIP3    H274909   2.713   3.625   5.531 -0.2469  0.1622 -3.7720
17832TIP3   OH274910   5.174   2.418  16.093 -0.0499  0.3745  0.3212
17832TIP3    H174911   5.207   2.329  16.086 -1.9642 -0.3117 -0.5475
17832TIP3    H274912   5.214   2.452  16.173  3.0046 -0.2088 -0.8333
17833TIP3   OH274913   0.573   0.949   4.820  0.0108 -0.1874  0.4257
17833TIP3    H174914   0.479   0.931   4.821 -0.0327  0.0455  0.7037
17833TIP3    H274915   0.591   0.975   4.730 -0.2322 -0.0338  0.4207
17834TIP3   OH274916   2.624   4.145   6.420  0.0398 -0.3774 -0.2579
17834TIP3    H174917   2.708   4.189   6.411 -0.5001  0.5562 -0.9540
17834TIP3    H274918   2.560   4.209   6.387 -1.1501 -0.3691  1.8796
17835TIP3   OH274919   4.887   5.188   5.173 -0.6021 -0.3579  0.2878
17835TIP3    H174920   4.950   5.130   5.131 -1.3960 -1.4591  0.5752
17835TIP3    H274921   4.802   5.157   5.143 -1.0195  1.9619 -1.2010
17836TIP3   OH274922   6.290   1.672   1.919 -0.4314  0.2564 -0.0045
17836TIP3    H174923   6.229   1.604   1.891 -1.0288 -0.1593  2.1386
17836TIP3    H274924   6.247   1.754   1.896 -0.7391 -0.0523 -0.5594
17837TIP3   OH274925   2.955   0.722  16.304  0.4185 -0.2124 -0.2608
17837TIP3    H174926   2.875   0.775  16.299  0.0823 -0.7724 -0.9819
17837TIP3    H274927   3.002   0.741  16.222  0.9254 -0.0462  0.0631
17838TIP3   OH274928   2.070   1.765  13.383  0.2020 -0.5746 -0.2464
17838TIP3    H174929   2.056   1.702  13.455 -0.4744 -0.9397 -0.6931
17838TIP3    H274930   2.140   1.726  13.331  2.4001  0.8127  1.4758
17839TIP3   OH274931   1.466   4.453   2.350 -0.4421 -0.1811 -0.4287
17839TIP3    H174932   1.395   4.423   2.407  0.9968 -0.8497  1.0950
17839TIP3    H274933   1.446   4.544   2.331 -2.3056 -0.6719 -1.0280
17840TIP3   OH274934   2.557   3.903   0.276  0.2926  0.1125  0.3384
17840TIP3    H174935   2.539   3.879   0.184  1.4123 -0.6787  0.3061
17840TIP3    H274936   2.520   3.831   0.327  0.9157 -0.1629  0.4159
17841TIP3   OH274937   1.371   3.024  17.007 -0.1048 -0.0296  0.0175
17841TIP3    H174938   1.334   2.952  17.058  0.1830 -0.1394  0.0788
17841TIP3    H274939   1.296   3.074  16.977 -0.2754  0.0944  0.6366
17842TIP3   OH274940   5.652   3.461   3.349  0.5019 -0.0512  0.1492
17842TIP3    H174941   5.699   3.421   3.422  0.5962  0.2868  0.2785
17842TIP3    H274942   5.564   3.423   3.353  0.7284 -0.6016 -0.0247
17843TIP3   OH274943   0.616   1.974   3.869 -0.5980  0.7076  0.5382
17843TIP3    H174944   0.524   1.972   3.844 -0.1184 -0.4172 -1.3888
17843TIP3    H274945   0.617   2.011   3.957 -2.9989 -0.5024  1.1440
17844TIP3   OH274946   0.152   2.530   3.143  0.7035  0.0426 -0.9268
17844TIP3    H174947   0.198   2.581   3.077  0.1649 -2.4829 -3.4223
17844TIP3    H274948   0.150   2.441   3.108  1.3326 -1.7498  3.0115
17845TIP3   OH274949   5.358   2.217  11.872 -0.0912  0.1597 -0.2772
17845TIP3    H174950   5.322   2.258  11.951  1.0133  0.4771  0.0767
17845TIP3    H274951   5.311   2.134  11.865 -0.3045  0.1920  0.6300
17846TIP3   OH274952   0.306   2.213  12.495  0.4046  0.0607 -0.1356
17846TIP3    H174953   0.237   2.276  12.476  2.2595  2.6206  0.9242
17846TIP3    H274954   0.261   2.141  12.539 -1.7058  1.1503 -0.3550
17847TIP3   OH274955   5.821   5.662   6.249 -0.1365  0.3893 -0.1881
17847TIP3    H174956   5.728   5.644   6.268  0.1213 -2.3813 -1.0690
17847TIP3    H274957   5.868   5.612   6.316  0.6859 -1.5469 -2.1034
17848TIP3   OH274958   6.046   3.726  11.141  0.1366  0.2447 -0.1395
17848TIP3    H174959   5.991   3.784  11.194 -0.7026 -0.2647 -0.4443
17848TIP3    H274960   6.088   3.669  11.205 -2.3782 -1.6943 -0.0509
17849TIP3   OH274961   5.142   1.268   0.496 -0.6650 -0.5977 -0.1929
17849TIP3    H174962   5.181   1.194   0.449  1.7510  1.6169 -1.9770
17849TIP3    H274963   5.202   1.284   0.569 -0.5393  0.2552 -0.4740
17850TIP3   OH274964   0.792   3.761   5.433 -0.0853 -0.3566  0.1576
17850TIP3    H174965   0.883   3.761   5.462 -0.4374  0.8459  1.3895
17850TIP3    H274966   0.749   3.695   5.487 -0.2205  0.0710  0.5787
17851TIP3   OH274967   4.174   1.292   6.516  0.1158 -0.3849  0.3742
17851TIP3    H174968   4.083   1.299   6.546  0.3304  1.0053  0.7937
17851TIP3    H274969   4.212   1.222   6.570 -1.0507 -2.0212 -0.8193
17852TIP3   OH274970   1.464   0.171  17.042  0.9692  0.0255  0.4596
17852TIP3    H174971   1.410   0.102  17.005 -0.5937  1.4585 -0.0620
17852TIP3    H274972   1.553   0.147  17.019  0.2635 -0.4891 -2.0077
17853TIP3   OH274973   2.308   4.780  13.483 -0.2552  0.1054 -0.4103
17853TIP3    H174974   2.392   4.813  13.516  0.3209 -1.3623 -0.3735
17853TIP3    H274975   2.243   4.819  13.542  0.5600 -0.4149  0.8803
17854TIP3   OH274976   5.914   3.522  10.638  0.2495  0.2525  0.3228
17854TIP3    H174977   5.956   3.488  10.559  2.1194 -0.6926  1.6529
17854TIP3    H274978   5.982   3.571  10.683 -0.8910  1.1197  1.1763
17855TIP3   OH274979   5.365   3.056   3.694 -0.0253  0.5233  0.1930
17855TIP3    H174980   5.421   3.026   3.766 -0.2895  2.5723  1.3233
17855TIP3    H274981   5.402   3.141   3.669 -1.5744  1.0899 -0.2374
17856TIP3   OH274982   5.944   5.513   5.807 -0.0548  0.7015  0.3936
17856TIP3    H174983   5.943   5.574   5.880 -0.9385  0.0496  0.9373
17856TIP3    H274984   6.025   5.534   5.760  1.0037  0.5270  2.0606
17857TIP3   OH274985   1.291   1.061   3.587  0.0136 -0.3133 -0.5856
17857TIP3    H174986   1.284   0.981   3.535  1.2870  0.0956 -1.4322
17857TIP3    H274987   1.295   1.132   3.524 -1.6888  0.5192  0.1730
17858TIP3   OH274988   5.864   3.946  16.048  0.3657 -0.2901  0.2484
17858TIP3    H174989   5.925   3.926  15.976  0.2986 -0.4546  0.2389
17858TIP3    H274990   5.921   3.964  16.123  0.4147 -2.4404  0.7884
17859TIP3   OH274991   6.507   4.062   0.972 -0.1682 -0.4813  0.0393
17859TIP3    H174992   6.548   4.146   0.952  0.2988 -0.3381  1.5228
17859TIP3    H274993   6.530   4.006   0.897  0.1853  0.4669 -0.5823
17860TIP3   OH274994   6.250   2.007  14.378  1.1087 -0.2832 -0.4838
17860TIP3    H174995   6.304   1.940  14.421 -1.6179 -1.1785  1.8791
17860TIP3    H274996   6.230   2.070  14.447  0.8885  1.2220 -1.8493
17861TIP3   OH274997   4.411   1.564   3.867 -0.1452  0.5582 -0.8430
17861TIP3    H174998   4.393   1.470   3.868 -0.8084  0.6804  0.5374
17861TIP3    H274999   4.393   1.591   3.777 -1.8665 -0.2795 -0.7904
17862TIP3   OH275000   5.342   0.639  13.141  0.1819 -0.0199 -0.0224
17862TIP3    H175001   5.375   0.710  13.197 -0.6828 -1.2008  2.1153
17862TIP3    H275002   5.264   0.676  13.100  1.0907  1.0275 -0.8520
17863TIP3   OH275003   6.156   6.442   0.154  0.0343  0.0347  0.3588
17863TIP3    H175004   6.082   6.495   0.125 -0.5636 -0.4801  0.9001
17863TIP3    H275005   6.173   6.471   0.244 -0.3065 -0.6831  0.6665
17864TIP3   OH275006   4.190   1.296   2.691 -0.0452 -0.1456 -0.0920
17864TIP3    H175007   4.242   1.242   2.632 -1.0856 -0.4724 -0.7315
17864TIP3    H275008   4.099   1.278   2.666 -0.4971 -0.1662  1.5130
17865TIP3   OH275009   3.159   4.806  16.907  0.0997 -0.1147  0.2328
17865TIP3    H175010   3.090   4.871  16.923  0.6133  0.3929  0.4239
17865TIP3    H275011   3.239   4.848  16.940  0.4924 -0.7102  0.0442
17866TIP3   OH275012   3.657   1.040  11.185 -0.6783  0.3808  0.1020
17866TIP3    H175013   3.666   0.947  11.168 -1.3872 -0.0925  2.0704
17866TIP3    H275014   3.720   1.058  11.254 -1.8717  0.9275  1.0807
17867TIP3   OH275015   4.457   5.755  15.508 -0.5122  0.0725 -0.3193
17867TIP3    H175016   4.364   5.741  15.520 -0.3900  0.0821  0.6629
17867TIP3    H275017   4.489   5.674  15.467 -1.2546  0.7816 -2.4561
17868TIP3   OH275018   4.591   3.937  11.584 -0.1228  0.0170 -0.0780
17868TIP3    H175019   4.546   3.953  11.667 -0.1710  0.0646 -0.1134
17868TIP3    H275020   4.522   3.912  11.523  0.0514 -1.2101  0.1978
17869TIP3   OH275021   1.706   1.767  12.125 -0.3933  0.5884  0.3774
17869TIP3    H175022   1.622   1.743  12.086 -0.6532  2.5484 -0.3800
17869TIP3    H275023   1.684   1.823  12.199  0.2185  2.4777 -0.8027
17870TIP3   OH275024   1.383   1.415  14.228  0.0332 -0.1334 -0.1702
17870TIP3    H175025   1.356   1.500  14.265 -0.7058 -0.8433  0.9795
17870TIP3    H275026   1.320   1.400  14.157 -0.9466 -0.4979  0.7395
17871TIP3   OH275027   2.142   2.251   3.997  0.7907  0.3019  0.2713
17871TIP3    H175028   2.173   2.222   4.083  1.0377 -1.1693 -0.2953
17871TIP3    H275029   2.149   2.174   3.941  0.0810  1.0788 -0.9378
17872TIP3   OH275030   1.555   1.049  14.831  0.9707  0.7342 -0.0761
17872TIP3    H175031   1.510   0.969  14.858  0.5533  1.6160  2.0510
17872TIP3    H275032   1.625   1.019  14.773 -0.1518 -0.9948 -0.6093
17873TIP3   OH275033   4.961   5.429   0.577 -0.1714  0.4114  0.0575
17873TIP3    H175034   4.974   5.352   0.633  1.5235 -0.2655 -1.1686
17873TIP3    H275035   5.038   5.483   0.591 -0.9963  1.5508  0.3395
17874TIP3   OH275036   2.049   2.628  13.164  0.2566 -0.0164 -0.0362
17874TIP3    H175037   2.069   2.537  13.183  0.7100  0.1026  0.0692
17874TIP3    H275038   1.960   2.641  13.196  0.7290 -0.0224  1.3260
17875TIP3   OH275039   5.564   6.402  13.577 -0.1176 -0.5405  0.0671
17875TIP3    H175040   5.652   6.379  13.608  1.2133 -0.5415 -3.3311
17875TIP3    H275041   5.579   6.463  13.505 -3.0682  1.3033  0.8296
17876TIP3   OH275042   3.523   0.410   2.160  0.4550  0.2954  0.4307
17876TIP3    H175043   3.580   0.334   2.157  2.2503  1.5969  0.3287
17876TIP3    H275044   3.561   0.466   2.227 -1.4262  0.6732  1.2350
17877TIP3   OH275045   0.250   4.786  13.711 -0.3317  0.0076 -0.2390
17877TIP3    H175046   0.210   4.858  13.663  1.4035  1.4636  0.3584
17877TIP3    H275047   0.334   4.772  13.667 -0.7353 -1.8669 -0.4956
17878TIP3   OH275048   4.094   5.969  14.957 -0.5844  0.0193 -0.1584
17878TIP3    H175049   4.158   5.898  14.954 -1.4450 -0.7893  0.2778
17878TIP3    H275050   4.147   6.048  14.966  0.3136 -0.8013  2.7767
17879TIP3   OH275051   5.176   4.546   2.452 -0.1201  0.0384  0.2642
17879TIP3    H175052   5.140   4.463   2.420 -1.8757  0.7301  0.3359
17879TIP3    H275053   5.237   4.573   2.384 -1.0297 -0.3394 -0.7374
17880TIP3   OH275054   4.216   1.672  17.006 -0.0637  0.1475  0.0960
17880TIP3    H175055   4.206   1.636  16.917 -2.7711 -1.4812  0.9195
17880TIP3    H275056   4.294   1.629  17.040  0.2125 -0.2940 -1.0309
17881TIP3   OH275057   3.215   2.324   5.888 -0.2564  0.2990  0.4359
17881TIP3    H175058   3.262   2.247   5.855  1.2695  0.9578  0.9623
17881TIP3    H275059   3.134   2.289   5.925 -0.0395 -0.9320 -0.1948
17882TIP3   OH275060   5.757   0.458   4.656  0.3069  0.3761  0.1535
17882TIP3    H175061   5.761   0.518   4.731 -1.0232  0.3667  0.2550
17882TIP3    H275062   5.847   0.427   4.646  0.6205  0.8202  1.3821
17883TIP3   OH275063   2.181   4.633  12.242 -0.3197 -0.0031  0.6388
17883TIP3    H175064   2.274   4.646  12.261 -0.4973  1.9571  0.4626
17883TIP3    H275065   2.172   4.661  12.150 -1.5595  3.1098  1.5711
17884TIP3   OH275066   6.310   6.738   3.002 -0.5226  0.3514  0.2046
17884TIP3    H175067   6.364   6.660   2.994 -0.3918  0.4262  0.3449
17884TIP3    H275068   6.275   6.753   2.914 -0.3957  0.2448  0.1366
17885TIP3   OH275069   0.594   0.488   1.047 -0.4037  0.0225 -0.3071
17885TIP3    H175070   0.608   0.401   1.011 -1.3320  0.3307 -1.4744
17885TIP3    H275071   0.510   0.516   1.010 -1.9362  0.0235  2.7970
17886TIP3   OH275072   5.986   1.164  16.402  0.0619 -0.4201  0.1165
17886TIP3    H175073   5.919   1.233  16.405 -1.0396 -1.4137 -0.6802
17886TIP3    H275074   6.052   1.192  16.466 -0.2484  1.4635 -0.3331
17887TIP3   OH275075   6.511   2.899   3.646  0.8328 -0.0738  0.4330
17887TIP3    H175076   6.552   2.830   3.594 -0.4988 -0.6827  0.1216
17887TIP3    H275077   6.535   2.980   3.601  3.2008 -0.2049  1.3417
17888TIP3   OH275078   6.189   5.206   2.410  0.3297  0.0752 -0.1293
17888TIP3    H175079   6.203   5.118   2.444 -1.9585 -0.7210 -1.0376
17888TIP3    H275080   6.098   5.227   2.433  0.3794  1.6111 -1.1668
17889TIP3   OH275081   2.165   0.261  14.559  0.0152  0.6602 -0.0856
17889TIP3    H175082   2.076   0.251  14.591  0.2914  1.9564  1.1747
17889TIP3    H275083   2.191   0.173  14.532 -1.2668  0.0718  0.5448
17890TIP3   OH275084   6.019   0.946  15.005 -0.1260  0.2996  0.2922
17890TIP3    H175085   6.012   1.041  14.995 -1.2743  0.2728  0.6235
17890TIP3    H275086   6.018   0.912  14.916 -1.3182  0.5272  0.1984
17891TIP3   OH275087   3.167   4.521   4.093 -0.5068  0.1555  0.1451
17891TIP3    H175088   3.256   4.513   4.057  0.0989  0.3802  1.5405
17891TIP3    H275089   3.151   4.437   4.136 -0.7245  0.3483  0.4455
17892TIP3   OH275090   3.215   4.292  17.210 -0.4719  0.5467 -0.5021
17892TIP3    H175091   3.294   4.339  17.238 -0.3085  0.0437 -0.1080
17892TIP3    H275092   3.182   4.251  17.290 -1.8924  1.8346 -0.3886
17893TIP3   OH275093   4.426   3.173   0.090 -0.1473 -0.5542 -0.1908
17893TIP3    H175094   4.446   3.120   0.167  1.7153  0.5622  0.1630
17893TIP3    H275095   4.512   3.199   0.056 -0.9593  1.4356 -0.8696
17894TIP3   OH275096   4.194   2.745   0.893 -0.7628  0.5919 -0.0275
17894TIP3    H175097   4.183   2.657   0.929 -1.8727  1.7619  2.7706
17894TIP3    H275098   4.173   2.736   0.800 -0.4572 -2.1261  0.0767
17895TIP3   OH275099   6.290   3.791   5.981  0.0109  0.4926 -0.1162
17895TIP3    H175100   6.315   3.884   5.981 -0.0023  0.5079  1.2916
17895TIP3    H275101   6.195   3.791   5.991  0.2034  0.3342  2.3310
17896TIP3   OH275102   5.618   0.720  15.261 -0.3708  0.3152  0.9008
17896TIP3    H175103   5.618   0.635  15.218 -2.4331  0.3664  0.7056
17896TIP3    H275104   5.642   0.701  15.352 -0.0509 -0.3562  0.6823
17897TIP3   OH275105   0.834   5.464   4.256 -0.0123  0.8435  0.3462
17897TIP3    H175106   0.918   5.445   4.299 -0.0856 -1.6247 -0.4167
17897TIP3    H275107   0.773   5.401   4.294 -0.8155  0.6961 -1.1001
17898TIP3   OH275108   3.675   2.427  11.894  0.2076 -0.3268 -0.1056
17898TIP3    H175109   3.590   2.397  11.927  0.1623 -0.7271 -0.5832
17898TIP3    H275110   3.706   2.489  11.961 -0.7666  0.3515 -0.2628
17899TIP3   OH275111   3.613   5.035  12.317  0.8136  0.4337  0.3810
17899TIP3    H175112   3.584   4.957  12.364  0.7180  1.8283  2.7728
17899TIP3    H275113   3.565   5.032  12.235 -0.4830 -1.1329  1.1407
17900TIP3   OH275114   1.159   1.465   0.259 -0.5721  0.3491 -0.3941
17900TIP3    H175115   1.139   1.380   0.297 -1.5182  0.2767 -1.0299
17900TIP3    H275116   1.122   1.528   0.320  0.8332  0.3660  0.5013
17901TIP3   OH275117   2.475   4.603   5.173 -0.0930 -0.3029 -0.1615
17901TIP3    H175118   2.385   4.634   5.187 -0.0467 -0.4010  0.3922
17901TIP3    H275119   2.484   4.528   5.232  0.1081 -0.7785 -0.7801
17902TIP3   OH275120   4.957   6.174   6.050 -0.2155 -0.2086 -0.2316
17902TIP3    H175121   4.935   6.266   6.031  1.5095  0.3456  0.2766
17902TIP3    H275122   4.891   6.146   6.113  0.2868  1.2859  1.0235
17903TIP3   OH275123   2.729   5.382   2.243  0.4103 -0.1829 -0.2069
17903TIP3    H175124   2.771   5.455   2.288 -2.3701  1.2086  0.3602
17903TIP3    H275125   2.704   5.322   2.313  1.3531 -0.9957 -0.5384
17904TIP3   OH275126   3.215   3.427  16.747 -0.6788  0.4518 -0.2548
17904TIP3    H175127   3.218   3.339  16.709  1.6970  0.8331 -1.1194
17904TIP3    H275128   3.223   3.414  16.841 -1.2683 -0.2824 -0.3015
17905TIP3   OH275129   6.700   3.617   2.586 -0.3831  0.4699  0.4949
17905TIP3    H175130   6.675   3.525   2.587 -0.2091  0.4011 -0.4103
17905TIP3    H275131   6.793   3.616   2.562  0.1401  0.7907  2.3845
17906TIP3   OH275132   5.561   3.737   4.467 -0.0194  0.0319 -0.1305
17906TIP3    H175133   5.597   3.791   4.538  0.3091  0.0441 -0.3044
17906TIP3    H275134   5.593   3.649   4.485 -0.1949 -0.0252 -0.0923
17907TIP3   OH275135   5.098   5.379   4.876 -0.8856  0.7829  0.0522
17907TIP3    H175136   5.007   5.362   4.899 -0.6537 -0.9503 -0.2021
17907TIP3    H275137   5.140   5.400   4.959 -1.4063  1.1287  0.2366
17908TIP3   OH275138   2.996   4.561   2.396 -0.3408 -0.2896 -1.0825
17908TIP3    H175139   2.947   4.589   2.319  1.0598 -0.5059 -2.1063
17908TIP3    H275140   3.078   4.612   2.392  0.1815 -1.0338 -0.2938
17909TIP3   OH275141   3.339   1.173  15.640 -0.5774  0.1464 -0.1509
17909TIP3    H175142   3.260   1.226  15.649 -1.1282 -0.6362 -0.2669
17909TIP3    H275143   3.307   1.083  15.640  0.3745 -0.2012  0.3814
17910TIP3   OH275144   2.562   0.090   4.163  0.2156  0.3801 -0.2819
17910TIP3    H175145   2.618   0.150   4.114 -2.8406  2.9657 -0.9500
17910TIP3    H275146   2.533   0.140   4.238 -3.0360  0.1543 -1.2350
17911TIP3   OH275147   4.903   6.505   6.024  0.3467  0.3688 -0.1198
17911TIP3    H175148   4.832   6.514   6.088  1.4690  2.3294  0.9232
17911TIP3    H275149   4.859   6.505   5.939 -1.0274 -0.3747  0.5550
17912TIP3   OH275150   5.467   1.745  16.973  0.2454 -0.1732 -0.4540
17912TIP3    H175151   5.559   1.723  16.957  0.0223 -1.4777 -0.0333
17912TIP3    H275152   5.422   1.660  16.976 -0.9757  0.4485 -0.6652
17913TIP3   OH275153   0.648   5.215  13.814  0.5185  0.5520 -0.4385
17913TIP3    H175154   0.571   5.185  13.862  1.1719  1.1878  1.0892
17913TIP3    H275155   0.676   5.139  13.764  0.2204 -0.3996  0.7845
17914TIP3   OH275156   5.892   2.253  12.486  0.3493 -0.4732 -0.2441
17914TIP3    H175157   5.940   2.318  12.537  0.7952 -1.3648  0.4962
17914TIP3    H275158   5.808   2.295  12.466  0.8201  0.5106 -0.2194
17915TIP3   OH275159   0.627   5.337   5.322 -0.2420 -0.2020 -0.5515
17915TIP3    H175160   0.593   5.308   5.406  0.0579 -0.7065 -0.6008
17915TIP3    H275161   0.574   5.413   5.299 -0.2100  0.0389  0.1737
17916TIP3   OH275162   3.310   4.065  13.482  0.3180  0.1459  0.4312
17916TIP3    H175163   3.305   4.019  13.398  1.9659 -0.4257  0.6270
17916TIP3    H275164   3.262   4.008  13.543  0.0826  0.0036  0.1160
17917TIP3   OH275165   0.448   3.209  13.522  0.2399  0.3748 -0.0872
17917TIP3    H175166   0.400   3.133  13.489 -1.8769  0.4794  2.4181
17917TIP3    H275167   0.464   3.189  13.615  1.8841  1.9523  0.0440
17918TIP3   OH275168   6.466   2.387   5.724 -0.3111 -0.0084  0.0203
17918TIP3    H175169   6.378   2.394   5.687  0.6909 -0.9769 -2.8096
17918TIP3    H275170   6.476   2.293   5.744 -0.5274  0.3683  2.2049
17919TIP3   OH275171   5.310   2.588   5.320  0.5296  0.3614  0.7114
17919TIP3    H175172   5.266   2.503   5.320 -0.6845  0.8227 -2.7490
17919TIP3    H275173   5.360   2.589   5.238  1.7123  2.4199  1.3920
17920TIP3   OH275174   1.301   6.311   0.618  0.0002 -0.0337  0.3338
17920TIP3    H175175   1.276   6.278   0.531  1.6123  1.0749 -0.5949
17920TIP3    H275176   1.221   6.351   0.652 -0.3851  0.4958 -1.1268
17921TIP3   OH275177   3.811   6.578   1.732 -0.3973 -0.1023  0.0449
17921TIP3    H175178   3.756   6.559   1.656  0.5829  0.9998 -0.9815
17921TIP3    H275179   3.901   6.570   1.699  0.0458  1.3749  0.8019
17922TIP3   OH275180   4.965   2.652   6.762 -0.4060  0.0533  0.2679
17922TIP3    H175181   4.965   2.718   6.692  2.6486  0.0903  0.1643
17922TIP3    H275182   4.873   2.628   6.772 -1.2352  1.8596 -2.0277
17923TIP3   OH275183   0.500   2.038   6.689  0.4040 -0.2405 -0.5928
17923TIP3    H175184   0.460   2.073   6.610  0.7378 -1.5195 -1.3500
17923TIP3    H275185   0.426   2.005   6.741  0.1968  0.4946 -0.4073
17924TIP3   OH275186   3.684   1.563   6.784  0.5485 -0.6010  0.4783
17924TIP3    H175187   3.667   1.584   6.876 -0.0100 -0.3975  0.3288
17924TIP3    H275188   3.753   1.625   6.758  0.8673 -0.8073  0.8185
17925TIP3   OH275189   6.378   6.107  11.618 -0.2765  0.3199 -0.1022
17925TIP3    H175190   6.365   6.178  11.555 -0.8620 -0.1659 -0.5377
17925TIP3    H275191   6.347   6.144  11.701 -1.0601  0.4137 -0.4252
17926TIP3   OH275192   3.879   1.437   2.301  0.0281  0.1939 -0.0980
17926TIP3    H175193   3.856   1.442   2.209 -0.1274 -0.7668 -0.1187
17926TIP3    H275194   3.872   1.527   2.333 -0.9706  0.3589 -0.7693
17927TIP3   OH275195   1.881   2.625   1.308  0.3458  0.5348 -0.3525
17927TIP3    H175196   1.835   2.655   1.386  0.0429  1.1141 -0.7489
17927TIP3    H275197   1.831   2.548   1.279  0.6304  0.1389  0.1788
17928TIP3   OH275198   3.494   0.188   0.795 -0.4637 -0.0260 -0.0676
17928TIP3    H175199   3.585   0.192   0.764 -1.1493  1.1417 -2.1851
17928TIP3    H275200   3.471   0.280   0.812 -0.6891 -0.4736  2.4193
17929TIP3   OH275201   3.026   5.119  13.857  0.2660  0.1611  0.5798
17929TIP3    H175202   3.039   5.036  13.811 -1.6498  0.8879 -1.4887
17929TIP3    H275203   3.114   5.155  13.867  1.0291 -1.5616  0.4663
17930TIP3   OH275204   5.532   1.572   5.239 -0.6142 -0.0516  0.2650
17930TIP3    H175205   5.593   1.499   5.232 -1.3414 -0.6669  0.2311
17930TIP3    H275206   5.564   1.637   5.177 -0.4711 -0.7193 -0.3683
17931TIP3   OH275207   1.786   4.881   0.162  0.3912 -0.7840 -0.3972
17931TIP3    H175208   1.791   4.799   0.112 -0.9620 -0.6340 -0.8173
17931TIP3    H275209   1.700   4.916   0.141  0.5445  0.2296  0.6073
17932TIP3   OH275210   4.016   5.088   6.059  0.0469  0.0764  0.3217
17932TIP3    H175211   4.084   5.046   6.111 -0.4287  0.9880  1.7355
17932TIP3    H275212   3.958   5.129   6.123 -0.1710  1.8695 -0.9503
17933TIP3   OH275213   5.461   0.747   5.426  0.7487  0.0233  0.1972
17933TIP3    H175214   5.497   0.676   5.479  0.1989  0.8221  1.7133
17933TIP3    H275215   5.370   0.723   5.412  0.6610  0.2336  0.3916
17934TIP3   OH275216   3.476   2.696   5.945 -0.3479 -0.2637 -0.1106
17934TIP3    H175217   3.541   2.706   6.015 -0.2993  0.7664 -0.2845
17934TIP3    H275218   3.476   2.602   5.926  2.8537 -0.0808 -1.7480
17935TIP3   OH275219   0.377   6.418  16.826  0.2670 -0.3998  0.9629
17935TIP3    H175220   0.411   6.334  16.794  0.1994  0.3677 -1.2813
17935TIP3    H275221   0.282   6.406  16.825  0.2888 -0.7567  2.0580
17936TIP3   OH275222   4.795   6.123   1.155 -0.2844 -0.1715 -0.9800
17936TIP3    H175223   4.739   6.191   1.194  2.0252  0.2161  2.0965
17936TIP3    H275224   4.883   6.161   1.158  1.1589 -3.2881  1.2032
17937TIP3   OH275225   2.743   3.359   0.124 -0.1173 -0.1237  0.5575
17937TIP3    H175226   2.801   3.417   0.074 -1.1772 -0.8943 -1.7416
17937TIP3    H275227   2.758   3.272   0.086 -2.3674 -0.4126  0.1989
17938TIP3   OH275228   4.591   5.837   0.683  0.4324 -0.4384  0.3611
17938TIP3    H175229   4.609   5.872   0.770 -0.4311 -0.7152  0.6537
17938TIP3    H275230   4.501   5.807   0.687 -0.7559  2.3985 -1.5308
17939TIP3   OH275231   2.831   5.481  13.860 -0.8689  1.1976 -0.3714
17939TIP3    H175232   2.869   5.569  13.858  0.5228  0.6156 -1.5485
17939TIP3    H275233   2.780   5.475  13.779 -2.0430  1.3441  0.3350
17940TIP3   OH275234   0.261   1.347  16.182 -0.6806 -0.4082 -0.1998
17940TIP3    H175235   0.274   1.440  16.197 -1.3797 -0.2759 -0.3844
17940TIP3    H275236   0.245   1.310  16.269 -2.3995 -0.0204 -0.3158
17941TIP3   OH275237   0.314   1.153   1.579  0.0310  0.0596 -0.3213
17941TIP3    H175238   0.325   1.085   1.645  2.0624  1.8622  1.3103
17941TIP3    H275239   0.228   1.191   1.599  0.3412  0.1591  0.8782
17942TIP3   OH275240   2.300   0.714  15.931 -0.5305  0.2128  0.3960
17942TIP3    H175241   2.288   0.700  16.025  0.0937 -1.1936  0.2904
17942TIP3    H275242   2.395   0.719  15.920 -0.5304 -0.9505 -0.3112
17943TIP3   OH275243   0.795   4.740   1.011  0.2668  0.1256 -0.4375
17943TIP3    H175244   0.699   4.738   1.023  0.1624 -2.5020 -1.1467
17943TIP3    H275245   0.829   4.756   1.099 -0.8171 -2.2891  0.4974
17944TIP3   OH275246   6.773   0.921   0.909  0.0805  0.0325 -0.1269
17944TIP3    H175247   6.743   0.834   0.934  0.2047 -0.8192 -2.7144
17944TIP3    H275248   6.848   0.905   0.852  0.2383  1.8438 -0.4911
17945TIP3   OH275249   1.866   3.341   6.258 -0.1878 -0.1815  0.1521
17945TIP3    H175250   1.838   3.364   6.170 -3.6119 -0.0968  1.1239
17945TIP3    H275251   1.836   3.251   6.271  2.8413 -1.2857  0.3458
17946TIP3   OH275252   4.592   4.799   3.947  0.0235  0.3088  0.6505
17946TIP3    H175253   4.687   4.810   3.937  0.0431  0.5778  1.0885
17946TIP3    H275254   4.566   4.746   3.871  0.7753 -1.2306  1.4242
17947TIP3   OH275255   1.705   5.445  12.583  0.1222  0.0327  0.2632
17947TIP3    H175256   1.773   5.379  12.595 -0.0505 -0.4113 -1.0282
17947TIP3    H275257   1.665   5.455  12.669  2.9135  1.5560  1.5099
17948TIP3   OH275258   6.487   3.412   0.260  0.1073 -0.1158 -0.1471
17948TIP3    H175259   6.478   3.485   0.198  1.4487 -0.4482 -0.7875
17948TIP3    H275260   6.529   3.452   0.337 -0.0066 -0.0314 -0.1284
17949TIP3   OH275261   5.944   3.601  17.193 -0.5618  0.1926  0.1708
17949TIP3    H175262   5.992   3.537  17.246  1.0656  1.8760  0.8913
17949TIP3    H275263   5.968   3.581  17.103 -0.3298 -0.4166  0.3638
17950TIP3   OH275264   1.790   5.878  15.315 -0.5283  0.0848 -0.1467
17950TIP3    H175265   1.870   5.931  15.322  0.7971 -1.8668  0.2970
17950TIP3    H275266   1.790   5.846  15.225  0.8366 -2.2473  0.5943
17951TIP3   OH275267   1.916   3.765  11.858  0.8184  0.3564  0.1987
17951TIP3    H175268   1.994   3.817  11.839  0.4957 -0.1550 -3.2228
17951TIP3    H275269   1.938   3.677  11.827 -1.2109  0.3173 -1.3564
17952TIP3   OH275270   0.457   0.596  11.954 -0.0740 -0.0026  0.2359
17952TIP3    H175271   0.460   0.620  11.861 -1.3160 -2.9084 -0.6539
17952TIP3    H275272   0.365   0.610  11.978 -0.3386 -1.6586  0.2693
17953TIP3   OH275273   6.635   2.469  16.767  0.4673  0.2077 -0.4950
17953TIP3    H175274   6.571   2.539  16.781  0.2593 -0.2492  1.0358
17953TIP3    H275275   6.598   2.393  16.811  0.6971 -0.8943 -2.1152
17954TIP3   OH275276   4.680   4.402   2.847  0.0870 -0.6154  0.0828
17954TIP3    H175277   4.711   4.479   2.894 -1.5006  0.6244 -0.8147
17954TIP3    H275278   4.744   4.334   2.869  1.2292  0.7807  1.3416
17955TIP3   OH275279   2.818   1.239  11.032  0.3282 -0.2519  0.6126
17955TIP3    H175280   2.859   1.225  10.947 -0.8380 -2.4345  0.3377
17955TIP3    H275281   2.738   1.186  11.029 -1.6068  2.3805  1.7718
17956TIP3   OH275282   5.300   4.723   1.986  0.4258  0.2310 -0.0039
17956TIP3    H175283   5.330   4.811   1.964  1.1480 -0.3598 -1.6318
17956TIP3    H275284   5.251   4.695   1.908 -1.1990 -0.2160  1.1443
17957TIP3   OH275285   6.359   1.500  14.742 -0.3500  0.0325  0.1931
17957TIP3    H175286   6.445   1.497  14.702 -0.8920  0.5104 -1.0603
17957TIP3    H275287   6.376   1.520  14.834  0.7844  2.6393 -0.4937
17958TIP3   OH275288   0.272   0.143  16.586  0.3104 -0.1076  1.3461
17958TIP3    H175289   0.205   0.154  16.653 -1.3198  2.1258 -0.4863
17958TIP3    H275290   0.298   0.051  16.592 -2.2320 -0.8041  2.7803
17959TIP3   OH275291   3.099   2.079   2.379  0.1752  0.4463 -0.6738
17959TIP3    H175292   3.114   2.093   2.473  0.6810  1.9027 -0.9449
17959TIP3    H275293   3.024   2.020   2.376 -0.0764  0.6564  0.6538
17960TIP3   OH275294   3.723   6.514  14.828 -0.0012  0.2139 -0.1121
17960TIP3    H175295   3.790   6.470  14.881  0.2728  0.0790 -0.5677
17960TIP3    H275296   3.645   6.515  14.884  0.1538 -0.3473  0.1206
17961TIP3   OH275297   6.193   1.265  16.561 -0.1064 -0.5241 -0.4120
17961TIP3    H175298   6.268   1.214  16.590  0.0817 -1.1258 -1.8897
17961TIP3    H275299   6.225   1.356  16.558 -0.2396 -0.3649  1.5276
17962TIP3   OH275300   2.503   3.337  12.718  0.0278 -0.2609 -0.2490
17962TIP3    H175301   2.549   3.331  12.634 -2.0132 -0.2229 -1.4521
17962TIP3    H275302   2.487   3.430  12.730  1.1191 -0.1833  0.6693
17963TIP3   OH275303   1.140   5.937   4.922 -0.4863 -0.4285 -0.2769
17963TIP3    H175304   1.122   5.861   4.867  0.9889 -0.0354 -1.3609
17963TIP3    H275305   1.133   6.012   4.862  0.1005  0.0992  0.3005
17964TIP3   OH275306   1.311   6.274   3.336  0.2119  0.1626  0.3194
17964TIP3    H175307   1.269   6.337   3.278 -1.5397 -2.3948 -1.4015
17964TIP3    H275308   1.242   6.245   3.395  0.8763 -0.4213  0.8248
17965TIP3   OH275309   0.712   4.641  14.671  0.0613  0.6533  0.2523
17965TIP3    H175310   0.807   4.645  14.684 -0.0273  0.5086  0.9721
17965TIP3    H275311   0.675   4.640  14.759 -0.5910  0.1890 -0.0117
17966TIP3   OH275312   1.952   3.449  15.803 -0.1343 -0.0748  0.0689
17966TIP3    H175313   1.923   3.539  15.792  0.5999  0.2883  0.9961
17966TIP3    H275314   1.872   3.398  15.810 -0.5937  0.8857  2.4942
17967TIP3   OH275315   5.358   1.348   5.287  0.0132  0.2588 -0.5598
17967TIP3    H175316   5.379   1.438   5.263  0.6546  0.0191 -0.8955
17967TIP3    H275317   5.336   1.353   5.380  0.4384  0.6990 -0.4786
17968TIP3   OH275318   1.902   3.519  17.273 -0.0631 -0.4543 -0.0425
17968TIP3    H175319   1.856   3.448  17.318 -0.1147  0.4018  1.3225
17968TIP3    H275320   1.990   3.485  17.258 -0.1975 -0.9454  0.2662
17969TIP3   OH275321   1.573   1.616   1.333 -0.0258  0.0122 -0.6380
17969TIP3    H175322   1.576   1.708   1.360 -1.3217 -0.3483  0.8793
17969TIP3    H275323   1.636   1.572   1.390 -0.3042 -0.2290 -0.5152
17970TIP3   OH275324   0.121   6.779   4.787  0.6999 -1.2095  0.0328
17970TIP3    H175325   0.173   6.712   4.742  0.2461 -0.2097 -2.0817
17970TIP3    H275326   0.184   6.849   4.805  0.5951 -1.0125 -0.3540
17971TIP3   OH275327   5.548   1.548  14.714  0.1893  0.2206 -0.2729
17971TIP3    H175328   5.491   1.623  14.697 -1.0412 -0.8950 -1.2423
17971TIP3    H275329   5.491   1.481  14.750  0.9456 -0.7951 -0.8989
17972TIP3   OH275330   5.547   1.848   5.325  0.2141  0.5524 -0.5087
17972TIP3    H175331   5.634   1.809   5.339  0.4024  1.3675  0.7626
17972TIP3    H275332   5.511   1.799   5.251  2.0283  0.6581 -1.5268
17973TIP3   OH275333   5.972   2.960   6.408 -0.2809 -0.1497 -0.4237
17973TIP3    H175334   5.899   2.939   6.466 -0.3870 -0.8103 -0.7879
17973TIP3    H275335   5.992   3.052   6.427 -0.2505 -0.3826  0.7245
17974TIP3   OH275336   2.693   5.020  12.318  0.2074 -0.2115  0.4234
17974TIP3    H175337   2.671   5.076  12.393 -0.1354  1.1208 -0.6342
17974TIP3    H275338   2.626   4.951  12.320 -0.1057  0.1018  1.0364
17975TIP3   OH275339   2.991   0.871   5.427  0.2322 -0.0549  0.2105
17975TIP3    H175340   2.916   0.833   5.380 -1.1087 -3.0303  4.2225
17975TIP3    H275341   3.066   0.821   5.397 -0.2942 -0.7125 -0.0312
17976TIP3   OH275342   0.433   5.247   1.775 -0.3843 -0.6453  0.2502
17976TIP3    H175343   0.362   5.231   1.713 -0.7312 -0.5257  0.6090
17976TIP3    H275344   0.391   5.245   1.861 -0.4350  1.8245  0.3629
17977TIP3   OH275345   0.345   3.864  11.763 -0.1657  0.0265 -0.1210
17977TIP3    H175346   0.363   3.942  11.816  2.8219 -0.3327 -0.4273
17977TIP3    H275347   0.329   3.794  11.826 -1.2556  0.5404  0.1852
17978TIP3   OH275348   6.314   1.158   3.486  0.2136  0.0146  0.0270
17978TIP3    H175349   6.305   1.063   3.495  1.6839 -0.0912  0.5556
17978TIP3    H275350   6.315   1.173   3.391 -0.1524 -0.4770 -0.0607
17979TIP3   OH275351   4.088   4.983  12.473 -0.4413  0.4365 -0.2924
17979TIP3    H175352   3.996   4.971  12.449 -0.5879 -1.7871  1.0827
17979TIP3    H275353   4.136   4.929  12.410 -0.6103 -3.0030  2.2496
17980TIP3   OH275354   1.710   5.706   2.976  0.0146 -0.4271  0.0417
17980TIP3    H175355   1.622   5.684   2.948 -0.1257  1.6184 -1.3324
17980TIP3    H275356   1.760   5.716   2.895  0.5921  1.8551  0.5862
17981TIP3   OH275357   5.679   3.638   6.439 -0.0295  0.1388  0.1558
17981TIP3    H175358   5.761   3.623   6.486 -1.3761 -1.9134  2.0494
17981TIP3    H275359   5.618   3.573   6.475 -2.5359  1.6101 -1.1212
17982TIP3   OH275360   3.492   5.067   4.907  0.7622  0.0593  0.2942
17982TIP3    H175361   3.579   5.106   4.896 -0.3049  2.3590 -0.5256
17982TIP3    H275362   3.468   5.036   4.819  0.7996 -0.7524  0.5577
17983TIP3   OH275363   3.334   1.415  14.230  0.0324 -0.1093 -0.3088
17983TIP3    H175364   3.274   1.347  14.200 -1.2016  1.2159 -1.0024
17983TIP3    H275365   3.301   1.495  14.189  0.3312  1.2250  1.9099
17984TIP3   OH275366   0.099   2.554   1.509 -0.1375  0.3730 -0.4466
17984TIP3    H175367   0.016   2.506   1.508 -0.5634  1.0786 -0.1155
17984TIP3    H275368   0.164   2.488   1.531 -1.1538  0.4864  3.8894
17985TIP3   OH275369   5.431   3.286   3.347 -0.2500  0.7221  0.1675
17985TIP3    H175370   5.358   3.345   3.364  0.0844  1.0846  0.3631
17985TIP3    H275371   5.451   3.298   3.254 -0.9265  0.0603 -0.0687
17986TIP3   OH275372   6.058   1.158   2.431 -0.0482  0.3944 -0.2881
17986TIP3    H175373   6.111   1.224   2.387 -1.0743  0.8024 -0.9371
17986TIP3    H275374   6.119   1.086   2.447  0.7362  0.9072 -0.8779
17987TIP3   OH275375   6.668   6.478  13.253 -0.0089 -0.1043  0.0842
17987TIP3    H175376   6.664   6.479  13.348  1.3293  0.4583  0.1575
17987TIP3    H275377   6.592   6.427  13.226 -1.0694  0.7318  1.3990
17988TIP3   OH275378   1.575   2.138  11.612  0.3678  0.3427  0.3627
17988TIP3    H175379   1.669   2.144  11.631  0.4995 -0.3281 -0.0341
17988TIP3    H275380   1.566   2.174  11.524  0.1612  0.9589  0.6335
17989TIP3   OH275381   3.687   1.174   3.180  0.1967 -0.0067 -0.2406
17989TIP3    H175382   3.697   1.208   3.269 -0.6440 -0.8947  0.2024
17989TIP3    H275383   3.776   1.175   3.144  0.6303 -0.1908  0.8049
17990TIP3   OH275384   4.123   4.569   0.218  0.1402  0.3567 -0.1143
17990TIP3    H175385   4.107   4.497   0.157 -0.5994 -0.3939  0.9023
17990TIP3    H275386   4.217   4.581   0.218  0.1342  0.5082 -1.5291
17991TIP3   OH275387   0.495   2.113  12.071 -0.0994  0.1843  0.2847
17991TIP3    H175388   0.538   2.119  11.985  2.9001  1.5276  1.7301
17991TIP3    H275389   0.557   2.063  12.125 -1.0977  0.8558  2.1294
17992TIP3   OH275390   3.557   5.163   4.403  0.4001  0.7907  0.4850
17992TIP3    H175391   3.613   5.237   4.427  0.4815  0.6157  0.8470
17992TIP3    H275392   3.557   5.163   4.307  0.4224  1.2415  0.4833
17993TIP3   OH275393   1.818   0.923   4.627 -0.1660 -0.2918 -0.3412
17993TIP3    H175394   1.856   0.939   4.713  2.4579  0.7808 -1.5843
17993TIP3    H275395   1.794   0.831   4.628  0.9213 -0.5966  1.1610
17994TIP3   OH275396   5.550   3.855  11.589  0.4088 -0.6236  0.5372
17994TIP3    H175397   5.527   3.918  11.521  1.1489 -0.5863  0.3022
17994TIP3    H275398   5.608   3.793  11.544 -1.0015 -1.9967  0.5333
17995TIP3   OH275399   1.062   2.645   0.005 -0.3812 -0.4917  0.3860
17995TIP3    H175400   1.095   2.689   0.084 -2.5624  2.3093 -0.0705
17995TIP3    H275401   0.973   2.618   0.030 -0.3887 -1.3110 -0.5198
17996TIP3   OH275402   6.471   4.060   0.128 -0.0986  0.5801 -0.7073
17996TIP3    H175403   6.559   4.038   0.098  0.9070  0.1080  2.2981
17996TIP3    H275404   6.477   4.153   0.151 -1.2578  1.3222 -3.0468
17997TIP3   OH275405   0.795   3.883   2.589  0.2490 -0.1047  0.1037
17997TIP3    H175406   0.765   3.809   2.642 -1.6421  0.5911  0.1112
17997TIP3    H275407   0.764   3.863   2.501 -1.5665  1.2756  0.3702
17998TIP3   OH275408   0.163   1.791  13.918 -0.1872  0.5272 -0.6424
17998TIP3    H175409   0.247   1.829  13.944 -0.0284 -0.4534  0.3602
17998TIP3    H275410   0.161   1.802  13.823  1.0330  0.6668 -0.6741
17999TIP3   OH275411   0.690   3.339  15.075  0.6162  0.4671  0.3201
17999TIP3    H175412   0.707   3.245  15.073 -0.8755  0.0601  2.9451
17999TIP3    H275413   0.767   3.376  15.119  0.1232  0.1424  1.4778
18000TIP3   OH275414   3.724   1.331   3.438 -0.0533  0.0243  0.0455
18000TIP3    H175415   3.740   1.412   3.390 -1.0879  0.9363  1.1724
18000TIP3    H275416   3.806   1.282   3.430  0.1307  0.5520 -1.7933
18001TIP3   OH275417   5.091   6.152   4.579  0.2863 -0.2862  0.0393
18001TIP3    H175418   5.081   6.132   4.672 -1.7574  0.0860 -0.0556
18001TIP3    H275419   5.065   6.072   4.534  1.1551 -0.4253 -0.2454
18002TIP3   OH275420   6.281   0.757   3.921 -0.2666 -0.0997  0.2166
18002TIP3    H175421   6.315   0.706   3.848  0.2552  1.7066 -0.8326
18002TIP3    H275422   6.357   0.803   3.957 -0.5152 -0.9108  1.9063
18003TIP3   OH275423   6.333   5.254   6.673  0.0785 -0.0072  0.3872
18003TIP3    H175424   6.258   5.311   6.661  0.5442  1.0033  1.8769
18003TIP3    H275425   6.364   5.235   6.585 -0.3422  1.7420 -0.1837
18004TIP3   OH275426   3.414   6.239  14.356 -0.1997 -0.0388 -0.2199
18004TIP3    H175427   3.467   6.254  14.278 -0.4463  0.9249 -0.2061
18004TIP3    H275428   3.375   6.324  14.377 -1.3520 -0.6053  0.0669
18005TIP3   OH275429   2.135   6.578   5.884 -0.3033  0.6977 -0.3687
18005TIP3    H175430   2.088   6.535   5.956 -0.6124  1.2494 -0.2423
18005TIP3    H275431   2.073   6.640   5.847  0.5823  2.0592  0.3591
18006TIP3   OH275432   3.238   0.038  16.070  0.2106  0.3115 -0.1265
18006TIP3    H175433   3.323   0.004  16.100 -0.8149 -0.8549  1.6712
18006TIP3    H275434   3.247   0.046  15.975  2.0738 -0.4885 -0.0633
18007TIP3   OH275435   0.744   0.653  15.119  0.0219 -0.4301 -0.1940
18007TIP3    H175436   0.685   0.726  15.137 -0.4066 -0.8330  0.0387
18007TIP3    H275437   0.787   0.678  15.037  0.1247  0.2339  0.0531
18008TIP3   OH275438   0.025   4.998  12.629 -0.0676 -0.3001  0.3196
18008TIP3    H175439  -0.022   5.004  12.712  0.0791 -0.1342  0.3914
18008TIP3    H275440   0.057   5.087  12.613 -0.4276 -0.2400 -0.1072
18009TIP3   OH275441   1.187   2.846   5.579  0.4052 -0.1677 -0.0952
18009TIP3    H175442   1.253   2.800   5.527  0.6131  0.5481 -0.4934
18009TIP3    H275443   1.147   2.907   5.517 -1.1368 -1.0722 -0.0464
18010TIP3   OH275444   1.239   5.908  14.624  0.0081 -0.0430 -0.0907
18010TIP3    H175445   1.200   5.988  14.588  1.0733 -0.1504 -1.6419
18010TIP3    H275446   1.198   5.897  14.709 -0.2806  2.0815  0.1113
18011TIP3   OH275447   2.984   2.804  11.779  0.0599  0.0142  0.0374
18011TIP3    H175448   3.069   2.789  11.820 -0.3178 -0.4091  0.6995
18011TIP3    H275449   2.925   2.744  11.825 -0.2542 -1.0220 -1.6315
18012TIP3   OH275450   2.262   3.257  12.973  0.2396  0.7225 -0.4855
18012TIP3    H175451   2.254   3.175  13.023  0.1384  1.2047  0.2997
18012TIP3    H275452   2.288   3.229  12.886 -3.1126 -0.4816 -1.2615
18013TIP3   OH275453   3.123   3.989   3.696  0.3808  0.4002  0.1219
18013TIP3    H175454   3.095   4.002   3.605 -1.3232  2.2727  0.8307
18013TIP3    H275455   3.184   4.060   3.713 -1.9450  2.2663  1.3556
18014TIP3   OH275456   6.516   5.240  14.554 -0.2350  0.0748  0.3577
18014TIP3    H175457   6.451   5.174  14.579  1.4200 -1.5724  0.5337
18014TIP3    H275458   6.573   5.248  14.631  3.2997 -3.0329 -1.6232
18015TIP3   OH275459   5.918   0.454   2.047  0.2587 -0.4509 -0.2284
18015TIP3    H175460   5.914   0.394   2.122 -0.4217 -2.6298 -1.9144
18015TIP3    H275461   5.827   0.478   2.029  0.4139  0.0295 -0.4017
18016TIP3   OH275462   6.646   1.309  12.389 -0.1137 -0.0022  0.5509
18016TIP3    H175463   6.551   1.313  12.380 -0.1896 -0.3386  1.1301
18016TIP3    H275464   6.680   1.364  12.318 -0.8576  4.0006  2.9630
18017TIP3   OH275465   0.288   2.715   2.988 -0.5073 -0.0227  0.0109
18017TIP3    H175466   0.200   2.746   2.968 -0.7724 -0.7328  0.0431
18017TIP3    H275467   0.328   2.698   2.903 -1.4052 -2.4067 -0.0347
18018TIP3   OH275468   2.684   0.057  10.871 -0.2694 -0.9028 -0.2467
18018TIP3    H175469   2.642   0.029  10.790  1.3002 -1.9915 -0.7385
18018TIP3    H275470   2.719   0.143  10.851 -3.0865  0.5438  0.5225
18019TIP3   OH275471   0.039   3.637  14.563  0.0806 -0.6711  0.0401
18019TIP3    H175472   0.078   3.664  14.480  1.1985  0.4370  0.8990
18019TIP3    H275473   0.104   3.579  14.602 -0.5687 -1.4189  0.0262
18020TIP3   OH275474   0.595   1.960  13.149  0.0963 -0.2492  0.3271
18020TIP3    H175475   0.648   1.916  13.216  0.0805 -0.6783  0.0635
18020TIP3    H275476   0.596   1.900  13.075 -1.6228 -0.7522  0.6753
18021TIP3   OH275477   0.402   6.217   0.915  0.5962 -0.2504 -0.3867
18021TIP3    H175478   0.369   6.175   0.993 -1.0341  1.2155 -0.2350
18021TIP3    H275479   0.492   6.241   0.937  1.1403 -2.4418 -0.0482
18022TIP3   OH275480   5.990   2.981  11.195  0.1709 -0.1734  0.2643
18022TIP3    H175481   6.016   3.020  11.111  1.4222  1.4906  1.3748
18022TIP3    H275482   6.039   2.899  11.199  1.1366  0.3656 -0.0672
18023TIP3   OH275483   6.269   2.941   4.939 -0.4020  0.2762 -0.3461
18023TIP3    H175484   6.202   2.919   4.874 -0.8466 -2.1551  0.7990
18023TIP3    H275485   6.223   2.936   5.023  0.7803  0.4900  0.3371
18024TIP3   OH275486   2.162   6.517  11.675  0.1587 -0.1601  0.1044
18024TIP3    H175487   2.142   6.425  11.696 -0.9939  0.2148  0.7153
18024TIP3    H275488   2.189   6.515  11.583 -1.7679 -0.8617 -0.4920
18025TIP3   OH275489   6.512   4.528   0.318 -0.0664 -0.0267  0.7446
18025TIP3    H175490   6.462   4.575   0.384  0.3097  1.5277 -0.0246
18025TIP3    H275491   6.562   4.596   0.273  2.2967 -1.4355  1.0814
18026TIP3   OH275492   2.809   0.258   4.060 -0.6409  0.1046  0.6135
18026TIP3    H175493   2.854   0.341   4.043  1.2124 -1.1779 -1.4228
18026TIP3    H275494   2.849   0.224   4.140  0.5162  0.0088  0.0163
18027TIP3   OH275495   3.366   0.322  12.917 -0.2964 -0.7131  0.5226
18027TIP3    H175496   3.403   0.241  12.882 -0.9987  0.6415 -3.9077
18027TIP3    H275497   3.442   0.375  12.939  0.4277 -0.4094 -2.3355
18028TIP3   OH275498   5.449   1.165   6.722 -0.0933  0.3749 -0.2294
18028TIP3    H175499   5.456   1.260   6.712  0.4985  0.3318 -0.2393
18028TIP3    H275500   5.357   1.150   6.746 -0.0254  1.0036  0.4334
18029TIP3   OH275501   4.745   1.199   1.476  0.1653 -0.3442 -0.2015
18029TIP3    H175502   4.733   1.188   1.570 -0.9236 -0.5182 -0.3411
18029TIP3    H275503   4.659   1.178   1.438  0.3908  0.3827 -1.1733
18030TIP3   OH275504   5.058   0.119   0.373 -0.1047  0.5397 -0.6295
18030TIP3    H175505   4.973   0.116   0.416  0.2118 -0.0989 -0.0259
18030TIP3    H275506   5.100   0.197   0.408 -0.0700  0.3277 -0.1869
18031TIP3   OH275507   1.030   5.573  14.214 -0.4877  0.3089  0.0872
18031TIP3    H175508   1.125   5.572  14.201 -0.6827  0.6056 -1.6595
18031TIP3    H275509   1.017   5.543  14.304  1.1801 -1.3963 -0.1717
18032TIP3   OH275510   4.510   4.204  14.270 -0.6208 -0.6885  0.2882
18032TIP3    H175511   4.437   4.158  14.311  1.4869 -1.9632  2.8880
18032TIP3    H275512   4.588   4.160  14.304  1.4132  1.2026 -1.6294
18033TIP3   OH275513   1.310   5.909   0.072  0.4469 -0.3037 -0.7468
18033TIP3    H175514   1.287   5.855  -0.004  0.4133 -1.9997  0.4016
18033TIP3    H275515   1.250   5.880   0.140  1.4930  0.0760  0.3648
18034TIP3   OH275516   3.877   3.041  12.626 -0.5903 -0.2023 -0.2164
18034TIP3    H175517   3.847   3.115  12.678 -0.9022 -1.4621  1.5095
18034TIP3    H275518   3.972   3.036  12.643 -0.0666  1.2619 -2.3460
18035TIP3   OH275519   4.266   0.536   6.549 -0.2429  0.0863  0.0155
18035TIP3    H175520   4.293   0.488   6.627  0.9727 -1.4994 -1.3124
18035TIP3    H275521   4.345   0.582   6.521 -1.0503  1.8396  0.5096
18036TIP3   OH275522   3.077   3.149  16.031 -0.0858  0.0133 -0.0603
18036TIP3    H175523   3.028   3.214  15.981 -0.2496  0.0963  0.2012
18036TIP3    H275524   3.010   3.088  16.063 -0.2066  0.8575  1.3956
18037TIP3   OH275525   0.671   1.846   3.344  0.0569 -0.5268 -0.2257
18037TIP3    H175526   0.660   1.925   3.292  0.6507 -0.5662 -0.4200
18037TIP3    H275527   0.765   1.830   3.343  0.2775  0.2848  2.0755
18038TIP3   OH275528   1.295   1.015   3.046 -0.1215 -0.1866  0.2089
18038TIP3    H175529   1.318   0.931   3.006 -0.5414  0.1808 -0.8511
18038TIP3    H275530   1.250   1.063   2.976  0.1655  0.9457  0.7790
18039TIP3   OH275531   3.893   6.524  11.572 -0.4942 -0.4165 -0.1639
18039TIP3    H175532   3.927   6.527  11.482  0.8972  0.3081  0.3563
18039TIP3    H275533   3.885   6.431  11.591  1.4618 -0.6480 -0.2550
18040TIP3   OH275534   4.216   5.637  13.818  0.0886  0.3653  0.3178
18040TIP3    H175535   4.253   5.559  13.776 -0.7224  0.8859 -1.4825
18040TIP3    H275536   4.187   5.606  13.904  0.2270 -1.2050 -0.1618
18041TIP3   OH275537   2.078   0.676  11.508  0.1280 -0.5316 -0.9456
18041TIP3    H175538   2.164   0.634  11.515  0.8867  0.8752 -1.3241
18041TIP3    H275539   2.042   0.643  11.426  1.1381  0.2251 -1.7372
18042TIP3   OH275540   0.269   4.604   0.237 -0.0542  0.0497  0.4428
18042TIP3    H175541   0.235   4.641   0.318 -0.4149 -0.5158  0.5569
18042TIP3    H275542   0.196   4.555   0.201  0.6520 -1.2327  0.7142
18043TIP3   OH275543   1.667   1.482  16.206  0.3261  0.2245 -0.4062
18043TIP3    H175544   1.638   1.397  16.171  1.7912 -0.3288 -0.3344
18043TIP3    H275545   1.733   1.459  16.272  0.4690  1.4217 -0.1175
18044TIP3   OH275546   4.461   4.833   5.567  0.2123  0.1659  0.4072
18044TIP3    H175547   4.446   4.891   5.642 -0.5427 -0.4689  0.7593
18044TIP3    H275548   4.373   4.815   5.533  0.4809 -0.3114 -0.0464
18045TIP3   OH275549   5.397   6.398   1.918  0.0929 -0.3159 -0.6836
18045TIP3    H175550   5.358   6.483   1.898 -0.7693 -0.7520 -0.8579
18045TIP3    H275551   5.447   6.375   1.839  0.6988  0.2223 -0.4710
18046TIP3   OH275552   1.690   1.581  17.207 -0.0920  0.2601 -0.5395
18046TIP3    H175553   1.635   1.633  17.266  1.5299 -0.5862  1.8838
18046TIP3    H275554   1.780   1.600  17.235  0.6558 -1.7949 -1.3309
18047TIP3   OH275555   1.391   5.603   0.662  0.2238  0.3810 -0.8844
18047TIP3    H175556   1.466   5.544   0.650  0.6265  0.8305 -0.6230
18047TIP3    H275557   1.365   5.628   0.573  0.3864  0.2290 -0.9754
18048TIP3   OH275558   6.386   1.177  14.167 -0.3971 -0.9990 -0.3430
18048TIP3    H175559   6.294   1.156  14.182 -0.3230 -1.3183 -0.3102
18048TIP3    H275560   6.420   1.101  14.120 -0.0955 -0.9914 -0.1440
18049TIP3   OH275561   6.384   0.411  14.474 -0.2444  0.1113 -0.1384
18049TIP3    H175562   6.299   0.383  14.507 -0.7837  2.3354  0.5228
18049TIP3    H275563   6.446   0.384  14.541 -0.8474  1.2119  0.8891
18050TIP3   OH275564   6.321   5.371  15.312 -0.6025 -0.7025  0.4437
18050TIP3    H175565   6.282   5.458  15.313 -2.5550 -1.5002 -0.2902
18050TIP3    H275566   6.413   5.385  15.334 -1.1597  1.3637  1.7211
18051TIP3   OH275567   3.672   2.753   4.328  0.1798  0.3468 -0.5726
18051TIP3    H175568   3.586   2.774   4.365  0.5476  0.2373  0.3789
18051TIP3    H275569   3.719   2.836   4.326  0.3719  0.2463 -0.2269
18052TIP3   OH275570   5.646   3.795   1.285 -0.5500  0.1956 -0.1386
18052TIP3    H175571   5.736   3.764   1.272 -1.2298 -1.3893 -1.4546
18052TIP3    H275572   5.598   3.760   1.210 -2.2210  1.2515  0.3911
18053TIP3   OH275573   4.847   0.077   1.345  0.6889 -0.2312 -0.1273
18053TIP3    H175574   4.928   0.126   1.356  0.2811  0.3901  0.2157
18053TIP3    H275575   4.781   0.131   1.389  0.3215 -1.3719  0.7446
18054TIP3   OH275576   3.570   4.934  17.051 -0.0406 -0.5174  0.4372
18054TIP3    H175577   3.535   4.874  17.117 -1.0408 -1.4490 -0.8738
18054TIP3    H275578   3.659   4.903  17.034 -0.3924 -1.3959  0.0977
18055TIP3   OH275579   1.544   3.606   6.060  0.0605 -0.3186  0.2172
18055TIP3    H175580   1.479   3.564   6.004  0.1800  1.6010 -1.4846
18055TIP3    H275581   1.495   3.636   6.137 -0.9350  0.4043 -0.6712
18056TIP3   OH275582   3.139   2.331  15.350 -0.5119 -0.6723 -0.4898
18056TIP3    H175583   3.149   2.375  15.266  0.5873 -2.0769 -1.1470
18056TIP3    H275584   3.051   2.355  15.380 -0.0685  1.6756 -0.9170
18057TIP3   OH275585   4.281   6.371   4.214  0.5517  0.2220 -0.0975
18057TIP3    H175586   4.281   6.439   4.281  1.8312  0.1561  0.0069
18057TIP3    H275587   4.255   6.291   4.260  1.4502  0.1722  0.3538
18058TIP3   OH275588   1.633   1.749   2.838  0.2388  0.0739  0.2072
18058TIP3    H175589   1.537   1.754   2.840  0.2405 -0.1057  1.1761
18058TIP3    H275590   1.662   1.831   2.877  0.4911  0.1896 -0.2145
18059TIP3   OH275591   5.300   6.576   2.156 -0.2148 -0.4324  0.2365
18059TIP3    H175592   5.270   6.615   2.074  1.3281  0.2595 -0.0340
18059TIP3    H275593   5.291   6.482   2.142  0.3636 -0.3365 -0.8741
18060TIP3   OH275594   5.491   5.196   1.391  0.6714  0.1092  0.0035
18060TIP3    H175595   5.562   5.156   1.441  0.8308  0.0829 -0.2447
18060TIP3    H275596   5.518   5.287   1.381  0.0234  0.4442  1.0988
18061TIP3   OH275597   2.214   3.487  16.486 -0.3712 -0.2016  0.3040
18061TIP3    H175598   2.301   3.449  16.498 -0.2131 -0.1960 -0.7458
18061TIP3    H275599   2.203   3.546  16.560  0.9528  0.6054 -0.1126
18062TIP3   OH275600   5.362   3.042   0.888 -0.3735 -0.4652  0.6108
18062TIP3    H175601   5.438   3.096   0.910 -1.0946  1.0844 -0.5373
18062TIP3    H275602   5.291   3.078   0.941 -0.8947 -0.1468 -0.2761
18063TIP3   OH275603   2.574   4.428  14.187  0.2484 -0.2320 -0.7154
18063TIP3    H175604   2.545   4.518  14.201  1.2148 -0.0788  0.4940
18063TIP3    H275605   2.540   4.380  14.263  1.5954 -0.4101 -0.2061
18064TIP3   OH275606   4.321   6.226  11.927 -0.5171 -0.3084  0.1602
18064TIP3    H175607   4.233   6.264  11.924  0.0915  1.0972 -0.5221
18064TIP3    H275608   4.347   6.232  12.018 -1.1561 -0.8364  0.3909
18065TIP3   OH275609   2.285   5.227   2.302  0.4169 -0.2719 -0.4977
18065TIP3    H175610   2.252   5.302   2.253 -1.0692  0.2648  1.2019
18065TIP3    H275611   2.321   5.265   2.382  1.1948 -1.2443 -0.3694
18066TIP3   OH275612   3.063   5.674   0.521 -0.1640  0.1596  0.6185
18066TIP3    H175613   2.970   5.673   0.498  0.1442 -0.1292 -0.7099
18066TIP3    H275614   3.096   5.756   0.484  0.5766 -0.8320 -1.0633
18067TIP3   OH275615   6.018   1.720   5.538 -0.9089  0.5105  0.2859
18067TIP3    H175616   6.047   1.633   5.566 -0.0081  0.1274 -1.6320
18067TIP3    H275617   5.989   1.763   5.618 -0.5389 -1.2413  1.4163
18068TIP3   OH275618   1.962   6.312  13.641 -0.7157 -0.6091 -0.4605
18068TIP3    H175619   2.049   6.337  13.670  0.5570 -3.4062 -1.4779
18068TIP3    H275620   1.908   6.389  13.657  2.1112  1.5662 -0.6421
18069TIP3   OH275621   4.717   1.032  16.667 -0.0880  1.1905 -0.4597
18069TIP3    H175622   4.624   1.039  16.645 -1.0715 -1.7652  2.0187
18069TIP3    H275623   4.745   0.950  16.626  1.2696  1.6805 -0.5641
18070TIP3   OH275624   6.534   1.682  15.048 -0.0604 -0.1874 -0.0856
18070TIP3    H175625   6.483   1.756  15.080  3.4567  2.3463  0.2656
18070TIP3    H275626   6.563   1.636  15.127  0.1603 -0.1887 -0.1666
18071TIP3   OH275627   1.809   4.736  15.792 -0.5453  0.2725  0.1500
18071TIP3    H175628   1.814   4.828  15.767 -1.1109  0.4604  0.6983
18071TIP3    H275629   1.757   4.736  15.873  0.5334 -0.3918  0.8813
18072TIP3   OH275630   4.909   1.132   2.757 -0.3708 -0.2044  0.1966
18072TIP3    H175631   4.988   1.183   2.775 -1.2805  1.9954 -1.6193
18072TIP3    H275632   4.873   1.112   2.844  1.1945  0.3131  1.0009
18073TIP3   OH275633   6.458   1.004  16.079  0.6727  0.3313  0.4863
18073TIP3    H175634   6.387   1.019  16.141  0.2472 -1.1259  0.3963
18073TIP3    H275635   6.478   1.091  16.044 -1.6525  0.6762 -0.1298
18074TIP3   OH275636   5.561   2.028  15.757  0.5147  0.1750  0.6972
18074TIP3    H175637   5.649   1.999  15.731  0.3590 -1.9490  2.1728
18074TIP3    H275638   5.502   1.980  15.699  0.3079  1.3514 -0.0772
18075TIP3   OH275639   0.379   3.005   1.073 -0.1144 -0.1482 -0.0246
18075TIP3    H175640   0.291   2.998   1.036 -0.3287  1.6850  0.0718
18075TIP3    H275641   0.396   2.918   1.110 -1.2169 -1.0281 -1.4594
18076TIP3   OH275642   5.797   6.293  11.311  0.0727 -0.1428  0.0832
18076TIP3    H175643   5.734   6.362  11.330 -2.0152 -1.9856  0.3055
18076TIP3    H275644   5.770   6.220  11.367  2.4350 -1.0434  0.1696
18077TIP3   OH275645   4.275   2.004  15.193 -0.3912 -0.1447 -0.7719
18077TIP3    H175646   4.236   2.086  15.164 -0.7474 -0.2008 -0.4514
18077TIP3    H275647   4.209   1.938  15.173 -0.6570 -0.1785  0.2050
18078TIP3   OH275648   3.096   4.982   1.518 -0.7289  0.1382  0.5277
18078TIP3    H175649   3.055   4.983   1.604 -2.6786 -1.2719 -0.3365
18078TIP3    H275650   3.115   4.890   1.500 -3.1125 -0.0271 -1.7384
18079TIP3   OH275651   5.290   4.622  12.248  0.1285  0.0722  0.6780
18079TIP3    H175652   5.223   4.607  12.314  2.2462 -1.5496  2.6068
18079TIP3    H275653   5.365   4.655  12.297  0.7664  2.0612 -1.4352
18080TIP3   OH275654   0.966   5.401   2.332  0.5319  0.3975 -0.3870
18080TIP3    H175655   0.966   5.479   2.387  0.5339 -0.2459  0.5400
18080TIP3    H275656   0.900   5.420   2.264 -0.9565  0.4072  1.0021
18081TIP3   OH275657   2.321   5.375   2.558 -0.3057 -0.0337 -0.1589
18081TIP3    H175658   2.375   5.312   2.605 -0.1010  1.0499  1.0934
18081TIP3    H275659   2.378   5.451   2.546 -1.1857  0.6910  0.1762
18082TIP3   OH275660   2.604   0.190  11.430  0.1512 -0.0770  0.0139
18082TIP3    H175661   2.579   0.142  11.351  0.1982 -1.4130  0.7771
18082TIP3    H275662   2.685   0.147  11.460 -1.5764 -1.8984  2.5943
18083TIP3   OH275663   1.760   0.797   5.044 -0.2880  0.1123 -0.3820
18083TIP3    H175664   1.794   0.883   5.018 -0.3711  0.8222  1.7107
18083TIP3    H275665   1.710   0.767   4.968  0.7939  1.3338 -1.6194
18084TIP3   OH275666   2.848   1.872   6.446 -0.2873 -0.4598  0.2074
18084TIP3    H175667   2.774   1.894   6.502  0.1331  1.5483  0.0240
18084TIP3    H275668   2.924   1.882   6.503  0.1619  1.7779 -0.6870
18085TIP3   OH275669   3.580   1.814  17.167  0.0875 -0.0970 -0.1653
18085TIP3    H175670   3.503   1.761  17.146 -0.7233  1.0901 -0.2599
18085TIP3    H275671   3.589   1.875  17.094  2.0010 -1.1316 -0.8829
18086TIP3   OH275672   5.640   4.650   4.562  0.4607 -0.3342 -0.3967
18086TIP3    H175673   5.629   4.555   4.559  0.4616 -0.3960  0.9100
18086TIP3    H275674   5.580   4.683   4.496 -2.2401 -1.0673  1.5086
18087TIP3   OH275675   1.864   0.983  10.964  0.4618 -0.1238  0.3496
18087TIP3    H175676   1.852   0.926  11.040 -1.4020  1.8740  1.6916
18087TIP3    H275677   1.958   1.005  10.966  0.3122  0.7015  2.8031
18088TIP3   OH275678   0.383   5.505  16.272 -0.2224 -0.6914  0.1940
18088TIP3    H175679   0.295   5.495  16.308 -1.3338 -1.6980 -2.5569
18088TIP3    H275680   0.428   5.423  16.294 -0.9012 -1.3152 -0.6838
18089TIP3   OH275681   3.421   4.680   0.203  0.5275 -0.0796 -0.3930
18089TIP3    H175682   3.380   4.722   0.279  0.9413  2.9560 -1.7410
18089TIP3    H275683   3.506   4.723   0.195  0.5909 -0.5000 -2.4384
18090TIP3   OH275684   5.727   3.738  15.029 -0.0445 -0.1701 -0.1336
18090TIP3    H175685   5.774   3.656  15.023  1.1962  0.5696 -0.9850
18090TIP3    H275686   5.637   3.713  15.048  0.6697 -1.6155  1.5914
18091TIP3   OH275687   3.218   0.816   1.086 -0.2457 -0.3900  0.0638
18091TIP3    H175688   3.166   0.809   1.006  0.2467 -0.4605 -0.2499
18091TIP3    H275689   3.158   0.854   1.150 -0.5605 -0.0735 -0.4140
18092TIP3   OH275690   2.074   0.305  16.740  0.0943 -0.0802 -0.2833
18092TIP3    H175691   2.161   0.274  16.716 -0.0360 -1.0429  0.4074
18092TIP3    H275692   2.073   0.300  16.836 -0.4117  0.8007 -0.2321
18093TIP3   OH275693   0.205   6.706   2.476 -0.3375 -0.5334 -0.0229
18093TIP3    H175694   0.209   6.639   2.543  1.3432 -0.4946 -0.0375
18093TIP3    H275695   0.278   6.686   2.417  2.2418  2.9639  1.6334
18094TIP3   OH275696   1.641   1.697  14.233  0.4905  0.2423  0.2083
18094TIP3    H175697   1.664   1.709  14.325  0.6960  1.5730 -0.0021
18094TIP3    H275698   1.722   1.717  14.185 -0.1058  1.4200 -0.3474
18095TIP3   OH275699   0.280   5.688  16.076 -0.4313  0.4304  0.5504
18095TIP3    H175700   0.325   5.628  16.136  0.1530  1.3233  1.0228
18095TIP3    H275701   0.317   5.774  16.096 -0.6471  0.8263 -0.7036
18096TIP3   OH275702   3.409   6.065  11.286  0.2423  0.3748 -0.1187
18096TIP3    H175703   3.501   6.083  11.267  0.4035 -0.3406 -0.0435
18096TIP3    H275704   3.366   6.064  11.201  0.6552 -1.1391 -0.3476
18097TIP3   OH275705   3.027   0.300   4.268  0.4556 -0.1641  0.2617
18097TIP3    H175706   3.010   0.207   4.253 -0.6934 -0.1211  1.1221
18097TIP3    H275707   3.017   0.341   4.182  0.3005 -0.7396  0.0025
18098TIP3   OH275708   1.071   6.472   2.485 -0.2449  0.1848  0.2943
18098TIP3    H175709   1.014   6.475   2.562  0.7988  1.3301  1.0598
18098TIP3    H275710   1.146   6.526   2.509  0.4017  0.0444 -1.3049
18099TIP3   OH275711   1.895   1.836   4.131 -0.1802 -0.5964 -0.0351
18099TIP3    H175712   1.951   1.765   4.098 -0.5033 -1.7712  1.8434
18099TIP3    H275713   1.849   1.798   4.205 -1.4623  1.1760  0.1301
18100TIP3   OH275714   4.829   5.878  15.633 -0.3820  0.2726  0.8067
18100TIP3    H175715   4.733   5.877  15.639 -0.4201 -0.1507  0.2856
18100TIP3    H275716   4.858   5.827  15.708 -0.5733  0.2800  0.8874
18101TIP3   OH275717   5.756   2.359  15.796  0.3261  0.1528  0.6271
18101TIP3    H175718   5.775   2.441  15.749 -0.1206 -1.1865 -2.0926
18101TIP3    H275719   5.782   2.290  15.735  1.5257 -1.8145  3.1875
18102TIP3   OH275720   0.275   5.743   2.732 -0.3596 -0.0222 -0.4652
18102TIP3    H175721   0.211   5.710   2.669 -1.8053 -0.4910  1.1541
18102TIP3    H275722   0.340   5.673   2.739 -0.5637 -0.2624 -0.9252
18103TIP3   OH275723   3.583   1.798  14.556  0.1216  0.2557  0.3135
18103TIP3    H175724   3.635   1.734  14.508 -1.3027 -1.3190  0.7683
18103TIP3    H275725   3.586   1.769  14.647 -2.6196 -0.7647  0.1879
18104TIP3   OH275726   2.771   4.189   5.470 -0.1230  0.6114  0.6964
18104TIP3    H175727   2.794   4.211   5.560 -0.2462 -1.6149  1.3384
18104TIP3    H275728   2.754   4.095   5.472  1.3611  0.1721 -1.9514
18105TIP3   OH275729   5.442   4.356   0.363  0.4460  0.9641 -1.0001
18105TIP3    H175730   5.408   4.296   0.297  0.2996 -1.1234  0.8529
18105TIP3    H275731   5.384   4.433   0.358 -1.8914 -0.6839 -0.8326
18106TIP3   OH275732   1.561   6.490  11.879  0.0263 -0.1426  0.2862
18106TIP3    H175733   1.498   6.557  11.905  0.0295  0.2233 -0.5971
18106TIP3    H275734   1.632   6.497  11.943  0.7498  1.7478 -0.6413
18107TIP3   OH275735   1.188   6.499   4.366  0.2796 -0.2530 -0.2392
18107TIP3    H175736   1.202   6.490   4.272  1.1599  0.9968 -0.2479
18107TIP3    H275737   1.243   6.573   4.392 -1.1611  0.4510  0.9860
18108TIP3   OH275738   6.752   3.884  14.708  0.5679 -0.0164  0.3118
18108TIP3    H175739   6.750   3.815  14.641  0.7102  0.6391 -0.3749
18108TIP3    H275740   6.667   3.927  14.699 -0.4333 -1.4250  2.1831
18109TIP3   OH275741   0.434   3.949   1.748  0.3105  0.3812 -0.2193
18109TIP3    H175742   0.528   3.964   1.759  0.1738  1.2189 -0.1201
18109TIP3    H275743   0.427   3.901   1.666  0.9338 -1.1184  0.5673
18110TIP3   OH275744   3.751   1.784  13.483 -0.4364 -0.0031  0.1218
18110TIP3    H175745   3.730   1.871  13.517 -0.2167 -0.6718  2.0491
18110TIP3    H275746   3.734   1.724  13.556  0.9506 -1.4040 -0.6447
18111TIP3   OH275747   3.782   3.497   3.394  0.6552  0.4921 -0.1305
18111TIP3    H175748   3.745   3.582   3.373 -0.8063 -0.3310 -1.0574
18111TIP3    H275749   3.870   3.499   3.356  0.2218  1.1802 -1.1294
18112TIP3   OH275750   0.765   6.230   1.794 -0.6960 -0.1827 -0.0247
18112TIP3    H175751   0.727   6.195   1.874 -1.3106 -0.8174 -0.5752
18112TIP3    H275752   0.791   6.153   1.743 -1.8171  0.1346 -1.1361
18113TIP3   OH275753   0.573   4.252  13.474  0.3635  0.2819 -0.0516
18113TIP3    H175754   0.593   4.331  13.523  0.2704  0.3648 -0.1465
18113TIP3    H275755   0.559   4.282  13.384  1.2071  0.0467 -0.2697
18114TIP3   OH275756   0.440   1.499  14.582 -0.1254  0.3534 -0.2372
18114TIP3    H175757   0.372   1.464  14.640 -0.6109  1.1755 -0.2827
18114TIP3    H275758   0.522   1.469  14.619 -0.5358 -1.6859 -0.8462
18115TIP3   OH275759   4.480   5.378   2.651 -0.5641 -0.0280  0.8825
18115TIP3    H175760   4.465   5.324   2.573 -2.3420 -0.3389  1.3829
18115TIP3    H275761   4.451   5.466   2.625 -0.7941 -0.0490  1.0638
18116TIP3   OH275762   0.405   6.101  15.536  0.0134 -0.1926 -0.0281
18116TIP3    H175763   0.485   6.149  15.557  0.0726 -0.1052 -0.4406
18116TIP3    H275764   0.355   6.099  15.618 -0.1952  0.9559 -0.1181
18117TIP3   OH275765   1.500   0.084   2.574 -0.2787  0.6338 -0.2245
18117TIP3    H175766   1.586   0.094   2.532 -0.0772  3.5181  0.6565
18117TIP3    H275767   1.438   0.117   2.509 -0.5326  0.3336 -0.1379
18118TIP3   OH275768   3.868   4.161   0.002  0.0354 -0.0975  0.4764
18118TIP3    H175769   3.873   4.113  -0.081  1.0919 -0.7706  0.9105
18118TIP3    H275770   3.775   4.155   0.026 -0.0369 -1.0724  0.0202
18119TIP3   OH275771   3.037   3.816   1.867  0.0519 -0.5962  0.3072
18119TIP3    H175772   2.978   3.840   1.938 -0.0683 -0.9829  0.3432
18119TIP3    H275773   2.980   3.801   1.792  0.2695  0.8974 -0.1852
18120TIP3   OH275774   0.670   4.898   0.078 -0.2009 -0.4183 -0.6212
18120TIP3    H175775   0.732   4.844   0.029 -0.8833  0.0420 -2.0578
18120TIP3    H275776   0.717   4.924   0.157  0.9335 -1.2193 -1.0134
18121TIP3   OH275777   2.602   1.071  13.168 -0.2590 -0.3241 -0.3839
18121TIP3    H175778   2.684   1.070  13.217 -0.5179 -1.1428  0.0419
18121TIP3    H275779   2.554   1.146  13.204 -0.4102 -0.8640  0.5601
18122TIP3   OH275780   1.441   1.610   1.704  0.1160 -0.0188 -0.9477
18122TIP3    H175781   1.427   1.516   1.694 -0.3684 -0.0697  0.1603
18122TIP3    H275782   1.536   1.621   1.701  0.1550 -0.4618 -1.6302
18123TIP3   OH275783   5.727   4.897  11.418  0.2556  0.2329  0.4287
18123TIP3    H175784   5.654   4.932  11.469 -1.1139  1.0719 -1.9673
18123TIP3    H275785   5.768   4.973  11.379 -0.0126 -0.4784 -1.3235
18124TIP3   OH275786   3.120   1.979  16.940 -0.5241 -0.6872  0.1278
18124TIP3    H175787   3.154   2.012  17.022 -0.8860  1.0242 -0.3774
18124TIP3    H275788   3.028   1.960  16.958 -0.8179  0.4784 -0.0751
18125TIP3   OH275789   4.646   3.314  17.239  0.1633 -0.7555  0.0155
18125TIP3    H175790   4.693   3.362  17.307  0.5982 -0.0302 -0.7814
18125TIP3    H275791   4.591   3.380  17.197  0.3793 -1.0533 -0.7522
18126TIP3   OH275792   5.104   5.778   3.362 -0.0164  0.5198  0.6274
18126TIP3    H175793   5.010   5.796   3.357  0.2247  1.7514  0.0008
18126TIP3    H275794   5.135   5.834   3.434  0.5820  1.8887 -0.6464
18127TIP3   OH275795   5.643   0.789  16.136  0.0845 -0.2062 -0.6706
18127TIP3    H175796   5.605   0.852  16.196  2.8845  0.6691  0.3440
18127TIP3    H275797   5.575   0.772  16.071 -1.9741  1.1045  1.0550
18128TIP3   OH275798   6.191   5.585   5.715 -0.1005  0.4391 -0.5133
18128TIP3    H175799   6.226   5.650   5.653  1.5054 -0.5918 -0.7489
18128TIP3    H275800   6.223   5.615   5.800 -1.5144  1.3300 -0.2578
18129TIP3   OH275801   5.239   0.385  14.303 -0.1059  0.5883 -0.3244
18129TIP3    H175802   5.329   0.353  14.308  0.4799  2.1190 -0.2272
18129TIP3    H275803   5.206   0.378  14.393 -0.2242 -0.3444 -0.4396
18130TIP3   OH275804   2.564   3.552  11.493 -0.5275 -0.4536  0.0721
18130TIP3    H175805   2.489   3.523  11.441  0.9419 -1.7604 -1.4506
18130TIP3    H275806   2.596   3.472  11.536 -0.3955  0.2107  1.2466
18131TIP3   OH275807   4.819   2.399  14.409  0.5760  0.1529  0.6982
18131TIP3    H175808   4.799   2.436  14.322  0.8036  0.0050  0.5828
18131TIP3    H275809   4.910   2.369  14.402  0.6052  0.1726  1.0000
18132TIP3   OH275810   3.418   0.799  14.876  0.0251  0.3398 -0.3231
18132TIP3    H175811   3.434   0.784  14.969 -1.7358 -0.1440 -0.0458
18132TIP3    H275812   3.504   0.812  14.838  0.8270 -0.0306  1.2813
18133TIP3   OH275813   0.457   1.159   6.220 -0.0190  0.7850  0.1089
18133TIP3    H175814   0.494   1.168   6.307 -0.3498  2.2130  0.1206
18133TIP3    H275815   0.368   1.193   6.228 -0.2027  0.5195 -0.6908
18134TIP3   OH275816   3.478   4.024  16.456  0.1642  0.1381  0.1249
18134TIP3    H175817   3.435   3.960  16.398 -0.0088 -1.1676  1.6346
18134TIP3    H275818   3.417   4.035  16.529  0.7577  1.1112  0.5001
18135TIP3   OH275819   0.440   4.953  10.871 -0.6187  0.1993 -0.0209
18135TIP3    H175820   0.474   4.912  10.951 -1.3464  1.4829  0.9860
18135TIP3    H275821   0.486   5.036  10.864  1.5985 -1.0813 -2.6202
18136TIP3   OH275822   3.154   5.936   6.273 -0.6027  0.2909  0.0260
18136TIP3    H175823   3.249   5.936   6.272 -0.4473  1.4559 -4.0822
18136TIP3    H275824   3.129   5.845   6.286  1.0696 -0.1024  0.6478
18137TIP3   OH275825   5.127   4.467  13.326  0.4844  0.2032  0.1482
18137TIP3    H175826   5.074   4.514  13.262  0.9977  0.5951  0.0045
18137TIP3    H275827   5.132   4.526  13.401  0.9974  0.3163  0.0278
18138TIP3   OH275828   4.307   5.761  14.965  0.0902  0.3479 -0.0688
18138TIP3    H175829   4.333   5.712  14.887 -2.2853  0.0172 -0.7347
18138TIP3    H275830   4.345   5.711  15.037 -0.7772 -1.5740 -0.8376
18139TIP3   OH275831   5.605   5.494  11.502 -0.7028 -0.0218 -0.0935
18139TIP3    H175832   5.682   5.520  11.451  0.3708 -0.2369  1.3261
18139TIP3    H275833   5.642   5.461  11.585 -2.3132 -0.5490  0.4514
18140TIP3   OH275834   5.889   3.200   3.356 -0.2375 -0.7209 -0.1010
18140TIP3    H175835   5.910   3.241   3.273 -1.7870 -0.4094 -0.3619
18140TIP3    H275836   5.846   3.268   3.407 -3.7670 -2.1591 -0.8985
18141TIP3   OH275837   2.235   0.646   5.998 -0.0330 -0.3294  0.5072
18141TIP3    H175838   2.322   0.664   5.963 -0.4051  1.5489  0.4277
18141TIP3    H275839   2.243   0.662   6.092  0.1602 -2.0952  0.8135
18142TIP3   OH275840   1.421   5.387   1.234 -0.1312 -0.0543 -0.7537
18142TIP3    H175841   1.394   5.477   1.252  0.8766 -0.0517  1.1282
18142TIP3    H275842   1.490   5.395   1.169 -1.0623  0.3753 -1.7160
18143TIP3   OH275843   1.525   6.406   3.252  0.3594  0.5456  0.0977
18143TIP3    H175844   1.451   6.399   3.311  1.0828  2.4057  1.3086
18143TIP3    H275845   1.550   6.315   3.234 -0.6483 -0.0726  1.6554
18144TIP3   OH275846   1.920   5.321  14.890 -0.2201  0.4177 -0.1020
18144TIP3    H175847   1.841   5.363  14.857  0.3281  1.7569  0.2497
18144TIP3    H275848   1.991   5.360  14.840  0.4949  1.4712  1.6545
18145TIP3   OH275849   2.404   2.046  12.960 -0.5044 -0.3679 -0.0700
18145TIP3    H175850   2.392   2.140  12.948  1.3946  0.0640  0.9730
18145TIP3    H275851   2.364   2.006  12.883 -0.0638  1.3832 -1.2560
18146TIP3   OH275852   1.745   5.530   4.927  0.2179 -0.2636 -0.2737
18146TIP3    H175853   1.767   5.561   5.015 -0.7265 -0.0118 -0.1175
18146TIP3    H275854   1.732   5.610   4.876 -3.5408 -0.2301  0.4474
18147TIP3   OH275855   2.807   0.497  16.345  0.0277 -0.6287  0.0844
18147TIP3    H175856   2.879   0.555  16.320 -0.4624 -0.4367 -0.9343
18147TIP3    H275857   2.847   0.410  16.352  0.3585 -0.5252 -0.4879
18148TIP3   OH275858   4.474   0.209   5.245  0.0484 -0.4595 -0.4291
18148TIP3    H175859   4.380   0.192   5.253  0.3153 -1.6508  0.5883
18148TIP3    H275860   4.509   0.190   5.332  1.2070  0.2251 -0.7169
18149TIP3   OH275861   3.705   1.313   4.482 -0.3675 -0.2818  0.6460
18149TIP3    H175862   3.644   1.287   4.413  0.9969 -2.8978  0.2973
18149TIP3    H275863   3.789   1.323   4.436 -0.1871  1.7567  1.3523
18150TIP3   OH275864   4.336   3.214  16.313  0.1362  0.1906  0.1270
18150TIP3    H175865   4.251   3.202  16.270  0.6361  0.3931 -0.9611
18150TIP3    H275866   4.318   3.270  16.388 -0.2270  2.9507 -1.8806
18151TIP3   OH275867   1.911   5.663   2.801  0.3638  0.3299 -0.1213
18151TIP3    H175868   1.992   5.617   2.778  0.1465  0.2946 -0.8595
18151TIP3    H275869   1.937   5.729   2.865  0.5326 -1.4068  1.6781
18152TIP3   OH275870   1.424   1.429   4.049 -0.0572  0.0640 -0.0751
18152TIP3    H175871   1.462   1.517   4.047  0.1535 -0.0304 -0.2973
18152TIP3    H275872   1.496   1.371   4.023  0.1043 -0.2802  1.0826
18153TIP3   OH275873   6.466   4.841  14.431 -0.4291 -0.0899  0.4808
18153TIP3    H175874   6.454   4.796  14.347  0.1902 -1.4442  1.0871
18153TIP3    H275875   6.526   4.912  14.412  0.7901 -1.2056  0.0142
18154TIP3   OH275876   5.426   4.568   3.015 -0.9590 -0.2880  0.8601
18154TIP3    H175877   5.366   4.554   2.942 -1.5875 -1.6898  1.6001
18154TIP3    H275878   5.389   4.642   3.063 -0.8525  0.2761  0.0924
18155TIP3   OH275879   2.103   1.521   0.591  0.3654  1.2596  0.3849
18155TIP3    H175880   2.115   1.562   0.677  4.4321 -1.6621  1.5095
18155TIP3    H275881   2.021   1.472   0.599  0.2365  1.6929  2.2752
18156TIP3   OH275882   1.367   2.308   6.875  0.7444 -0.1875 -0.6423
18156TIP3    H175883   1.433   2.356   6.925  1.4480  0.7661 -2.3881
18156TIP3    H275884   1.377   2.217   6.903 -0.2169  0.5153  2.2936
18157TIP3   OH275885   5.214   5.050  11.272 -0.6362  0.3338 -0.0083
18157TIP3    H175886   5.218   5.029  11.179  0.6725  1.1070 -0.1430
18157TIP3    H275887   5.271   4.984  11.313 -0.6339  0.4419  0.1614
18158TIP3   OH275888   4.285   1.210   3.140  0.2122  0.2769  0.4476
18158TIP3    H175889   4.257   1.282   3.197  0.2313  0.0744  0.7155
18158TIP3    H275890   4.366   1.178   3.180 -0.6609 -0.9661  1.2794
18159TIP3   OH275891   5.823   2.833   2.818  0.2020 -0.3814  0.2749
18159TIP3    H175892   5.877   2.777   2.874  0.1275  0.0160  0.7578
18159TIP3    H275893   5.742   2.785   2.807 -1.1200  0.8710  3.2395
18160TIP3   OH275894   6.724   6.645   2.412  0.3603  0.2711  0.7229
18160TIP3    H175895   6.819   6.641   2.416  0.5676  1.6047 -1.4455
18160TIP3    H275896   6.696   6.553   2.409  1.6123 -0.1239  0.7306
18161TIP3   OH275897   1.460   4.988   4.532  0.0876 -0.0031  0.4287
18161TIP3    H175898   1.454   5.002   4.626  1.4603 -2.5810  0.9927
18161TIP3    H275899   1.553   4.999   4.511 -0.4946  2.8319 -1.1362
18162TIP3   OH275900   5.289   2.270   3.375 -0.0855  0.1080  0.4717
18162TIP3    H175901   5.381   2.254   3.395 -0.1382  1.1499  1.6428
18162TIP3    H275902   5.287   2.355   3.332 -0.5122  0.0929  0.4514
18163TIP3   OH275903   5.588   1.494  13.354  0.8428  0.1487  0.4859
18163TIP3    H175904   5.637   1.545  13.418  0.0323  1.2895  0.2233
18163TIP3    H275905   5.580   1.407  13.393  1.6489  0.4110  1.2510
18164TIP3   OH275906   5.769   5.190  16.024  0.5406 -0.1156 -0.1101
18164TIP3    H175907   5.721   5.214  16.103  1.1533 -1.7414  0.8173
18164TIP3    H275908   5.861   5.207  16.045  0.5889  0.9505 -1.0878
18165TIP3   OH275909   1.677   4.971   1.998  0.0818  0.1505 -0.2996
18165TIP3    H175910   1.732   5.045   1.971 -1.5003  1.9324  1.0506
18165TIP3    H275911   1.592   4.990   1.960 -0.1232 -1.5241 -0.7325
18166TIP3   OH275912   0.375   5.507  15.705  0.1880  0.1118 -0.0963
18166TIP3    H175913   0.359   5.505  15.610  3.0236  0.3187 -0.6586
18166TIP3    H275914   0.390   5.600  15.724 -0.5640  0.0945  0.6107
18167TIP3   OH275915   0.807   0.599  11.483 -0.4682 -0.0423 -0.3789
18167TIP3    H175916   0.832   0.658  11.554 -0.9735 -0.9213  0.5618
18167TIP3    H275917   0.871   0.528  11.487  0.3723  0.5997 -1.7504
18168TIP3   OH275918   1.390   0.975   5.915  0.4034 -0.5928  0.0540
18168TIP3    H175919   1.379   0.989   5.821  2.4296  0.0012 -0.1459
18168TIP3    H275920   1.313   1.016   5.955  0.8089  1.5409 -1.2135
18169TIP3   OH275921   3.865   5.175  13.607  0.2814  0.4949 -0.1870
18169TIP3    H175922   3.813   5.213  13.678  1.0769  1.0327  0.1244
18169TIP3    H275923   3.877   5.247  13.545  0.1674  0.2108 -0.5461
18170TIP3   OH275924   1.123   1.132   5.031 -0.0624 -0.2832 -0.0121
18170TIP3    H175925   1.121   1.048   4.986 -1.3349 -0.8598  1.0620
18170TIP3    H275926   1.144   1.111   5.122  1.4134  0.7592 -0.0828
18171TIP3   OH275927   3.583   1.603  15.916 -0.2382 -0.7085  0.3154
18171TIP3    H175928   3.668   1.612  15.873 -0.0315  1.3978  1.0644
18171TIP3    H275929   3.587   1.517  15.958  0.5963 -1.6417 -1.5257
18172TIP3   OH275930   3.221   2.085   2.637  0.4961 -0.3366  0.5399
18172TIP3    H175931   3.165   2.037   2.699 -0.2787  1.1673  1.0615
18172TIP3    H275932   3.257   2.157   2.688  0.1458  0.7206 -0.6376
18173TIP3   OH275933   1.149   4.051  14.686  0.3397  0.1497 -0.2322
18173TIP3    H175934   1.205   3.987  14.729  1.9193  1.6415  0.0618
18173TIP3    H275935   1.165   4.133  14.733  0.2617  1.2969 -2.0865
18174TIP3   OH275936   4.246   6.041   1.991  0.2808 -0.3425  0.0695
18174TIP3    H175937   4.152   6.023   1.980  0.4818 -1.3489 -0.0856
18174TIP3    H275938   4.285   5.954   2.003  1.0639  0.1453  1.1797
18175TIP3   OH275939   2.622   3.732   2.259 -0.6189 -0.0422 -0.1379
18175TIP3    H175940   2.658   3.761   2.343 -2.9092 -0.4112  1.0427
18175TIP3    H275941   2.697   3.695   2.213  0.4526 -1.3445  2.4234
18176TIP3   OH275942   0.689   0.766  16.582 -0.6913  0.0422  0.3976
18176TIP3    H175943   0.615   0.711  16.608 -0.8803 -1.3990 -2.7117
18176TIP3    H275944   0.760   0.705  16.563  0.2412  1.1581  0.1271
18177TIP3   OH275945   2.492   3.491   0.915  0.5905 -0.3322 -0.5126
18177TIP3    H175946   2.458   3.578   0.895  0.5998 -0.2317 -0.0962
18177TIP3    H275947   2.534   3.500   1.001  0.2165 -0.8479 -0.2716
18178TIP3   OH275948   4.923   6.623   4.863  0.4292  0.3201 -0.3210
18178TIP3    H175949   5.001   6.679   4.858  0.7516  0.0288  1.0843
18178TIP3    H275950   4.904   6.601   4.772  2.1046  0.2266 -0.6815
18179TIP3   OH275951   1.095   2.719  12.843 -0.1716 -0.3082  0.3113
18179TIP3    H175952   1.177   2.684  12.809 -0.8008 -1.0187 -0.5107
18179TIP3    H275953   1.074   2.664  12.919 -0.4620 -0.8684 -0.1657
18180TIP3   OH275954   6.424   2.871  16.065 -0.0582 -0.6142 -0.1283
18180TIP3    H175955   6.347   2.840  16.112  0.0541  1.4228  1.5540
18180TIP3    H275956   6.493   2.807  16.085 -0.7083 -1.2046  0.2474
18181TIP3   OH275957   0.829   2.591  15.096  0.1007  0.1135 -0.1234
18181TIP3    H175958   0.917   2.561  15.077 -0.0640 -1.6051  1.5233
18181TIP3    H275959   0.840   2.652  15.169 -0.1275 -0.9085  0.7917
18182TIP3   OH275960   2.829   3.531   1.498 -0.1185 -0.8478  0.6419
18182TIP3    H175961   2.805   3.440   1.481 -4.3399  0.2997 -0.7030
18182TIP3    H275962   2.746   3.576   1.511  1.8434  2.6628  2.5651
18183TIP3   OH275963   2.662   3.693  10.917 -0.1518 -0.6118  0.3408
18183TIP3    H175964   2.690   3.659  11.002 -0.2047 -1.8450 -0.1165
18183TIP3    H275965   2.608   3.624  10.881 -1.4207  0.5431 -0.0456
18184TIP3   OH275966   1.380   0.947  16.601  0.8795  0.0682 -0.0007
18184TIP3    H175967   1.351   0.878  16.540  0.2008 -0.1164  0.5210
18184TIP3    H275968   1.408   0.899  16.679 -1.5413  0.4394  1.1810
18185TIP3   OH275969   3.156   2.620   5.295  0.0682  0.2072 -0.1434
18185TIP3    H175970   3.094   2.599   5.365  0.4784 -0.7333 -0.0476
18185TIP3    H275971   3.146   2.550   5.232  0.4161  0.5172 -0.5488
18186TIP3   OH275972   6.748   6.246  16.593 -0.5897  0.1329 -0.6453
18186TIP3    H175973   6.732   6.156  16.568 -0.0550 -0.2187  0.2203
18186TIP3    H275974   6.681   6.297  16.547 -0.4947 -0.6268 -1.6254
18187TIP3   OH275975   5.063   5.346  10.544 -0.0360  0.1460  0.1226
18187TIP3    H175976   4.990   5.287  10.526  0.9041 -0.7791 -0.8789
18187TIP3    H275977   5.023   5.429  10.567 -1.3955 -0.4494 -0.0120
18188TIP3   OH275978   1.657   3.980  11.243 -0.4373 -0.2371  0.3421
18188TIP3    H175979   1.746   3.967  11.209  0.3847  1.3850  1.7137
18188TIP3    H275980   1.630   3.893  11.271 -0.5249 -1.3420 -2.7882
18189TIP3   OH275981   4.605   5.546  15.403 -0.3229  0.1619 -0.1138
18189TIP3    H175982   4.699   5.565  15.392 -0.6860  1.0663 -2.2338
18189TIP3    H275983   4.596   5.455  15.376  0.0300 -0.1254  0.7168
18190TIP3   OH275984   2.895   2.225   3.495 -0.0124 -0.2712 -0.4031
18190TIP3    H175985   2.848   2.308   3.481 -0.5118  0.1693  2.9494
18190TIP3    H275986   2.968   2.228   3.434 -0.5563  2.2052 -1.0527
18191TIP3   OH275987   3.338   3.125  16.004 -0.2747 -0.3801  0.4748
18191TIP3    H175988   3.336   3.050  15.944 -0.1624 -1.7759  2.1486
18191TIP3    H275989   3.247   3.133  16.035 -0.3919  0.5112 -0.0660
18192TIP3   OH275990   2.210   1.056   5.715  0.2027  0.2758  0.9435
18192TIP3    H175991   2.168   0.970   5.717 -1.0762  0.8817  0.9634
18192TIP3    H275992   2.261   1.059   5.796  2.4032 -1.4586 -0.2641
18193TIP3   OH275993   5.345   3.887   1.022  0.1360  0.4627 -0.4564
18193TIP3    H175994   5.273   3.869   1.083 -0.0973  0.2184 -0.8029
18193TIP3    H275995   5.333   3.979   0.999  0.1540  0.5246 -0.2272
18194TIP3   OH275996   2.361   1.997   5.915  0.5713  0.0027 -0.8637
18194TIP3    H175997   2.271   2.029   5.913  0.9356  1.0331 -1.6647
18194TIP3    H275998   2.370   1.957   6.002  0.0960  2.1772  0.2486
18195TIP3   OH275999   4.643   6.210  11.115 -0.2424  0.1661 -0.0799
18195TIP3    H176000   4.676   6.130  11.155 -1.5614 -0.3961 -0.0555
18195TIP3    H276001   4.660   6.279  11.179  1.6994  0.0972 -0.4638
18196TIP3   OH276002   5.765   3.004  14.297  0.1633 -0.9938 -0.5273
18196TIP3    H176003   5.826   2.933  14.276 -1.3387 -2.2136 -0.9936
18196TIP3    H276004   5.792   3.077  14.241 -0.5195 -2.4581 -2.9459
18197TIP3   OH276005   1.634   0.074   4.352 -0.0184  0.3246  0.5455
18197TIP3    H176006   1.634   0.151   4.408 -0.3695  0.0960  0.8664
18197TIP3    H276007   1.595   0.103   4.270  0.6408  0.7001  0.3528
18198TIP3   OH276008   0.374   1.652  12.266 -0.1085 -0.0719  0.0781
18198TIP3    H176009   0.282   1.657  12.238 -0.5767 -1.3641  1.2260
18198TIP3    H276010   0.369   1.640  12.361  1.3182  1.2930  0.3756
18199TIP3   OH276011   6.598   4.250  13.637 -0.0417  0.5164  0.5487
18199TIP3    H176012   6.677   4.224  13.684  0.1998 -0.6248 -0.4376
18199TIP3    H276013   6.533   4.183  13.661 -0.5622  1.1497  0.9410
18200TIP3   OH276014   4.473   0.911   1.894 -0.0884  0.6430 -0.2154
18200TIP3    H176015   4.508   0.979   1.952  1.1379 -0.5988  0.5812
18200TIP3    H276016   4.431   0.848   1.953  0.5074 -0.2552 -0.7237
18201TIP3   OH276017   2.157   2.671   4.004 -0.4816  0.1051  0.8602
18201TIP3    H176018   2.133   2.729   3.931  1.6181 -0.1343 -0.0631
18201TIP3    H276019   2.225   2.719   4.051 -0.5516 -0.5205  1.6144
18202TIP3   OH276020   1.104   1.503   5.989  0.3959  0.0180  0.7642
18202TIP3    H176021   1.021   1.495   6.035  0.3133  0.3636  0.6819
18202TIP3    H276022   1.165   1.539   6.054  0.3913  0.0919  0.7278
18203TIP3   OH276023   4.811   0.063  16.912  0.1633  0.1108  0.3869
18203TIP3    H176024   4.747   0.089  16.845  0.5855 -1.1139 -0.5349
18203TIP3    H276025   4.772   0.092  16.994  0.2067  2.8287 -0.4511
18204TIP3   OH276026   5.051   4.058  15.577  0.4024  1.0152 -0.6557
18204TIP3    H176027   4.974   4.035  15.526  0.3749  2.4246 -1.2832
18204TIP3    H276028   5.062   3.985  15.638 -1.1038  0.5488 -0.9126
18205TIP3   OH276029   4.082   0.201   6.159  0.5310  0.2693 -0.0019
18205TIP3    H176030   3.994   0.166   6.175  0.0467  0.4277 -1.9978
18205TIP3    H276031   4.129   0.129   6.118  0.7293  0.7596 -0.6559
18206TIP3   OH276032   1.864   6.473   2.581  0.0009 -0.5294  0.0319
18206TIP3    H176033   1.901   6.386   2.567 -2.1485 -1.5420  0.2920
18206TIP3    H276034   1.859   6.482   2.676 -0.4157 -0.4212  0.0025
18207TIP3   OH276035   2.385   5.646   4.960 -0.6857  0.6492  0.4968
18207TIP3    H176036   2.293   5.663   4.980 -0.4370  1.3110  1.1415
18207TIP3    H276037   2.385   5.614   4.870 -1.6837 -0.8241  0.9958
18208TIP3   OH276038   0.651   6.042  13.381  0.3740 -0.4205  0.0143
18208TIP3    H176039   0.613   6.001  13.303  1.4328 -0.4824 -0.4847
18208TIP3    H276040   0.636   5.978  13.451 -1.1455 -0.0932  0.0313
18209TIP3   OH276041   3.072   4.887  16.314 -0.2185 -0.0513 -0.0642
18209TIP3    H176042   2.990   4.932  16.331 -1.2830 -1.2337 -1.7601
18209TIP3    H276043   3.137   4.934  16.367 -1.9066  1.0965  1.0755
18210TIP3   OH276044   1.315   5.504  10.971 -0.1124 -0.9872 -0.1883
18210TIP3    H176045   1.250   5.572  10.990 -0.8026 -1.9294  0.9223
18210TIP3    H276046   1.265   5.432  10.934  0.6435 -0.8684 -1.5476
18211TIP3   OH276047   3.816   6.324  13.996 -0.0492 -0.4590 -0.1306
18211TIP3    H176048   3.776   6.329  13.909 -0.4733  0.6228  0.1058
18211TIP3    H276049   3.903   6.286  13.981 -0.5242 -1.2972 -0.8714
18212TIP3   OH276050   6.469   6.652  11.567  0.0306 -0.1657  0.4829
18212TIP3    H176051   6.411   6.719  11.603  0.6079 -0.2237  1.5712
18212TIP3    H276052   6.442   6.571  11.611 -0.3871 -0.5912 -0.5134
18213TIP3   OH276053   4.986   2.282   1.190  0.3521  0.6640 -0.1153
18213TIP3    H176054   5.010   2.305   1.100  1.4221  0.7882  0.1882
18213TIP3    H276055   5.066   2.297   1.241  0.6551 -2.1039  0.4066
18214TIP3   OH276056   3.165   2.892   0.560  0.0182  0.3562 -0.3902
18214TIP3    H176057   3.117   2.974   0.548  0.2520  0.6733  0.7529
18214TIP3    H276058   3.206   2.901   0.646 -1.2346 -1.6040  0.4840
18215TIP3   OH276059   3.688   6.491  14.367 -0.1586  0.4167  1.0389
18215TIP3    H176060   3.647   6.460  14.448 -0.1649  2.0493  1.6878
18215TIP3    H276061   3.745   6.563  14.394 -0.3394  1.1555 -0.4383
18216TIP3   OH276062   2.637   4.484  12.274  0.1948  0.2048 -0.8064
18216TIP3    H176063   2.681   4.528  12.202  0.6085 -2.2803 -2.1660
18216TIP3    H276064   2.576   4.423  12.233 -0.3281 -0.5500  0.9620
18217TIP3   OH276065   6.112   5.246   1.010  0.4410 -0.1704 -0.2673
18217TIP3    H176066   6.108   5.324   1.066 -1.8462  0.8659 -1.7550
18217TIP3    H276067   6.204   5.218   1.016  0.8337  1.3080  2.0286
18218TIP3   OH276068   4.490   3.478  12.846 -0.5836  0.3484 -0.4785
18218TIP3    H176069   4.397   3.480  12.823 -0.4380  0.2058 -1.1273
18218TIP3    H276070   4.493   3.497  12.939 -1.3174 -0.3399 -0.3037
18219TIP3   OH276071   4.829   4.121   6.021  0.1699 -0.3666 -0.3037
18219TIP3    H176072   4.830   4.046   6.081 -0.7059 -0.8869 -0.9246
18219TIP3    H276073   4.913   4.165   6.038 -0.2372 -0.2218  1.6343
18220TIP3   OH276074   0.006   2.206  14.751 -0.1749  0.1863 -0.0405
18220TIP3    H176075   0.084   2.164  14.788  0.1553  1.7793  1.2219
18220TIP3    H276076   0.040   2.267  14.686 -0.4436  0.2381 -0.1352
18221TIP3   OH276077   6.036   5.218   0.554  0.8822 -0.4633  0.3323
18221TIP3    H176078   6.020   5.125   0.569  1.3232 -0.3006  2.0224
18221TIP3    H276079   5.980   5.240   0.480  0.4506 -1.9776  0.1741
18222TIP3   OH276080   4.482   5.732   1.006  0.4567  0.1754 -0.4212
18222TIP3    H176081   4.490   5.827   1.001  1.3090  0.1467  0.1025
18222TIP3    H276082   4.401   5.717   1.055  1.2299  0.6861  1.0938
18223TIP3   OH276083   2.634   0.374   0.472 -0.1818  0.4441  0.2475
18223TIP3    H176084   2.703   0.312   0.446 -1.0638 -0.3503 -0.2597
18223TIP3    H276085   2.617   0.425   0.393 -1.0190 -0.1882  0.0081
18224TIP3   OH276086   1.575   1.059   0.342  0.6716 -0.7058 -0.6837
18224TIP3    H176087   1.482   1.079   0.333  0.2150 -0.7168  2.6423
18224TIP3    H276088   1.577   0.968   0.372  1.8950 -1.2003 -2.1431
18225TIP3   OH276089   0.396   4.243   2.823 -0.0899  0.4355  0.3799
18225TIP3    H176090   0.319   4.187   2.816 -0.6370  1.1380  0.6531
18225TIP3    H276091   0.465   4.196   2.775 -1.3116  0.9027 -2.0059
18226TIP3   OH276092   0.010   2.280  13.575 -0.1087  0.1297 -0.2134
18226TIP3    H176093   0.010   2.206  13.513 -1.0520  1.8726 -2.4575
18226TIP3    H276094  -0.082   2.305  13.582  0.1654  0.9343  0.7219
18227TIP3   OH276095   0.354   4.817   6.361  0.5676  0.2555  0.4712
18227TIP3    H176096   0.419   4.882   6.386  2.7956 -1.4589 -0.5493
18227TIP3    H276097   0.277   4.838   6.415  1.0149  3.8489 -0.0103
18228TIP3   OH276098   5.560   5.387  16.532 -0.1434  0.3941 -0.1441
18228TIP3    H176099   5.563   5.311  16.590 -0.3202  1.2450  1.0102
18228TIP3    H276100   5.466   5.401  16.516 -0.0867  0.0274 -0.8339
18229TIP3   OH276101   4.914   3.163  15.434  0.0659 -0.1363 -0.0952
18229TIP3    H176102   4.826   3.129  15.421  0.4064 -1.1773  0.2071
18229TIP3    H276103   4.925   3.163  15.530 -0.0245  1.1058 -0.0722
18230TIP3   OH276104   2.168   2.233   0.822 -0.0345  0.0406  0.4505
18230TIP3    H176105   2.157   2.138   0.825  1.8905 -0.2120  0.7646
18230TIP3    H276106   2.082   2.268   0.845 -0.9465 -1.6009 -0.2972
18231TIP3   OH276107   3.252   3.356  15.799 -0.6350  0.7361  0.3981
18231TIP3    H176108   3.305   3.302  15.858 -0.1166  1.0837  0.2651
18231TIP3    H276109   3.252   3.443  15.839 -0.4538  0.9228  0.0017
18232TIP3   OH276110   0.269   1.114   5.150  0.2797  0.2294  0.3904
18232TIP3    H176111   0.181   1.102   5.115 -0.5486  2.2727  1.6099
18232TIP3    H276112   0.301   1.025   5.166 -1.5244 -0.5507 -0.1035
18233TIP3   OH276113   4.284   2.013   2.716  0.3560  0.0637 -0.4146
18233TIP3    H176114   4.251   1.934   2.758  1.3468  0.5797  1.4672
18233TIP3    H276115   4.356   1.983   2.661  2.0363 -0.2434  1.7819
18234TIP3   OH276116   0.081   0.188   2.495  0.1178  0.3288 -0.5269
18234TIP3    H176117   0.138   0.118   2.528 -0.2525  1.2550  2.4233
18234TIP3    H276118  -0.007   0.153   2.502  0.0743  0.2740 -1.3153
18235TIP3   OH276119   3.038   3.338  13.597 -0.0799 -0.5528  0.0409
18235TIP3    H176120   2.991   3.275  13.652  0.5969 -0.0607  1.2158
18235TIP3    H276121   2.995   3.422  13.613  1.3938 -0.0254  1.4214
18236TIP3   OH276122   2.369   0.107   3.503  0.2640  0.1756 -0.3491
18236TIP3    H176123   2.447   0.137   3.456  1.0396 -0.8073  0.2789
18236TIP3    H276124   2.389   0.124   3.596  0.4019 -1.4965 -0.0435
18237TIP3   OH276125   3.152   5.344  15.088  0.3892 -0.1643 -0.1580
18237TIP3    H176126   3.241   5.370  15.113  0.4654 -1.1430  0.6789
18237TIP3    H276127   3.155   5.248  15.089 -0.5804 -0.2024 -0.4988
18238TIP3   OH276128   4.259   4.109  14.347 -0.0537  0.1924  0.0603
18238TIP3    H176129   4.264   4.155  14.430 -1.4297 -1.8080  1.3289
18238TIP3    H276130   4.170   4.123  14.316 -0.0815 -0.5057 -0.1987
18239TIP3   OH276131   1.816   3.833   1.977  0.2743  0.1326  0.0794
18239TIP3    H176132   1.820   3.910   1.920  1.1949  0.4253  0.5182
18239TIP3    H276133   1.903   3.794   1.969 -0.7862 -2.0641 -1.7528
18240TIP3   OH276134   5.709   6.244   0.536 -0.6463  0.1225 -0.4159
18240TIP3    H176135   5.732   6.154   0.560 -1.3039  0.0476 -0.0441
18240TIP3    H276136   5.789   6.294   0.552 -0.5712 -0.2221  0.3328
18241TIP3   OH276137   1.410   4.295   6.184  0.0793 -0.0767  0.5186
18241TIP3    H176138   1.438   4.343   6.262  0.0881 -0.5073  0.7794
18241TIP3    H276139   1.403   4.204   6.212  2.0261 -0.5919 -0.4716
18242TIP3   OH276140   3.935   3.248  16.691  0.2150  0.2193 -0.5944
18242TIP3    H176141   3.889   3.322  16.732  0.4232 -0.4981  1.0325
18242TIP3    H276142   4.026   3.277  16.685  0.3892 -0.0583  0.4921
18243TIP3   OH276143   4.290   1.479   1.020 -0.1566  0.0591 -0.0810
18243TIP3    H176144   4.374   1.433   1.022 -0.5703 -0.6819  0.7995
18243TIP3    H276145   4.313   1.568   0.991  1.0869  0.1674  1.1135
18244TIP3   OH276146   5.219   4.348   1.429 -0.0219  0.3234  0.2242
18244TIP3    H176147   5.260   4.271   1.389 -1.1695  1.2884 -3.1720
18244TIP3    H276148   5.289   4.412   1.436  0.3288 -0.0649  0.3084
18245TIP3   OH276149   1.350   3.230  11.314  0.2078  0.2493  0.1394
18245TIP3    H176150   1.299   3.167  11.366  0.8930  0.1094  0.6626
18245TIP3    H276151   1.314   3.223  11.226 -0.0714 -0.5032  0.3025
18246TIP3   OH276152   4.033   4.077   0.200  0.5010 -0.1299 -0.0667
18246TIP3    H176153   4.105   4.062   0.139  0.8463 -1.0332  0.5505
18246TIP3    H276154   3.965   4.119   0.147  0.2695 -2.0814 -1.4279
18247TIP3   OH276155   2.888   0.874   3.788  0.2403 -0.2882 -0.2522
18247TIP3    H176156   2.932   0.951   3.824  1.4027 -0.9322 -0.2508
18247TIP3    H276157   2.796   0.900   3.780  0.8375  1.6111 -1.6162
18248TIP3   OH276158   1.144   6.511  15.574 -0.0740 -0.5993 -0.5938
18248TIP3    H176159   1.133   6.539  15.483 -2.8623 -2.4794 -0.9593
18248TIP3    H276160   1.075   6.558  15.621 -2.2658 -3.6221 -0.5364
18249TIP3   OH276161   1.839   1.087   4.318 -0.1708 -0.2315  0.3007
18249TIP3    H176162   1.778   1.025   4.277 -0.8129  1.6825 -1.9051
18249TIP3    H276163   1.900   1.032   4.366 -0.9267 -2.5469 -1.1924
18250TIP3   OH276164   0.698   6.429   5.176 -0.1543  0.2216  0.2567
18250TIP3    H176165   0.779   6.468   5.142  0.6523 -1.0342  0.6712
18250TIP3    H276166   0.656   6.499   5.225  1.7265  0.3393  1.8038
18251TIP3   OH276167   4.157   1.192  12.937  0.0829 -0.2546  0.0105
18251TIP3    H176168   4.155   1.288  12.933  0.1516 -0.2622 -0.2477
18251TIP3    H276169   4.176   1.173  13.029  0.9237 -0.0018 -0.0954
18252TIP3   OH276170   0.168   4.971  16.941 -0.2703  0.2200  0.4810
18252TIP3    H176171   0.249   4.933  16.977 -0.7420  0.0835  1.4110
18252TIP3    H276172   0.196   5.054  16.902  0.6269 -0.6478 -0.8239
18253TIP3   OH276173   4.933   2.997  11.027  0.0758 -0.2894 -0.0593
18253TIP3    H176174   4.848   3.025  11.062  0.9292 -0.4355  2.2801
18253TIP3    H276175   4.977   3.078  11.003 -0.8716 -0.2374 -1.7992
18254TIP3   OH276176   1.778   2.142   4.553 -0.3821 -0.1776  0.7234
18254TIP3    H176177   1.727   2.109   4.479  0.7440  0.5169 -0.4033
18254TIP3    H276178   1.735   2.106   4.630 -1.2627 -1.3775 -0.2926
18255TIP3   OH276179   5.569   4.946   2.467 -0.2565  0.2171 -0.4523
18255TIP3    H176180   5.547   4.889   2.394  1.3296  0.5210 -1.1995
18255TIP3    H276181   5.598   5.028   2.425  1.6895  0.0339  0.4561
18256TIP3   OH276182   3.721   6.276  13.746 -0.7918 -0.4186  0.7620
18256TIP3    H176183   3.735   6.233  13.662 -0.4921  0.8948  0.1246
18256TIP3    H276184   3.634   6.315  13.738  0.1008  1.5726  0.1976
18257TIP3   OH276185   3.913   1.178   0.020  0.7386 -0.2269 -0.0616
18257TIP3    H176186   4.001   1.142   0.029  1.1981  0.8705 -0.0166
18257TIP3    H276187   3.880   1.142  -0.062  0.5204 -2.0732  0.8016
18258TIP3   OH276188   5.888   0.186  11.932 -0.3418 -0.6708  0.5890
18258TIP3    H176189   5.853   0.273  11.949  2.6098  0.8001 -0.0489
18258TIP3    H276190   5.977   0.203  11.899  0.2385 -3.9304  0.1734
18259TIP3   OH276191   3.248   1.128  11.656 -0.1120 -0.0615  0.2096
18259TIP3    H176192   3.321   1.110  11.715  0.4770  1.6708  0.0705
18259TIP3    H276193   3.188   1.181  11.708 -0.4605 -0.0473 -0.2044
18260TIP3   OH276194   6.198   6.028  14.032 -0.1446  0.4424 -0.8213
18260TIP3    H176195   6.183   5.996  13.943 -0.3722 -0.7291 -0.3881
18260TIP3    H276196   6.197   6.123  14.024  1.8772  0.3853 -2.3888
18261TIP3   OH276197   3.020   0.463   4.050  0.5615 -0.6275 -0.0219
18261TIP3    H176198   3.009   0.503   3.964 -0.0768 -3.2146 -1.2099
18261TIP3    H276199   3.111   0.483   4.074  0.8668 -0.1922 -1.4657
18262TIP3   OH276200   0.383   0.632   0.931  0.4597  0.2881 -0.0383
18262TIP3    H176201   0.340   0.652   1.014 -0.0768 -2.3709  0.4163
18262TIP3    H276202   0.367   0.709   0.876 -3.0136  0.4040  0.8709
18263TIP3   OH276203   4.457   2.619  12.419  0.1732  0.6955 -0.0446
18263TIP3    H176204   4.431   2.546  12.476  2.0550  0.2401  0.3069
18263TIP3    H276205   4.517   2.579  12.356  1.2678  1.9396  0.1725
18264TIP3   OH276206   4.495   2.802   3.619  0.1573  0.0069 -0.0184
18264TIP3    H176207   4.427   2.799   3.551  0.8004  1.2637 -0.7637
18264TIP3    H276208   4.560   2.738   3.591 -0.5722 -1.0229  0.5675
18265TIP3   OH276209   2.255   0.763   5.670 -0.1834 -0.5192 -0.0194
18265TIP3    H176210   2.238   0.722   5.755  0.1779 -1.8200 -0.5578
18265TIP3    H276211   2.329   0.821   5.686 -1.0896  0.4317  0.8918
18266TIP3   OH276212   6.579   3.206   2.922 -0.2866 -0.4213 -0.7123
18266TIP3    H176213   6.560   3.131   2.866  1.1886  0.1816 -2.1081
18266TIP3    H276214   6.661   3.241   2.887 -0.8141  1.6990  0.0381
18267TIP3   OH276215   5.407   0.778   6.331  0.0472 -0.0747 -0.3042
18267TIP3    H176216   5.430   0.862   6.370 -0.7677 -0.2858  0.6791
18267TIP3    H276217   5.489   0.743   6.298  0.4518  0.9406 -0.3976
18268TIP3   OH276218   2.717   5.872   5.361 -0.1228  0.6455 -0.4451
18268TIP3    H176219   2.691   5.935   5.429  1.3087 -0.1263  0.8664
18268TIP3    H276220   2.804   5.901   5.333  0.0892 -0.1381 -0.6126
18269TIP3   OH276221   3.024   2.590  15.526 -0.3640 -0.0045 -0.0098
18269TIP3    H176222   3.059   2.673  15.558 -0.0204 -0.1802  0.0707
18269TIP3    H276223   2.955   2.567  15.588 -1.0665  0.6581 -0.5194
18270TIP3   OH276224   0.531   2.486  10.751  0.4806 -0.6187  0.3882
18270TIP3    H176225   0.552   2.522  10.665  2.0813  0.0311  1.0015
18270TIP3    H276226   0.468   2.548  10.789  1.3267  0.2138  0.4617
18271TIP3   OH276227   4.603   5.232   0.749 -0.5052  0.1663 -0.4245
18271TIP3    H176228   4.675   5.278   0.793 -1.1574  0.5028  0.3048
18271TIP3    H276229   4.646   5.184   0.678  0.2249  1.7054 -1.0640
18272TIP3   OH276230   0.580   1.265   2.020 -0.0880 -0.1481  0.1697
18272TIP3    H176231   0.585   1.313   1.937  0.0987  0.5649  0.5895
18272TIP3    H276232   0.541   1.180   1.996  0.7687 -0.2945 -0.7873
18273TIP3   OH276233   3.296   4.648  10.985 -0.2755 -0.0175 -0.5353
18273TIP3    H176234   3.203   4.651  11.007  0.0390  2.1319  0.9343
18273TIP3    H276235   3.303   4.695  10.902 -0.4855  0.0913 -0.4928
18274TIP3   OH276236   4.736   1.694   5.225 -0.0445  0.4833  0.2085
18274TIP3    H176237   4.804   1.710   5.160 -1.3226  0.3650 -1.2159
18274TIP3    H276238   4.723   1.778   5.267  0.2673  0.7599 -0.2369
18275TIP3   OH276239   5.815   1.220   2.482  0.3602 -0.3171 -0.4210
18275TIP3    H176240   5.910   1.216   2.482  0.3879  0.2294 -0.0615
18275TIP3    H276241   5.794   1.295   2.538 -0.3420 -1.7728  1.3512
18276TIP3   OH276242   4.161   3.457  13.567 -0.1550  0.1408  0.0825
18276TIP3    H176243   4.158   3.484  13.475  1.5447  1.1738  0.2937
18276TIP3    H276244   4.096   3.386  13.573  0.3594 -0.5954 -2.1183
18277TIP3   OH276245   2.856   0.445   2.786  0.0356 -0.5855 -0.2711
18277TIP3    H176246   2.837   0.476   2.874  1.2951 -1.7602  0.4521
18277TIP3    H276247   2.864   0.524   2.733 -0.7488  0.1300  0.6486
18278TIP3   OH276248   3.953   0.473  14.775 -0.0125  0.5451 -0.6687
18278TIP3    H176249   4.021   0.406  14.782 -1.7153 -1.0587  2.7794
18278TIP3    H276250   3.901   0.448  14.699  0.7953 -0.6349 -0.8473
18279TIP3   OH276251   0.650   1.273  13.496 -0.0569 -0.9027  0.1356
18279TIP3    H176252   0.590   1.347  13.487 -0.9780 -1.2298  2.6564
18279TIP3    H276253   0.736   1.313  13.509 -0.3485 -0.2897  0.2378
18280TIP3   OH276254   4.515   3.354  11.056  0.0830  0.0828  0.2875
18280TIP3    H176255   4.563   3.332  11.136  1.9552 -1.4350 -1.1526
18280TIP3    H276256   4.528   3.448  11.044  0.0701  0.2585  1.5710
18281TIP3   OH276257   2.914   5.745  13.878  0.0494 -0.4577 -0.0237
18281TIP3    H176258   2.863   5.822  13.904 -2.4435 -2.1797  0.5768
18281TIP3    H276259   2.897   5.736  13.784 -0.0822 -0.5585  0.0094
18282TIP3   OH276260   3.574   3.814  13.381  0.6998 -0.2890 -0.3262
18282TIP3    H176261   3.666   3.840  13.376  1.0352 -1.6022 -1.7637
18282TIP3    H276262   3.543   3.819  13.290 -0.4847 -0.4351  0.0560
18283TIP3   OH276263   4.649   4.898   2.895 -0.1623  0.2199 -0.6466
18283TIP3    H176264   4.586   4.830   2.871  0.7365 -1.4932  1.4682
18283TIP3    H276265   4.606   4.980   2.872 -2.1366 -0.9705 -1.4734
18284TIP3   OH276266   3.023   2.581   3.574  0.8836 -0.4322 -0.3566
18284TIP3    H176267   3.023   2.610   3.483 -0.6442 -3.2059 -1.3377
18284TIP3    H276268   2.936   2.545   3.589  1.7356 -1.9049  1.5814
18285TIP3   OH276269   1.141   5.772  16.560 -0.3086  0.3103  0.2026
18285TIP3    H176270   1.223   5.734  16.528 -1.0547  0.8429 -2.6377
18285TIP3    H276271   1.162   5.865  16.572 -0.0619  0.1328  1.2123
18286TIP3   OH276272   1.603   6.621   5.052 -0.4744 -0.0174  0.6429
18286TIP3    H176273   1.620   6.702   5.005 -1.0686 -0.5085 -0.4544
18286TIP3    H276274   1.674   6.615   5.116 -0.5759  1.4940  0.9277
18287TIP3   OH276275   0.954   0.490   0.734  0.3861 -0.5811 -0.0940
18287TIP3    H176276   0.983   0.571   0.776 -1.6149 -0.0384  0.3327
18287TIP3    H276277   1.009   0.422   0.774  0.9994  0.3701  0.7330
18288TIP3   OH276278   6.331   5.787  15.730 -0.6850 -0.2011  0.1986
18288TIP3    H176279   6.319   5.862  15.672 -3.0415  0.2104  1.0858
18288TIP3    H276280   6.353   5.714  15.672 -2.9697  0.1795 -1.3034
18289TIP3   OH276281   1.220   6.172  16.057 -0.8579  0.2126 -0.3316
18289TIP3    H176282   1.243   6.181  15.965 -0.6001  0.3449 -0.2561
18289TIP3    H276283   1.125   6.156  16.057 -1.3444  2.6309 -0.5198
18290TIP3   OH276284   0.800   0.922  14.189  0.5140 -0.4043 -0.1721
18290TIP3    H176285   0.740   0.848  14.194  0.6373 -0.5826 -1.1702
18290TIP3    H276286   0.748   0.992  14.151  0.3295  0.1170  0.9835
18291TIP3   OH276287   1.875   4.094   2.944  0.5820  0.2281 -0.1229
18291TIP3    H176288   1.939   4.092   3.015  1.4899  2.0828 -0.7971
18291TIP3    H276289   1.923   4.064   2.867 -0.0413 -0.5896 -0.2070
18292TIP3   OH276290   0.192   4.774   0.424 -0.3159  0.1058  0.3576
18292TIP3    H176291   0.117   4.729   0.385 -1.7093  2.9542 -0.5027
18292TIP3    H276292   0.153   4.834   0.489  1.2821  1.0492  0.5046
18293TIP3   OH276293   2.259   3.550   3.930  0.2144 -0.0991  0.1432
18293TIP3    H176294   2.230   3.487   3.865  0.3267  0.6340 -0.6372
18293TIP3    H276295   2.350   3.526   3.948  0.4062  0.1114 -0.5060
18294TIP3   OH276296   3.186   3.669  10.572 -0.3305  0.0074  0.5498
18294TIP3    H176297   3.120   3.731  10.541 -2.1837 -1.3190  1.6710
18294TIP3    H276298   3.237   3.649  10.494 -0.2576  2.1859 -0.0470
18295TIP3   OH276299   3.993   4.993  11.836  0.2792 -0.4115 -0.4443
18295TIP3    H176300   4.012   4.951  11.921  2.1276  0.4583 -0.3874
18295TIP3    H276301   4.079   5.011  11.799 -0.4937  1.1362 -1.5626
18296TIP3   OH276302   1.141   5.085  11.750  0.6188  0.2139 -0.1219
18296TIP3    H176303   1.132   5.142  11.826 -0.0520  0.0515 -0.0739
18296TIP3    H276304   1.092   5.130  11.681  0.1529 -0.2538 -0.1057
18297TIP3   OH276305   6.348   5.669  12.242 -0.7188 -0.3036 -0.4967
18297TIP3    H176306   6.252   5.676  12.243 -0.6765  2.5233 -2.5759
18297TIP3    H276307   6.375   5.702  12.328 -1.6096  0.7260 -0.5829
18298TIP3   OH276308   1.759   3.747   3.407 -0.0039  0.4721 -0.3037
18298TIP3    H176309   1.776   3.783   3.320  0.1683  0.9520 -0.0721
18298TIP3    H276310   1.687   3.685   3.393  0.7240 -0.2552 -0.9803
18299TIP3   OH276311   4.250   1.248   3.557 -0.2768  0.2121 -0.1341
18299TIP3    H176312   4.171   1.300   3.542 -0.0964  0.8820  1.0525
18299TIP3    H276313   4.316   1.285   3.497  0.2050  2.2463  1.5352
18300TIP3   OH276314   2.881   0.917   5.685  0.6209  0.1003 -0.3471
18300TIP3    H176315   2.908   0.944   5.597 -0.2037 -1.6522 -1.1882
18300TIP3    H276316   2.846   0.996   5.725  1.0149  0.9280 -1.5926
18301TIP3   OH276317   2.580   4.554   1.326  0.0635  0.4688 -0.2252
18301TIP3    H176318   2.515   4.555   1.397  0.7841  2.3229  0.4744
18301TIP3    H276319   2.611   4.644   1.321  1.5916 -0.0853 -1.4733
18302TIP3   OH276320   3.737   6.103  14.811  0.4955 -0.0673  0.2751
18302TIP3    H176321   3.716   6.094  14.718 -2.8039 -0.9186  0.9463
18302TIP3    H276322   3.806   6.168  14.814  2.5368 -1.8329 -2.8856
18303TIP3   OH276323   2.201   0.596  14.742 -0.0753  0.1925  0.0434
18303TIP3    H176324   2.208   0.601  14.837 -1.6103  0.1378  0.1851
18303TIP3    H276325   2.230   0.507  14.721  0.5117  0.2905  0.4283
18304TIP3   OH276326   5.194   3.075   5.696  0.5746  0.1052  0.4738
18304TIP3    H176327   5.141   3.022   5.756  2.8676 -0.7790  1.8640
18304TIP3    H276328   5.284   3.047   5.713  1.5714  1.9695 -1.3092
18305TIP3   OH276329   2.027   4.910   1.946 -0.3384  0.5321  0.0137
18305TIP3    H176330   2.048   5.001   1.924  0.4260 -0.1415 -2.3455
18305TIP3    H276331   2.019   4.909   2.041 -0.7579  3.1384  0.0713
18306TIP3   OH276332   2.525   2.578   3.346  0.0064 -0.2149 -0.4903
18306TIP3    H176333   2.528   2.513   3.276 -1.2881  0.0491 -0.8072
18306TIP3    H276334   2.447   2.557   3.396  1.6582 -1.3006  1.8164
18307TIP3   OH276335   4.070   4.356   3.707  0.1170 -0.3611 -0.0208
18307TIP3    H176336   4.098   4.271   3.672  1.5184 -0.1162  0.4719
18307TIP3    H276337   4.130   4.419   3.669 -0.6036  0.3626  0.0242
18308TIP3   OH276338   1.746   6.323  14.738 -0.3268 -0.1144 -0.0686
18308TIP3    H176339   1.666   6.363  14.704 -0.7360 -1.3018 -0.5681
18308TIP3    H276340   1.726   6.306  14.831 -0.2689  0.5094  0.0637
18309TIP3   OH276341   5.242   4.019  11.561 -0.4292  0.4355  0.2365
18309TIP3    H176342   5.248   3.946  11.501 -1.2365  0.6591 -0.1301
18309TIP3    H276343   5.262   3.982  11.647  2.5524  0.4538 -0.3341
18310TIP3   OH276344   1.164   4.878   1.562  0.1146  0.0520 -0.2835
18310TIP3    H176345   1.113   4.801   1.589  0.4993  0.2153  0.9755
18310TIP3    H276346   1.107   4.924   1.501 -2.1200  1.2457  2.4672
18311TIP3   OH276347   1.445   5.078   5.274 -0.2449  0.2653 -0.9867
18311TIP3    H176348   1.367   5.055   5.323 -0.2604  1.0279 -0.6315
18311TIP3    H276349   1.416   5.147   5.215  0.0229  0.1209 -1.2851
18312TIP3   OH276350   2.834   2.320   1.958  0.1091  0.2194  0.9472
18312TIP3    H176351   2.839   2.413   1.935  0.8841 -0.3012 -1.2306
18312TIP3    H276352   2.921   2.299   1.991  0.8466 -0.2925 -1.1580
18313TIP3   OH276353   0.394   2.406  14.488 -0.3402  0.6668  0.2750
18313TIP3    H176354   0.410   2.496  14.461 -1.0680  1.0325  1.0253
18313TIP3    H276355   0.465   2.386  14.550  0.2993  0.4317 -0.5187
18314TIP3   OH276356   5.786   0.395   0.181 -0.3516  0.2396  0.1885
18314TIP3    H176357   5.711   0.424   0.232  0.7667  0.2890  1.8793
18314TIP3    H276358   5.820   0.475   0.141 -1.3196  0.1801 -0.8081
18315TIP3   OH276359   2.003   2.079  16.198  0.4973  0.1465  0.2950
18315TIP3    H176360   1.955   2.081  16.280  2.3971  1.0182  1.4510
18315TIP3    H276361   2.060   2.156  16.201  0.8898 -0.0122 -1.6642
18316TIP3   OH276362   0.677   6.383   1.256 -0.2249 -0.3647 -0.2833
18316TIP3    H176363   0.758   6.334   1.274  0.1950  0.4425  0.0937
18316TIP3    H276364   0.668   6.379   1.161  0.8929  0.4857 -0.4527
18317TIP3   OH276365   5.889   1.159   1.929 -0.3738  0.0343  0.5983
18317TIP3    H176366   5.949   1.106   1.980 -0.5180  0.4603  1.2255
18317TIP3    H276367   5.827   1.096   1.891  1.0401 -0.5261 -0.9075
18318TIP3   OH276368   4.715   4.299  11.738 -0.3776 -0.4079  0.6121
18318TIP3    H176369   4.721   4.320  11.645 -1.5382 -2.0862  0.1154
18318TIP3    H276370   4.805   4.279  11.764 -0.4600 -3.7016 -1.1574
18319TIP3   OH276371   0.153   0.154  16.863 -0.6513 -0.0558  0.0399
18319TIP3    H176372   0.189   0.073  16.826  0.6719 -0.8823  2.7915
18319TIP3    H276373   0.080   0.124  16.917  0.9705  0.1796  2.5774
18320TIP3   OH276374   3.137   1.472  13.314 -0.0661  0.7188 -0.1004
18320TIP3    H176375   3.203   1.458  13.247 -2.3592 -1.1385 -2.1730
18320TIP3    H276376   3.164   1.414  13.386  1.3842  1.2732 -0.1603
18321TIP3   OH276377   2.664   4.330   0.127 -0.0195 -0.1789  0.1139
18321TIP3    H176378   2.614   4.248   0.134  0.0657 -0.4318 -1.6499
18321TIP3    H276379   2.609   4.386   0.072  0.5492  0.4401  0.1726
18322TIP3   OH276380   5.652   3.896   2.871  0.2982 -0.0159  0.1086
18322TIP3    H176381   5.599   3.819   2.853  1.0108 -0.5940  0.4257
18322TIP3    H276382   5.740   3.862   2.886  0.1684  0.5875  2.6898
18323TIP3   OH276383   4.529   0.029  16.013 -0.3206 -0.0006 -0.4810
18323TIP3    H176384   4.508   0.046  15.921 -2.0309 -1.1361 -0.3375
18323TIP3    H276385   4.624   0.019  16.014 -0.2752 -0.0782 -2.1305
18324TIP3   OH276386   5.083   4.583   1.851  0.5788  0.1768  0.0624
18324TIP3    H176387   5.154   4.558   1.792  0.8965  0.8003  0.1660
18324TIP3    H276388   5.004   4.549   1.810  0.8633  0.0784 -0.4120
18325TIP3   OH276389   1.655   3.334   5.803  0.2969 -0.0149 -0.2111
18325TIP3    H176390   1.632   3.359   5.892  1.1248  0.8014 -0.2112
18325TIP3    H276391   1.590   3.378   5.748 -0.2764 -0.6038 -0.0055
18326TIP3   OH276392   2.144   3.009  14.098 -0.0246  0.2507 -0.2941
18326TIP3    H176393   2.155   2.957  14.018 -1.4069  0.2504 -0.5063
18326TIP3    H276394   2.051   3.033  14.099  0.4432  2.1999  0.1244
18327TIP3   OH276395   4.220   6.357   0.455  0.4972  0.3861 -0.2849
18327TIP3    H176396   4.300   6.409   0.445  0.0366  1.1382 -0.2105
18327TIP3    H276397   4.172   6.401   0.525 -0.2400  0.2865 -0.7223
18328TIP3   OH276398   4.540   1.544  16.303 -0.0642 -0.2337 -0.5732
18328TIP3    H176399   4.450   1.528  16.331 -0.3235  0.8428 -0.7385
18328TIP3    H276400   4.541   1.637  16.279  1.0252 -0.3001 -0.8214
18329TIP3   OH276401   0.661   3.248  14.106  0.2667  0.4502  0.4372
18329TIP3    H176402   0.756   3.261  14.097 -0.0869  2.2073 -1.5898
18329TIP3    H276403   0.639   3.292  14.187  0.8538  2.5311 -0.4609
18330TIP3   OH276404   3.974   6.394  13.675 -0.1966 -0.1214  0.0392
18330TIP3    H176405   4.025   6.317  13.649 -1.5751 -0.5345 -1.6624
18330TIP3    H276406   3.891   6.357  13.707 -1.0032  0.6256 -1.1212
18331TIP3   OH276407   5.700   1.758  11.020 -0.7047 -0.4161  0.3664
18331TIP3    H176408   5.715   1.663  11.020  2.5516 -0.0204 -1.1249
18331TIP3    H276409   5.655   1.774  10.937  0.7071 -0.4615 -0.4322
18332TIP3   OH276410   2.965   6.527  11.816 -0.1078  0.2541 -0.2022
18332TIP3    H176411   3.043   6.570  11.781 -0.6516 -0.1055 -1.9795
18332TIP3    H276412   2.999   6.446  11.855  0.6615  1.2268  1.2227
18333TIP3   OH276413   5.160   4.160  17.110  0.0617 -0.0900  0.5283
18333TIP3    H176414   5.120   4.157  17.023 -1.8843 -3.3178  1.3465
18333TIP3    H276415   5.226   4.228  17.104  1.2910 -1.3310 -4.0189
18334TIP3   OH276416   0.726   1.610   2.954  0.1979 -0.0357 -0.0088
18334TIP3    H176417   0.684   1.570   2.877 -1.7354  0.1786  0.8659
18334TIP3    H276418   0.721   1.542   3.021 -1.6324  1.0194  1.0119
18335TIP3   OH276419   2.669   5.710   2.640  0.1343  0.1704 -0.4395
18335TIP3    H176420   2.645   5.640   2.700 -1.8881  1.2418  0.1049
18335TIP3    H276421   2.734   5.671   2.581 -0.6919 -2.0317  0.0275
18336TIP3   OH276422   6.012   1.789   2.370 -0.3544 -0.3382  0.2860
18336TIP3    H176423   6.052   1.754   2.290 -0.1847 -0.9822  0.6486
18336TIP3    H276424   6.048   1.877   2.378 -3.9447  1.7165 -2.9400
18337TIP3   OH276425   0.730   5.769  14.619  0.6310 -0.5992 -0.0087
18337TIP3    H176426   0.744   5.788  14.526  0.3203 -1.2588 -0.1988
18337TIP3    H276427   0.805   5.808  14.664 -0.8929  2.8092 -0.1369
18338TIP3   OH276428   5.061   1.701  11.549 -0.4766  0.4567  0.5322
18338TIP3    H176429   5.099   1.692  11.636  1.1683 -0.7391 -0.2590
18338TIP3    H276430   5.000   1.627  11.541 -1.7493  1.4035  1.1731
18339TIP3   OH276431   0.647   1.860   2.910 -0.1347  0.1667 -0.5033
18339TIP3    H176432   0.658   1.766   2.920  1.0629  0.4096  0.9164
18339TIP3    H276433   0.711   1.898   2.971  1.5353  1.9243 -3.1119
18340TIP3   OH276434   3.513   3.159  16.233 -0.4863 -0.2832 -0.0198
18340TIP3    H176435   3.463   3.167  16.152 -0.5161  0.4994  0.0665
18340TIP3    H276436   3.454   3.189  16.302 -0.3821 -0.7255  0.2699
18341TIP3   OH276437   2.327   5.964  11.716 -0.2235 -0.2716  0.0159
18341TIP3    H176438   2.231   5.963  11.723 -0.2715  0.7577 -0.3955
18341TIP3    H276439   2.357   5.945  11.805 -0.8097 -0.1174  0.2552
18342TIP3   OH276440   6.397   5.512  12.538  0.5037 -0.5788 -0.1384
18342TIP3    H176441   6.383   5.606  12.529  1.4821 -0.5047 -1.1893
18342TIP3    H276442   6.484   5.504  12.577  0.2119 -1.0552  0.4394
18343TIP3   OH276443   1.920   4.740   4.323  0.0509 -0.1234 -0.2693
18343TIP3    H176444   1.906   4.834   4.336 -2.9410 -0.5919  0.4420
18343TIP3    H276445   1.977   4.714   4.395 -0.7531  0.8089  0.7277
18344TIP3   OH276446   2.814   2.417   0.846  0.0162 -0.8221  0.3946
18344TIP3    H176447   2.837   2.346   0.787 -3.3504 -1.5983 -0.1632
18344TIP3    H276448   2.804   2.375   0.932 -1.1271 -0.8889  0.2386
18345TIP3   OH276449   2.147   4.370   3.974 -0.6454  0.1163 -0.2909
18345TIP3    H176450   2.170   4.292   3.923 -0.3231  0.2482 -0.3513
18345TIP3    H276451   2.056   4.388   3.950 -0.7810 -0.3447 -0.1432
18346TIP3   OH276452   4.782   3.865  14.889 -0.1528  0.0562  0.1405
18346TIP3    H176453   4.762   3.878  14.796 -2.1255 -2.2661  0.1124
18346TIP3    H276454   4.814   3.775  14.894  0.8544  0.4625  1.6165
18347TIP3   OH276455   3.768   6.570  16.751 -0.6350 -0.5400  0.1987
18347TIP3    H176456   3.765   6.586  16.657 -0.7848  0.7065  0.3939
18347TIP3    H276457   3.730   6.649  16.790  1.4343 -0.0595  1.3942
18348TIP3   OH276458   2.369   5.528  16.798 -0.7288  0.6966  0.1444
18348TIP3    H176459   2.422   5.608  16.799 -2.1302  1.6763 -0.4641
18348TIP3    H276460   2.388   5.485  16.881  1.9653  0.3312 -0.5725
18349TIP3   OH276461   1.029   1.220   3.148  0.2827  0.0581 -0.6207
18349TIP3    H176462   1.075   1.144   3.182 -0.5023 -1.5049 -2.8094
18349TIP3    H276463   1.072   1.239   3.065 -1.2905  0.2081 -1.4514
18350TIP3   OH276464   0.709   4.197   0.369 -0.0525 -0.3994 -0.3774
18350TIP3    H176465   0.699   4.132   0.438  0.6505  0.7524  0.8525
18350TIP3    H276466   0.637   4.180   0.309 -1.1346 -0.9528  1.0325
18351TIP3   OH276467   2.759   3.108   0.003  0.1493 -0.0252  0.9188
18351TIP3    H176468   2.777   3.057   0.082 -0.4706  1.1663  1.8638
18351TIP3    H276469   2.787   3.052  -0.069  0.1717 -1.3889  1.9551
18352TIP3   OH276470   1.869   2.407  10.825 -0.0951  0.1566 -0.1589
18352TIP3    H176471   1.867   2.345  10.898 -1.5974 -1.0513 -1.1594
18352TIP3    H276472   1.882   2.353  10.748  2.7683  1.5319 -0.7566
18353TIP3   OH276473   3.375   4.437  16.979 -0.0110  0.3405  0.0991
18353TIP3    H176474   3.373   4.477  17.066 -2.5472 -1.8586  1.1989
18353TIP3    H276475   3.287   4.453  16.944  0.1647 -0.9508 -0.9911
18354TIP3   OH276476   2.406   6.244  14.066  0.0080  0.0192  0.0480
18354TIP3    H176477   2.387   6.219  14.156 -1.0694  0.3736 -0.0650
18354TIP3    H276478   2.496   6.274  14.068 -0.1279  0.3886  1.0927
18355TIP3   OH276479   1.673   4.973  10.873  0.1263 -0.2813 -0.2613
18355TIP3    H176480   1.590   5.015  10.849  0.5690  0.5389 -0.3836
18355TIP3    H276481   1.715   4.954  10.789 -0.0059 -0.8558 -0.2038
18356TIP3   OH276482   1.879   0.861  17.167 -0.4895 -0.2092 -0.1446
18356TIP3    H176483   1.916   0.903  17.089  0.7729 -1.3823 -0.2096
18356TIP3    H276484   1.834   0.783  17.134 -1.9273  0.4893  0.0838
18357TIP3   OH276485   5.864   3.008  11.711 -0.0712  0.0922 -0.5062
18357TIP3    H176486   5.913   3.085  11.681  0.6760 -0.5686 -1.0416
18357TIP3    H276487   5.924   2.935  11.696 -0.8062 -0.6070 -0.1027
18358TIP3   OH276488   4.911   1.253   1.927  0.1284 -0.1297  0.3591
18358TIP3    H176489   4.966   1.177   1.908  1.9750  1.2081  0.0154
18358TIP3    H276490   4.842   1.250   1.862  0.9539 -0.7844 -0.5069
18359TIP3   OH276491   1.492   0.466  15.749  0.5555  0.1484  0.3719
18359TIP3    H176492   1.421   0.461  15.684  0.0986 -0.4944  0.9090
18359TIP3    H276493   1.566   0.500  15.699  0.0462  0.2528 -0.3480
18360TIP3   OH276494   4.961   2.741   3.119  0.3651 -0.4458  0.3119
18360TIP3    H176495   4.881   2.724   3.069 -0.9003  0.7940  1.8064
18360TIP3    H276496   4.930   2.772   3.204  2.4467  0.8908  0.6614
18361TIP3   OH276497   0.586   0.246  14.945 -0.0450  0.6575 -0.1344
18361TIP3    H176498   0.511   0.282  14.896  0.3350 -0.9169 -2.0342
18361TIP3    H276499   0.592   0.299  15.024 -3.1330  0.8747  0.0571
18362TIP3   OH276500   0.928   5.817   5.305 -0.0070 -0.5763 -0.5354
18362TIP3    H176501   0.832   5.822   5.312  0.1035 -0.2651  1.3328
18362TIP3    H276502   0.951   5.888   5.245 -0.8327  0.6627  0.5483
18363TIP3   OH276503   4.331   3.061   6.135 -0.0786 -0.1765 -0.2905
18363TIP3    H176504   4.415   3.090   6.097 -1.3213  0.0450 -3.1582
18363TIP3    H276505   4.267   3.076   6.065 -2.1848 -2.3407  1.0228
18364TIP3   OH276506   4.217   2.217  13.853  0.0085  0.4069 -0.2587
18364TIP3    H176507   4.259   2.184  13.932  0.2070 -0.6652 -0.7897
18364TIP3    H276508   4.265   2.297  13.830 -0.1816  0.8355  0.7967
18365TIP3   OH276509   5.844   0.401   4.960 -0.4128  0.5695 -0.2140
18365TIP3    H176510   5.824   0.478   5.014  2.0257  1.0200  0.1748
18365TIP3    H276511   5.800   0.328   5.005 -3.7140  1.7622 -1.2034
18366TIP3   OH276512   2.565   6.271   6.190 -0.3165 -0.2532  0.0860
18366TIP3    H176513   2.651   6.233   6.210 -0.3876 -0.1367  0.6284
18366TIP3    H276514   2.578   6.365   6.200 -0.7114 -0.2835  1.0047
18367TIP3   OH276515   2.684   5.457   4.547 -0.7283  0.3385 -0.1580
18367TIP3    H176516   2.703   5.388   4.484 -1.0928 -0.4136  0.5386
18367TIP3    H276517   2.698   5.538   4.499  1.3740 -0.1753 -0.5148
18368TIP3   OH276518   5.764   1.483   1.460 -0.4003 -0.1805 -0.2864
18368TIP3    H176519   5.772   1.419   1.531  1.5663  0.4098  0.0684
18368TIP3    H276520   5.760   1.567   1.504 -0.6412  0.1068 -0.8440
18369TIP3   OH276521   3.172   5.896  15.302 -0.6845 -0.0923 -0.2217
18369TIP3    H176522   3.137   5.808  15.318  0.5675 -0.4576  0.6512
18369TIP3    H276523   3.195   5.929  15.388  0.9818  0.1639 -0.7386
18370TIP3   OH276524   6.367   2.016  10.836  0.0497  0.0217 -0.0286
18370TIP3    H176525   6.446   1.970  10.807 -0.6803 -0.7450 -0.8642
18370TIP3    H276526   6.322   1.952  10.892 -1.0679 -0.4010 -1.3514
18371TIP3   OH276527   4.558   6.065  16.955 -0.4601  0.4667  0.4884
18371TIP3    H176528   4.531   6.087  17.044 -2.0821  0.7784 -0.0323
18371TIP3    H276529   4.535   6.143  16.904 -0.3247 -0.0169 -0.3277
18372TIP3   OH276530   6.567   0.919   4.956  0.4728  0.0165 -0.3307
18372TIP3    H176531   6.506   0.927   4.883  0.0899  0.4977  0.0337
18372TIP3    H276532   6.558   0.828   4.985 -0.3967  0.1888 -0.0102
18373TIP3   OH276533   1.568   5.215  13.800  0.1685 -0.1306  0.3310
18373TIP3    H176534   1.475   5.208  13.782 -0.0417 -0.0763  1.3693
18373TIP3    H276535   1.581   5.307  13.824  0.2845 -0.3896  1.2883
18374TIP3   OH276536   6.355   4.628  14.563  0.0564 -0.4987  0.0370
18374TIP3    H176537   6.412   4.705  14.564  0.5180 -0.8347  0.8794
18374TIP3    H276538   6.383   4.578  14.486  1.2577 -0.9052  0.7126
18375TIP3   OH276539   3.992   2.669   6.126  0.3329  0.6120  0.5110
18375TIP3    H176540   4.023   2.632   6.043  0.1158  1.8186 -0.1343
18375TIP3    H276541   3.975   2.593   6.181  2.3969 -0.1782  0.1722
18376TIP3   OH276542   0.666   4.635   6.354 -0.3275 -0.0888 -0.5428
18376TIP3    H176543   0.711   4.705   6.401  0.9375 -0.0353 -1.7899
18376TIP3    H276544   0.621   4.679   6.282 -0.3717 -0.4292 -0.7262
18377TIP3   OH276545   3.821   0.389   6.124 -0.2415  0.2799  0.5040
18377TIP3    H176546   3.822   0.293   6.120 -3.5812  0.1585 -0.0882
18377TIP3    H276547   3.852   0.410   6.212 -0.8785 -1.4534  1.1893
18378TIP3   OH276548   0.334   3.377   4.761 -0.3829 -0.4323  0.3622
18378TIP3    H176549   0.423   3.344   4.777  0.1251  0.9510  0.4653
18378TIP3    H276550   0.290   3.371   4.846  0.1493  0.4364  0.7135
18379TIP3   OH276551   1.229   2.117   4.121 -0.3513 -0.3969 -0.2258
18379TIP3    H176552   1.290   2.127   4.195 -1.7885 -0.9427  1.0834
18379TIP3    H276553   1.143   2.113   4.162 -1.2947  0.4759 -2.0525
18380TIP3   OH276554   2.046   4.931   5.422  0.1354 -0.3724  0.0143
18380TIP3    H176555   2.098   4.944   5.501  0.3856 -0.4840 -0.1306
18380TIP3    H276556   1.955   4.932   5.452  0.2422 -0.8740  0.3636
18381TIP3   OH276557   3.311   2.684  17.253  0.0281  0.8433  0.1224
18381TIP3    H176558   3.324   2.602  17.207 -0.1706  0.8370  0.0744
18381TIP3    H276559   3.376   2.744  17.216  0.2056  0.6942  0.1926
18382TIP3   OH276560   1.513   0.153  15.181  0.3845 -0.2605 -0.4807
18382TIP3    H176561   1.556   0.180  15.262 -0.7408 -0.6063  0.2419
18382TIP3    H276562   1.496   0.235  15.134  2.4850 -0.1399 -1.1667
18383TIP3   OH276563   4.201   0.203   2.983 -0.1960 -0.0882  0.0961
18383TIP3    H176564   4.170   0.160   3.063 -0.8383 -1.1989 -0.7096
18383TIP3    H276565   4.121   0.223   2.934  0.2175 -0.0800 -0.5900
18384TIP3   OH276566   5.392   2.716   4.026 -0.1129  0.6253 -0.3535
18384TIP3    H176567   5.355   2.646   4.080  3.1835 -2.5618 -1.8522
18384TIP3    H276568   5.324   2.734   3.961 -1.5988 -0.0810  0.9421
18385TIP3   OH276569   1.189   4.284  10.207 -0.8434 -0.1137  0.2459
18385TIP3    H176570   1.098   4.287  10.237 -0.6835 -0.4927  0.7820
18385TIP3    H276571   1.202   4.367  10.162 -1.9028 -0.6620 -1.1613
18386TIP3   OH276572   2.820   5.958   1.474 -0.3784  0.0520 -0.0036
18386TIP3    H176573   2.827   6.048   1.441 -1.0253 -0.4155 -1.5236
18386TIP3    H276574   2.753   5.918   1.418  0.1646 -1.4762  0.4070
18387TIP3   OH276575   2.285   4.753  13.881 -0.4774  0.9090 -0.0039
18387TIP3    H176576   2.216   4.688  13.866  0.0069  0.2068  0.7126
18387TIP3    H276577   2.238   4.834  13.898 -1.1950  0.1220  2.0071
18388TIP3   OH276578   1.483   1.029   1.437  0.4781 -0.0199  0.2943
18388TIP3    H176579   1.415   0.965   1.418  0.8527 -0.5812  0.7973
18388TIP3    H276580   1.444   1.113   1.415  0.7433 -0.5491 -2.5564
18389TIP3   OH276581   2.341   5.110  12.287  0.1417  0.0379 -0.6867
18389TIP3    H176582   2.386   5.026  12.284  1.2571  0.5402  0.9612
18389TIP3    H276583   2.366   5.153  12.205 -0.3480 -1.1543 -1.4904
18390TIP3   OH276584   1.021   3.736  15.384  0.8308  0.1850 -0.6588
18390TIP3    H176585   1.027   3.829  15.362  0.4303 -0.1400 -2.2503
18390TIP3    H276586   1.106   3.700  15.360  1.0141  0.1355  0.0336
18391TIP3   OH276587   5.821   0.128   0.224  0.8722 -0.8085 -0.1244
18391TIP3    H176588   5.844   0.122   0.316 -0.2285  0.2593  0.2522
18391TIP3    H276589   5.808   0.222   0.209  0.6204 -1.0104 -1.2512
18392TIP3   OH276590   6.049   4.111   3.794  0.1151 -0.4256  0.1467
18392TIP3    H176591   6.114   4.156   3.848  1.2340 -0.1622 -1.3678
18392TIP3    H276592   6.099   4.045   3.746 -1.3572 -2.7587  1.6573
18393TIP3   OH276593   5.480   6.297   1.000 -0.1055 -0.0031  0.5663
18393TIP3    H176594   5.529   6.379   1.003 -2.4725  1.4970  0.8343
18393TIP3    H276595   5.479   6.267   1.091  1.9854 -1.2133  0.2765
18394TIP3   OH276596   0.874   2.916  14.625 -0.4884 -0.5384  0.1906
18394TIP3    H176597   0.803   2.899  14.687 -1.1912  2.5533  0.3686
18394TIP3    H276598   0.854   2.860  14.550 -1.9948 -1.1699  1.0215
18395TIP3   OH276599   5.499   6.075  12.375 -0.0014 -0.6585  0.0809
18395TIP3    H176600   5.529   6.143  12.435  0.1710  0.5601 -1.3361
18395TIP3    H276601   5.518   5.993  12.421  1.2171  0.1866  1.1757
18396TIP3   OH276602   2.422   4.031  11.775  0.2545 -0.2174  0.1767
18396TIP3    H176603   2.510   4.009  11.805  0.2355  1.2687  1.4939
18396TIP3    H276604   2.434   4.064  11.686  0.6794 -2.2507 -0.5585
18397TIP3   OH276605   2.512   2.600   4.798 -0.2733 -0.2480  0.3802
18397TIP3    H176606   2.451   2.526   4.795 -0.3674 -0.1532 -0.9132
18397TIP3    H276607   2.457   2.677   4.789 -0.0727 -0.0935  0.4677
18398TIP3   OH276608   1.003   1.874  12.396  0.6458 -0.4997  0.1025
18398TIP3    H176609   0.947   1.867  12.320  0.5751 -1.8182  0.2563
18398TIP3    H276610   0.961   1.820  12.463 -1.6828  3.8512  2.6439
18399TIP3   OH276611   0.243   6.279   4.270  0.0120 -0.2589  0.1306
18399TIP3    H176612   0.151   6.280   4.298 -1.1759 -0.6755 -3.3039
18399TIP3    H276613   0.248   6.206   4.208  2.7530 -0.3384  0.3411
18400TIP3   OH276614   0.799   0.579  14.685 -0.3550  0.0785  0.1895
18400TIP3    H176615   0.713   0.570  14.643 -0.7300  0.2457  0.9082
18400TIP3    H276616   0.851   0.631  14.623 -1.2282  1.2268  0.4004
18401TIP3   OH276617   0.911   3.139   2.142  0.0548  0.3782 -0.5751
18401TIP3    H176618   0.926   3.233   2.137 -0.4081  0.3910 -2.4085
18401TIP3    H276619   0.881   3.124   2.232  1.4477  1.7457  0.1662
18402TIP3   OH276620   6.016   0.321   4.751 -0.2202  0.3802  0.8230
18402TIP3    H176621   5.987   0.230   4.752 -0.8944  0.5762 -0.1541
18402TIP3    H276622   5.966   0.363   4.820 -1.9480  0.6020 -0.5115
18403TIP3   OH276623   4.020   5.404  13.910  0.5252  0.5629  0.2956
18403TIP3    H176624   4.040   5.410  14.004  1.1045 -0.9767  0.2862
18403TIP3    H276625   4.072   5.330  13.879  0.1335  0.8912 -1.1978
18404TIP3   OH276626   0.879   6.007   3.557  0.5868  0.3643 -0.0218
18404TIP3    H176627   0.927   5.934   3.595 -0.1426 -0.2996 -0.3367
18404TIP3    H276628   0.862   5.980   3.467 -1.2136  0.1164  0.3500
18405TIP3   OH276629   3.009   2.761  12.762 -0.1777 -0.0294  0.8366
18405TIP3    H176630   3.002   2.773  12.667 -2.1889  1.1003  1.0576
18405TIP3    H276631   3.028   2.848  12.796  3.1591 -0.8279  1.3843
18406TIP3   OH276632   1.972   6.293   4.446  0.4683 -0.1066 -0.0435
18406TIP3    H176633   1.882   6.262   4.434  0.6302 -0.3604 -0.6716
18406TIP3    H276634   2.011   6.229   4.506  0.5034 -0.5537 -0.5326
18407TIP3   OH276635   6.028   6.286  12.845 -0.1456  0.0416  0.2453
18407TIP3    H176636   5.990   6.285  12.757 -0.0176 -0.6752  0.1955
18407TIP3    H276637   6.041   6.379  12.864 -0.4462  0.2168 -0.3747
18408TIP3   OH276638   2.076   1.597  13.802  0.0144 -0.5477 -0.2321
18408TIP3    H176639   2.122   1.678  13.824 -1.6732  0.4897 -0.4197
18408TIP3    H276640   2.058   1.556  13.887  1.0531 -0.8782 -0.1456
18409TIP3   OH276641   3.552   2.822  17.137 -0.6713 -0.5593  0.5740
18409TIP3    H176642   3.597   2.819  17.221  1.3185 -2.2263 -0.4700
18409TIP3    H276643   3.622   2.823  17.072 -2.1517 -1.0529 -1.1155
18410TIP3   OH276644   5.074   1.276  13.702 -0.0520  0.3544 -0.0759
18410TIP3    H176645   5.039   1.309  13.785  0.2783  1.7083 -0.4449
18410TIP3    H276646   5.167   1.299  13.705 -0.0150  0.3150 -0.7698
18411TIP3   OH276647   4.498   1.632  14.030  0.4014  0.6631  0.0094
18411TIP3    H176648   4.421   1.669  14.072 -0.8164 -1.2788 -0.3816
18411TIP3    H276649   4.569   1.646  14.094 -0.0429  3.1058  0.0676
18412TIP3   OH276650   0.921   6.173   2.665 -0.3068  0.1463 -0.1309
18412TIP3    H176651   1.002   6.198   2.710 -0.6853  0.3271  0.4540
18412TIP3    H276652   0.853   6.228   2.705 -0.3906  1.5214 -2.0438
18413TIP3   OH276653   0.938   6.276   4.664  0.6926  0.4578  0.1111
18413TIP3    H176654   0.869   6.302   4.725  0.3743  1.8052 -0.7837
18413TIP3    H276655   0.917   6.320   4.582  0.3342 -2.3685 -1.4694
18414TIP3   OH276656   2.853   1.183   0.460 -0.3424 -0.3876  0.0908
18414TIP3    H176657   2.896   1.098   0.469 -0.0466 -0.1540  1.1342
18414TIP3    H276658   2.824   1.204   0.549 -4.0802 -1.2497 -0.7617
18415TIP3   OH276659   2.994   3.103   3.411 -0.4788 -0.3818  0.0676
18415TIP3    H176660   3.064   3.041   3.429 -0.2334  0.3103  1.7601
18415TIP3    H276661   2.925   3.079   3.473 -1.5599 -0.7320 -1.2218
18416TIP3   OH276662   1.088   2.250   2.938 -0.1308  0.2272  0.2446
18416TIP3    H176663   1.175   2.213   2.945 -0.6346 -0.6235  2.9401
18416TIP3    H276664   1.041   2.190   2.880  0.6897 -0.0024 -0.1996
18417TIP3   OH276665   1.588   5.742  15.871  0.1954 -0.3129  0.0874
18417TIP3    H176666   1.681   5.722  15.862  0.5551  1.8107 -1.4741
18417TIP3    H276667   1.551   5.663  15.911  2.1611 -2.3242 -1.8075
18418TIP3   OH276668   3.000   1.613   1.525  0.7680  0.2965  0.5251
18418TIP3    H176669   3.081   1.638   1.480  0.8036 -1.0151 -0.1984
18418TIP3    H276670   2.941   1.585   1.455  0.3184 -0.4348  1.1772
18419TIP3   OH276671   3.051   0.917  13.718 -0.1628 -0.4084 -0.6695
18419TIP3    H176672   3.143   0.936  13.701  0.7011 -2.9930  0.5808
18419TIP3    H276673   3.016   0.999  13.753  1.2420  1.0561 -2.4643
18420TIP3   OH276674   2.287   4.442   0.050 -0.6348  0.6084  0.7791
18420TIP3    H176675   2.198   4.409   0.035 -0.4009 -0.0881  0.8897
18420TIP3    H276676   2.344   4.377   0.008 -0.2514  2.5254 -1.9088
18421TIP3   OH276677   0.717   1.620  15.907 -0.1718 -0.3287  0.8238
18421TIP3    H176678   0.708   1.528  15.932  0.4064 -0.1451  1.7524
18421TIP3    H276679   0.787   1.653  15.962  0.6557  0.3045 -0.5654
18422TIP3   OH276680   2.874   3.030  16.838 -0.2091 -0.3795  0.5660
18422TIP3    H176681   2.968   3.036  16.823 -0.4184  1.8578 -0.4226
18422TIP3    H276682   2.848   3.120  16.862 -2.1601 -0.8051  0.2447
18423TIP3   OH276683   0.754   6.559  15.683 -0.1737  0.2632  0.8380
18423TIP3    H176684   0.767   6.595  15.595  2.7370 -1.2030  0.5694
18423TIP3    H276685   0.675   6.506  15.675  0.5358 -0.6073 -1.1944
18424TIP3   OH276686   6.577   2.382  16.009  0.4109  0.3605  0.6470
18424TIP3    H176687   6.492   2.420  16.031  0.0283 -1.1072  1.8226
18424TIP3    H276688   6.603   2.428  15.929 -1.1767  1.3034  0.6265
18425TIP3   OH276689   3.422   4.437   3.991  0.2294  0.0308 -0.2242
18425TIP3    H176690   3.473   4.396   4.061  0.9868 -0.5077 -1.0826
18425TIP3    H276691   3.487   4.471   3.930 -0.4129  1.1912 -0.2988
18426TIP3   OH276692   6.273   2.751   6.585 -0.0176  0.0402  0.0453
18426TIP3    H176693   6.186   2.711   6.587  0.1348 -0.3067 -0.2353
18426TIP3    H276694   6.330   2.685   6.545  0.3864  0.2484  0.2648
18427TIP3   OH276695   5.908   1.368  15.280 -0.3157  0.0424 -0.1753
18427TIP3    H176696   5.982   1.381  15.340 -0.7931 -1.6088  0.8372
18427TIP3    H276697   5.937   1.407  15.198  0.0622  3.1753  1.2807
18428TIP3   OH276698   6.291   0.197  13.591  0.2109  0.1115  0.4388
18428TIP3    H176699   6.310   0.204  13.684 -1.9078  0.6310  0.8794
18428TIP3    H276700   6.235   0.119  13.583  0.4091  0.0407 -0.4100
18429TIP3   OH276701   4.178   0.563  12.500  0.2731 -0.1979  0.0795
18429TIP3    H176702   4.085   0.542  12.514  0.0760  0.0512 -0.7925
18429TIP3    H276703   4.215   0.567  12.588 -0.8641  1.1158  0.5401
18430TIP3   OH276704   0.173   1.129   1.981  0.1723  0.2208  0.0684
18430TIP3    H176705   0.184   1.079   1.900  0.5173  0.2765  0.0829
18430TIP3    H276706   0.181   1.064   2.051  1.0447  0.3593  0.1053
18431TIP3   OH276707   2.019   4.225  10.470  0.2483 -0.0147 -0.0165
18431TIP3    H176708   2.058   4.262  10.391 -0.1607 -0.8347 -0.6131
18431TIP3    H276709   2.093   4.208  10.528  0.7177 -0.7923 -0.8124
18432TIP3   OH276710   2.727   3.406  13.898  0.1940 -0.8316 -0.4164
18432TIP3    H176711   2.767   3.351  13.966  1.3363 -1.3314 -1.4491
18432TIP3    H276712   2.635   3.410  13.922  0.6948 -0.2596  1.6550
18433TIP3   OH276713   4.824   1.338  15.384 -0.0523  0.1285 -0.1618
18433TIP3    H176714   4.808   1.433  15.380  1.8124  0.4450 -1.2582
18433TIP3    H276715   4.885   1.321  15.313  2.4092 -1.2914  2.1111
18434TIP3   OH276716   6.196   5.540   2.069 -0.3620 -0.5306  0.1583
18434TIP3    H176717   6.192   5.608   2.001 -0.2383 -1.7170 -1.0908
18434TIP3    H276718   6.263   5.571   2.130  1.1509 -0.4293 -1.4554
18435TIP3   OH276719   4.949   5.964  14.244  0.2580  0.0154  0.2407
18435TIP3    H176720   4.983   5.953  14.155 -0.4581 -4.3423  0.2846
18435TIP3    H276721   5.026   5.982  14.298  1.1528 -0.4150 -0.8680
18436TIP3   OH276722   3.236   5.179  14.623  0.3592 -0.0512  0.0524
18436TIP3    H176723   3.225   5.238  14.548 -0.4182 -1.4414 -0.9664
18436TIP3    H276724   3.153   5.131  14.628  0.9771 -1.0692  0.8337
18437TIP3   OH276725   5.660   0.892   5.307  0.2087 -0.0769  0.0493
18437TIP3    H176726   5.717   0.902   5.383  2.1429 -1.6298 -1.1135
18437TIP3    H276727   5.603   0.819   5.329  0.6816 -0.4462  0.0474
18438TIP3   OH276728   1.438   3.424   5.628  0.4882  0.3270 -0.1264
18438TIP3    H176729   1.354   3.451   5.589 -0.4792 -1.9071  0.2853
18438TIP3    H276730   1.478   3.368   5.562 -0.7718 -2.7999  1.5684
18439TIP3   OH276731   3.475   6.745   3.319  0.0423 -0.1255 -0.3045
18439TIP3    H176732   3.460   6.838   3.305  1.1401  0.3865  1.5892
18439TIP3    H276733   3.388   6.706   3.321 -0.4177  0.8137 -1.2505
18440TIP3   OH276734   0.953   0.741  14.878  0.1239 -0.5869  0.4886
18440TIP3    H176735   1.046   0.751  14.857  0.3709 -1.0869  1.2691
18440TIP3    H276736   0.923   0.672  14.819 -0.2081  0.7637 -0.9898
18441TIP3   OH276737   4.044   2.743   2.863 -0.0499 -0.7606 -0.1983
18441TIP3    H176738   4.012   2.831   2.885 -0.5508 -0.2431 -2.6480
18441TIP3    H276739   4.138   2.755   2.849  0.5137 -1.3432  2.5617
18442TIP3   OH276740   5.114   5.086  14.994 -0.0587  0.3470  0.0371
18442TIP3    H176741   5.141   5.178  15.000  0.5445  0.2026 -0.3451
18442TIP3    H276742   5.171   5.041  15.057 -1.3516  0.4279  1.3142
18443TIP3   OH276743   3.672   6.463  12.216  0.5202 -0.5300 -0.5770
18443TIP3    H176744   3.661   6.513  12.135  2.1900 -0.9951 -1.1284
18443TIP3    H276745   3.602   6.397  12.213  0.6143 -0.5974 -1.6913
18444TIP3   OH276746   0.349   0.539  11.425 -0.3173  0.2968  0.3515
18444TIP3    H176747   0.312   0.625  11.443  0.8257  0.7107  0.7922
18444TIP3    H276748   0.273   0.480  11.428 -1.0849  1.2415  0.2413
18445TIP3   OH276749   4.283   0.917  15.402  0.3857  0.7574 -0.3348
18445TIP3    H176750   4.342   0.845  15.380 -0.2667 -0.0507  0.5181
18445TIP3    H276751   4.279   0.917  15.497 -1.7684  0.1409 -0.3796
18446TIP3   OH276752   2.329   0.117  11.309  0.9668 -0.1425  0.0652
18446TIP3    H176753   2.238   0.116  11.339  0.1485  0.6415 -2.2431
18446TIP3    H276754   2.357   0.025  11.316 -0.3124 -0.5616 -0.0981
18447TIP3   OH276755   3.468   6.133  15.021  0.1939 -0.0633 -0.0004
18447TIP3    H176756   3.538   6.199  15.010  1.3842 -0.8744  2.0578
18447TIP3    H276757   3.487   6.067  14.955  0.4116  0.5065 -0.5206
18448TIP3   OH276758   2.523   4.724  15.644 -0.5813  0.1689 -0.8179
18448TIP3    H176759   2.484   4.793  15.590 -1.2435  0.4408 -0.0132
18448TIP3    H276760   2.491   4.643  15.606 -1.1313  0.3601 -0.7695
18449TIP3   OH276761   5.103   6.708  12.486  0.1117  0.6110  0.0143
18449TIP3    H176762   5.178   6.694  12.427  0.3584  0.8889  0.2573
18449TIP3    H276763   5.042   6.760  12.435 -0.9032 -1.4165 -0.9783
18450TIP3   OH276764   1.020   3.245  16.550  0.2017  0.4253 -0.1341
18450TIP3    H176765   1.083   3.269  16.618 -0.2764  0.1057  0.4386
18450TIP3    H276766   0.936   3.276  16.585 -0.1013 -0.0758 -0.4167
18451TIP3   OH276767   1.045   4.588   0.672 -0.1241  0.7291 -0.0380
18451TIP3    H176768   1.056   4.615   0.764 -0.8511  1.9682 -0.2965
18451TIP3    H276769   1.105   4.645   0.624  0.8718 -0.4757 -0.2821
18452TIP3   OH276770   4.304   3.666   4.361  1.3509  0.3720  0.3356
18452TIP3    H176771   4.311   3.762   4.360  2.2218  0.3852  2.2597
18452TIP3    H276772   4.243   3.648   4.433  1.6781 -0.5200  0.3994
18453TIP3   OH276773   3.658   5.793   2.077  0.3584  0.2231  0.4214
18453TIP3    H176774   3.654   5.745   2.159 -0.2391  1.6353  1.2517
18453TIP3    H276775   3.577   5.770   2.031 -0.1518  0.7882  1.0256
18454TIP3   OH276776   1.734   1.267  12.960 -0.1435 -0.2283  0.1203
18454TIP3    H176777   1.825   1.239  12.970 -0.0754 -1.3898 -2.7699
18454TIP3    H276778   1.741   1.356  12.924 -0.1544 -0.2428  0.0824
18455TIP3   OH276779   0.885   1.297  12.362 -0.0763  0.2275 -0.1809
18455TIP3    H176780   0.973   1.318  12.331  0.3151  0.5309  1.0877
18455TIP3    H276781   0.899   1.242  12.439 -0.9973  0.4716  0.1778
18456TIP3   OH276782   0.724   3.535   4.792 -0.6521 -0.0482  0.5402
18456TIP3    H176783   0.724   3.451   4.746 -0.6513  0.7378 -0.9738
18456TIP3    H276784   0.648   3.582   4.758  0.8672  1.6323 -0.8035
18457TIP3   OH276785   0.255   4.956   4.578 -0.0461  0.1412  0.0882
18457TIP3    H176786   0.265   5.040   4.624  1.3238 -0.0370  0.1507
18457TIP3    H276787   0.191   4.908   4.630 -0.0254  0.7256  0.6702
18458TIP3   OH276788   5.631   3.473   0.363  0.0586  0.0020  0.3021
18458TIP3    H176789   5.684   3.418   0.305  0.8999 -0.0268  1.0709
18458TIP3    H276790   5.580   3.410   0.415  0.9972 -0.0773  1.1592
18459TIP3   OH276791   1.294   2.682   4.641 -0.0960 -0.1842  0.6076
18459TIP3    H176792   1.298   2.665   4.547 -2.6957  0.4718  0.3009
18459TIP3    H276793   1.301   2.595   4.681  0.5199 -0.5254 -0.2113
18460TIP3   OH276794   2.662   1.805  16.762  0.1366  1.4007  0.1047
18460TIP3    H176795   2.642   1.804  16.668  0.1892 -1.3037  0.0337
18460TIP3    H276796   2.585   1.765  16.803  0.6308  1.4261  1.0822
18461TIP3   OH276797   2.827   3.271   1.433  0.5836  0.1617  0.0447
18461TIP3    H176798   2.794   3.214   1.364 -0.3069 -0.9395  1.3466
18461TIP3    H276799   2.908   3.229   1.462  0.4429  0.1014  0.3464
18462TIP3   OH276800   5.155   4.714  16.648 -0.4516  0.3820  0.1598
18462TIP3    H176801   5.116   4.749  16.728 -1.4293  1.4506 -0.7415
18462TIP3    H276802   5.218   4.781  16.621  0.4611 -0.3441  0.4522
18463TIP3   OH276803   1.324   6.573  16.809 -0.5487 -0.5293 -0.1885
18463TIP3    H176804   1.272   6.492  16.814 -0.5256 -0.4859  2.2183
18463TIP3    H276805   1.403   6.547  16.762  0.5159 -2.6267  2.4652
18464TIP3   OH276806   1.334   3.748   5.088 -0.2875  0.5588 -0.4108
18464TIP3    H176807   1.241   3.753   5.108 -0.7684  0.4244 -2.3787
18464TIP3    H276808   1.337   3.719   4.997  1.6658  1.7239 -0.7718
18465TIP3   OH276809   2.404   1.257   0.993  0.5986  0.4646  0.2663
18465TIP3    H176810   2.370   1.264   1.082  1.1971  0.2055  0.5214
18465TIP3    H276811   2.484   1.205   1.002  1.3207  1.4509 -0.2408
18466TIP3   OH276812   2.864   6.503   0.634  0.4326  0.4174  0.4548
18466TIP3    H176813   2.848   6.532   0.724  0.4801 -2.4138  1.4664
18466TIP3    H276814   2.909   6.419   0.643  1.6140  0.6568 -2.2539
18467TIP3   OH276815   5.776   3.203   5.005 -0.2717  0.8118  0.6998
18467TIP3    H176816   5.844   3.268   4.991  0.8820 -0.8532 -2.3204
18467TIP3    H276817   5.821   3.119   5.001 -2.4740 -0.3894 -1.8878
18468TIP3   OH276818   2.285   4.856  14.627  0.3048 -0.3455 -0.3765
18468TIP3    H176819   2.353   4.792  14.604 -0.0901 -0.4719 -1.2574
18468TIP3    H276820   2.256   4.830  14.714  1.0994 -0.5352 -0.1615
18469TIP3   OH276821   2.025   2.308  15.924 -0.3931  0.0792 -0.4130
18469TIP3    H176822   2.039   2.332  15.832  0.8719  1.4192  0.0770
18469TIP3    H276823   2.097   2.249  15.945 -1.2641 -1.0702 -0.5231
18470TIP3   OH276824   4.812   3.927  13.254  0.4780 -0.2060  0.0459
18470TIP3    H176825   4.804   3.841  13.214  2.8521 -1.1653  1.4616
18470TIP3    H276826   4.799   3.912  13.348  1.8303  0.7807  0.4298
18471TIP3   OH276827   6.102   1.199  14.115  0.1248 -0.0799  0.4298
18471TIP3    H176828   6.042   1.273  14.109 -1.7790 -1.4970  0.8501
18471TIP3    H276829   6.120   1.190  14.209 -1.0961 -1.1882  0.5846
18472TIP3   OH276830   1.592   3.107   3.544  0.4078  0.3034  0.0355
18472TIP3    H176831   1.568   3.178   3.604 -0.1492  0.8758 -0.8365
18472TIP3    H276832   1.687   3.115   3.536  0.9915 -1.7355  3.2056
18473TIP3   OH276833   4.501   3.314  16.066  0.0564 -0.2833 -0.2799
18473TIP3    H176834   4.544   3.308  15.981  1.2730  0.6397  0.2303
18473TIP3    H276835   4.559   3.265  16.125  0.2501  0.6752  0.3547
18474TIP3   OH276836   2.102   1.939   3.429 -0.0022 -0.0246 -0.3228
18474TIP3    H176837   2.170   1.974   3.372 -0.7869 -0.6977 -1.6971
18474TIP3    H276838   2.096   1.846   3.407  0.8082 -0.7063  2.0226
18475TIP3   OH276839   1.308   4.141  16.794 -0.4665 -0.1565  0.0541
18475TIP3    H176840   1.345   4.075  16.854 -1.7764 -1.9203 -0.9815
18475TIP3    H276841   1.220   4.109  16.776 -0.7599  1.3495 -1.3398
18476TIP3   OH276842   0.566   1.014   5.957 -0.5395  0.2984 -0.5333
18476TIP3    H176843   0.622   1.048   5.888  0.0312 -2.0518 -1.3257
18476TIP3    H276844   0.627   0.990   6.028 -0.7451 -0.3460 -0.5662
18477TIP3   OH276845   2.085   5.620   0.259  0.0317 -0.0575  0.4225
18477TIP3    H176846   2.052   5.554   0.321  2.5155 -1.4831  0.3661
18477TIP3    H276847   2.121   5.569   0.187 -0.8154  1.5203 -1.1857
18478TIP3   OH276848   4.086   2.331   4.411 -0.4116 -0.5782 -0.1052
18478TIP3    H176849   4.111   2.365   4.325 -1.9776 -2.6929 -1.5039
18478TIP3    H276850   4.001   2.373   4.430  0.1382  0.2269  0.6680
18479TIP3   OH276851   1.442   4.246   2.153  0.8315 -0.5556  0.3194
18479TIP3    H176852   1.472   4.324   2.201  1.9619 -1.1705  0.6585
18479TIP3    H276853   1.496   4.246   2.073  0.1857 -0.4981 -0.1263
18480TIP3   OH276854   5.642   4.258  11.208 -0.0763 -0.2852  0.2387
18480TIP3    H176855   5.689   4.223  11.133 -1.4610 -1.3706 -0.1677
18480TIP3    H276856   5.555   4.218  11.203 -1.0960  1.7168  0.9010
18481TIP3   OH276857   5.274   0.902   1.928  0.0487  0.3623  0.4658
18481TIP3    H176858   5.264   0.810   1.955 -2.0428  0.1724 -0.7404
18481TIP3    H276859   5.362   0.926   1.958  0.7081 -2.0617  0.7147
18482TIP3   OH276860   0.778   3.541   5.216  0.3282  0.1073 -0.4074
18482TIP3    H176861   0.709   3.475   5.206  0.2926  0.4130 -2.8907
18482TIP3    H276862   0.732   3.619   5.247 -0.2407 -0.0589 -0.8101
18483TIP3   OH276863   5.152   4.660  14.087 -0.7448  0.6442  0.3301
18483TIP3    H176864   5.219   4.711  14.132  0.9554 -0.4933 -0.8211
18483TIP3    H276865   5.074   4.715  14.091  0.4172  2.3239  1.1009
18484TIP3   OH276866   4.008   2.256   5.089  0.5396  0.3704 -0.7772
18484TIP3    H176867   3.978   2.174   5.050  0.7854 -0.5552  0.8690
18484TIP3    H276868   4.096   2.236   5.121  0.4719  1.1770 -0.0573
18485TIP3   OH276869   0.139   4.004   4.351 -0.1621  0.5633 -0.2268
18485TIP3    H176870   0.108   3.915   4.334 -0.7099  0.5927  0.5683
18485TIP3    H276871   0.189   4.028   4.273 -0.5965 -0.1830 -0.7388
18486TIP3   OH276872   6.712   6.393   1.359  0.3074  0.8923 -1.1075
18486TIP3    H176873   6.737   6.308   1.323 -0.2312  0.1102  0.2915
18486TIP3    H276874   6.785   6.418   1.416 -0.1031  0.7580 -0.5219
18487TIP3   OH276875   1.530   1.632  13.768 -0.0345 -0.1487 -0.4098
18487TIP3    H176876   1.516   1.727  13.769 -1.2560 -0.3236  0.7034
18487TIP3    H276877   1.613   1.620  13.814 -0.7751  0.2682  1.0763
18488TIP3   OH276878   0.995   3.730  12.330 -0.0749  0.1850 -0.3740
18488TIP3    H176879   1.090   3.740  12.338  0.2072 -0.9038 -1.8503
18488TIP3    H276880   0.979   3.638  12.354 -0.6222  0.0870 -1.0980
18489TIP3   OH276881   1.644   0.778   3.801  0.3300 -0.2582  0.3674
18489TIP3    H176882   1.608   0.839   3.865 -0.5714 -1.8401  1.4088
18489TIP3    H276883   1.575   0.715   3.785  1.2348 -1.0298 -0.7017
18490TIP3   OH276884   1.189   6.132  12.672 -0.3176 -0.1527 -0.4025
18490TIP3    H176885   1.262   6.192  12.686  0.1028 -0.4981 -1.0691
18490TIP3    H276886   1.227   6.059  12.622 -1.0889 -0.3907 -0.6522
18491TIP3   OH276887   4.129   1.921  15.583  0.7671  0.0890  0.4286
18491TIP3    H176888   4.111   1.993  15.522  2.3246 -0.9504 -1.3576
18491TIP3    H276889   4.215   1.940  15.619  1.9205 -1.5996 -1.2693
18492TIP3   OH276890   3.435   6.191   1.183 -1.0995  0.8177  0.2071
18492TIP3    H176891   3.395   6.105   1.174 -1.1543  0.9571 -1.1140
18492TIP3    H276892   3.509   6.190   1.122  0.8316  0.6515  2.4378
18493TIP3   OH276893   0.710   2.143  14.798  0.0112  0.2017  0.3748
18493TIP3    H176894   0.796   2.101  14.800  0.3379  0.7460 -0.8775
18493TIP3    H276895   0.678   2.136  14.888  1.4653  0.1932  0.9342
18494TIP3   OH276896   0.738   3.965  11.216  0.7144  0.3501  0.8920
18494TIP3    H176897   0.760   4.022  11.143 -1.8995 -0.3163 -0.5367
18494TIP3    H276898   0.769   3.878  11.188 -1.0746 -0.0776  0.0737
18495TIP3   OH276899   2.527   3.692  15.626  0.3092 -0.0866  0.1815
18495TIP3    H176900   2.571   3.744  15.693  0.6144  0.6260 -0.5428
18495TIP3    H276901   2.589   3.689  15.554 -0.5415  0.3517 -0.6005
18496TIP3   OH276902   5.537   4.355   4.956 -0.2673  0.0298 -0.0574
18496TIP3    H176903   5.629   4.378   4.960 -0.1417 -0.5717  1.1422
18496TIP3    H276904   5.531   4.290   4.886  0.7073 -1.8491  1.5086
18497TIP3   OH276905   6.192   5.851   5.319  0.8021 -0.0521 -0.2716
18497TIP3    H176906   6.152   5.892   5.395 -0.8421 -0.4875 -0.8698
18497TIP3    H276907   6.233   5.923   5.271 -0.1868  0.5768 -0.1851
18498TIP3   OH276908   3.342   3.926   3.481 -0.4270  0.2034 -0.5879
18498TIP3    H176909   3.254   3.954   3.456 -0.4295 -0.1885 -1.0377
18498TIP3    H276910   3.375   3.995   3.538  0.3252  2.1052 -3.1587
18499TIP3   OH276911   5.142   2.480  11.629  0.8572 -0.0368 -0.2477
18499TIP3    H176912   5.060   2.511  11.589  0.5869 -1.2878 -0.7170
18499TIP3    H276913   5.131   2.385  11.634  1.1437 -0.0089  2.2586
18500TIP3   OH276914   5.809   4.524  14.203 -0.0419 -0.1136  0.3325
18500TIP3    H176915   5.866   4.567  14.139  0.5905 -0.5516  0.5855
18500TIP3    H276916   5.742   4.481  14.150  0.8121 -0.9619 -0.0848
18501TIP3   OH276917   4.896   3.470  17.247  0.1912 -0.7372 -0.1194
18501TIP3    H176918   4.971   3.414  17.226 -1.3234 -2.8349 -0.2527
18501TIP3    H276919   4.844   3.471  17.167  1.0836  2.5867 -0.8149
18502TIP3   OH276920   1.056   0.086  13.447 -0.3997  0.1437 -0.4098
18502TIP3    H176921   1.045   0.102  13.353 -1.7386 -0.9300 -0.4705
18502TIP3    H276922   1.150   0.099  13.463 -0.4619  2.3885 -1.4618
18503TIP3   OH276923   1.377   0.886   5.412  0.1873  0.4921  0.1337
18503TIP3    H176924   1.426   0.967   5.429  1.5826 -0.6073  1.7042
18503TIP3    H276925   1.428   0.841   5.344  0.9807 -0.2888  1.2097
18504TIP3   OH276926   4.024   1.767   5.768  0.2407 -0.0951 -0.1738
18504TIP3    H176927   3.981   1.698   5.818 -2.4649  1.2947 -0.3772
18504TIP3    H276928   4.040   1.729   5.682 -1.7225 -0.3465 -0.4560
18505TIP3   OH276929   5.191   6.397   5.209  0.2335  0.3138 -0.3409
18505TIP3    H176930   5.262   6.382   5.271  0.3867  0.3249 -0.5130
18505TIP3    H276931   5.233   6.394   5.123 -0.3202 -2.0450 -0.6083
18506TIP3   OH276932   6.427   3.724  16.709  0.2899  0.0699  0.1216
18506TIP3    H176933   6.335   3.748  16.709  0.1490 -0.3297 -1.4991
18506TIP3    H276934   6.432   3.646  16.654  1.1862 -1.7785  2.6136
18507TIP3   OH276935   6.314   0.697   0.698  0.3321 -0.5204  0.0027
18507TIP3    H176936   6.346   0.786   0.717  0.6343 -0.5946 -0.1471
18507TIP3    H276937   6.322   0.689   0.603 -1.5970  0.0164 -0.2521
18508TIP3   OH276938   3.936   3.440  15.803 -0.3083  0.1001  0.5312
18508TIP3    H176939   3.932   3.534  15.782 -0.1495 -0.1355 -0.6322
18508TIP3    H276940   3.993   3.435  15.879  0.2652  0.8844  0.1689
18509TIP3   OH276941   4.293   0.696   4.898  0.7636 -0.5921 -0.1466
18509TIP3    H176942   4.354   0.661   4.833  1.3105 -0.5266  0.3263
18509TIP3    H276943   4.213   0.645   4.886  1.2851 -1.4607 -0.0089
18510TIP3   OH276944   3.204   3.762   3.034 -0.2127  0.7743 -0.8923
18510TIP3    H176945   3.230   3.694   2.970 -1.5885 -0.5151 -0.1274
18510TIP3    H276946   3.265   3.750   3.107 -1.3471 -0.6470 -0.1361
18511TIP3   OH276947   0.157   3.259  13.712  0.5579 -0.4491  0.3714
18511TIP3    H176948   0.145   3.238  13.620 -1.8849  0.2609  0.4746
18511TIP3    H276949   0.153   3.355  13.716 -2.5907 -0.5315  1.5164
18512TIP3   OH276950   0.039   6.389  12.347 -0.1297 -0.1642 -0.7718
18512TIP3    H176951   0.131   6.409  12.334 -0.1793  1.5348  1.0384
18512TIP3    H276952   0.023   6.406  12.440 -2.2982 -0.2734 -1.0644
18513TIP3   OH276953   0.927   5.844  11.126 -0.1792  0.3560 -0.3650
18513TIP3    H176954   0.914   5.869  11.035 -2.0865  2.1046  0.3168
18513TIP3    H276955   0.843   5.862  11.168  0.5061 -0.8696  1.6561
18514TIP3   OH276956   6.267   0.662   0.422  0.4911  0.3627  0.0307
18514TIP3    H176957   6.275   0.705   0.337  0.3225  0.1577 -0.0889
18514TIP3    H276958   6.190   0.702   0.462 -0.6462 -0.9815 -0.7606
18515TIP3   OH276959   5.882   0.668   5.754 -0.1863  0.6362  0.7792
18515TIP3    H176960   5.960   0.639   5.803 -0.5570  0.1639  1.0982
18515TIP3    H276961   5.811   0.662   5.818 -0.6197  0.3388  0.2728
18516TIP3   OH276962   1.813   2.940   0.226  0.2524  0.1103  0.1407
18516TIP3    H176963   1.815   3.029   0.191  0.0789  0.5601  1.2423
18516TIP3    H276964   1.805   2.952   0.320  1.1201 -1.0719  0.3763
18517TIP3   OH276965   6.771   2.198  11.152 -0.6604 -0.1074  0.4413
18517TIP3    H176966   6.781   2.108  11.121 -1.8640 -0.6482  1.4989
18517TIP3    H276967   6.812   2.198  11.239  1.8985  1.1506 -0.6929
18518TIP3   OH276968   0.614   6.059  14.936  0.1501  0.0483 -0.3716
18518TIP3    H176969   0.611   6.066  14.840 -1.2302  0.9137 -0.2976
18518TIP3    H276970   0.594   6.147  14.967  0.6328 -0.2099  0.7323
18519TIP3   OH276971   4.282   4.790  13.979  0.7253 -0.3832 -0.3640
18519TIP3    H176972   4.276   4.852  14.052  0.2834 -1.3906  0.4790
18519TIP3    H276973   4.271   4.844  13.901  1.0233  0.6948  0.3179
18520TIP3   OH276974   0.107   3.072   5.171  0.2270  0.4997 -0.7346
18520TIP3    H176975   0.089   3.000   5.111  1.0432 -1.2593  1.0303
18520TIP3    H276976   0.157   3.135   5.120  2.8177 -1.9148 -1.4251
18521TIP3   OH276977   3.136   5.561  15.646 -0.3295 -0.7935 -0.5610
18521TIP3    H176978   3.047   5.579  15.615  0.2007  1.8534 -0.8219
18521TIP3    H276979   3.146   5.618  15.723  0.6434 -2.2314  0.4292
18522TIP3   OH276980   1.224   3.378   0.494 -0.1251  0.0020  0.8037
18522TIP3    H176981   1.282   3.448   0.524 -0.1315 -0.7178  2.6779
18522TIP3    H276982   1.235   3.309   0.559 -0.1668 -1.7321 -0.9558
18523TIP3   OH276983   2.796   3.114   4.102  0.3408 -0.0639  0.3513
18523TIP3    H176984   2.748   3.041   4.141  0.5624  0.7877  2.3288
18523TIP3    H276985   2.883   3.078   4.083 -0.4581 -1.1343 -1.6660
18524TIP3   OH276986   3.874   1.079  12.969 -0.1730  0.4314 -0.1799
18524TIP3    H176987   3.882   1.148  12.903 -1.5001 -0.0114 -0.8333
18524TIP3    H276988   3.784   1.047  12.960  0.5397 -1.7178 -0.2337
18525TIP3   OH276989   4.490   0.097  12.139 -0.6354  0.3215 -0.7936
18525TIP3    H176990   4.410   0.125  12.183 -0.9525  2.1805 -2.4002
18525TIP3    H276991   4.460   0.051  12.060 -0.0806 -1.9122  0.2306
18526TIP3   OH276992   5.565   4.876  14.262  0.6521  0.7044 -0.4482
18526TIP3    H176993   5.583   4.915  14.176 -0.2431  0.4929 -0.7439
18526TIP3    H276994   5.474   4.847  14.256  0.2260  1.6465  0.9282
18527TIP3   OH276995   4.966   4.707   2.482 -0.5551 -0.0905 -0.0927
18527TIP3    H176996   5.034   4.642   2.465 -1.4695 -0.7317 -1.5365
18527TIP3    H276997   4.982   4.775   2.416 -1.2263 -0.1879 -0.3605
18528TIP3   OH276998   0.601   2.180  11.801  0.1986 -0.4490  0.1850
18528TIP3    H176999   0.622   2.087  11.789 -4.3204 -1.6856 -0.2161
18528TIP3    H277000   0.628   2.222  11.720  3.6687 -0.9702  0.9382
18529TIP3   OH277001   5.251   4.743   0.456  0.7066  0.0568 -0.2366
18529TIP3    H177002   5.245   4.828   0.499 -0.1662 -1.3804  2.7611
18529TIP3    H277003   5.339   4.711   0.478  1.3082  0.4177 -1.9623
18530TIP3   OH277004   5.435   5.538  14.720 -0.5005 -0.4705 -0.7253
18530TIP3    H177005   5.521   5.526  14.679 -0.0222  0.0378  0.1007
18530TIP3    H277006   5.432   5.631  14.742 -1.3683 -0.4381 -0.9743
18531TIP3   OH277007   3.085   4.992  12.885  0.5133  0.4276 -0.4489
18531TIP3    H177008   3.062   4.971  12.976 -0.2685  0.9940 -0.5094
18531TIP3    H277009   3.144   4.921  12.859 -0.5949 -0.6844 -0.0474
18532TIP3   OH277010   1.879   5.613  14.521 -0.0993  0.2276 -0.0504
18532TIP3    H177011   1.864   5.613  14.616 -1.2003  2.2901 -0.1637
18532TIP3    H277012   1.798   5.649  14.484  0.0519 -1.1571 -1.8476
18533TIP3   OH277013   5.882   6.391  12.639 -0.2153  0.5816 -1.0463
18533TIP3    H177014   5.808   6.429  12.687  0.4140 -0.2078  0.6150
18533TIP3    H277015   5.844   6.319  12.589 -0.3149 -1.3980  1.6512
18534TIP3   OH277016   0.866   3.365   1.825 -0.1075 -1.0083 -0.0190
18534TIP3    H177017   0.903   3.444   1.786 -1.9426 -1.1487 -2.2474
18534TIP3    H277018   0.937   3.301   1.823  1.0806  0.2369  0.8426
18535TIP3   OH277019   0.624   2.107  14.197 -0.5080  0.9021 -0.1042
18535TIP3    H177020   0.642   2.019  14.230 -1.4499  0.7492  0.0423
18535TIP3    H277021   0.531   2.120  14.215 -0.3039  2.0615  0.1858
18536TIP3   OH277022   5.103   0.132  13.244  0.2582 -0.5099 -0.6895
18536TIP3    H177023   5.079   0.164  13.157 -1.5654 -0.5302 -0.2267
18536TIP3    H277024   5.046   0.057  13.259  0.9015 -0.8195  0.3328
18537TIP3   OH277025   3.260   0.180   3.663  0.5469  0.1779  0.3538
18537TIP3    H177026   3.198   0.133   3.720  2.2869 -0.0036  2.2003
18537TIP3    H277027   3.345   0.165   3.703  1.4361  3.1999 -0.1747
18538TIP3   OH277028   4.999   1.512   2.490 -0.0816  0.0594 -0.6387
18538TIP3    H177029   5.079   1.555   2.462 -0.1195 -0.3617 -1.4260
18538TIP3    H277030   4.948   1.502   2.409 -0.3707 -0.8103 -0.3581
18539TIP3   OH277031   5.070   1.237  17.010  0.3630 -0.5540  0.7685
18539TIP3    H177032   5.031   1.284  17.084 -0.6191 -1.3481  0.7857
18539TIP3    H277033   4.995   1.203  16.961  1.0187 -0.7733 -0.1159
18540TIP3   OH277034   5.032   0.435  13.733  0.2382 -0.0907  0.0675
18540TIP3    H177035   5.021   0.391  13.649 -0.8505  0.7887 -0.2725
18540TIP3    H277036   5.016   0.528  13.715 -1.2740 -0.0297  1.4533
18541TIP3   OH277037   2.715   0.997   4.750 -0.7597  0.0075 -0.5078
18541TIP3    H177038   2.747   0.956   4.830 -1.4942  1.0886  0.3728
18541TIP3    H277039   2.782   0.976   4.684 -0.1941 -0.9878  0.3529
18542TIP3   OH277040   4.560   0.817  17.070  0.1156  0.1049  1.0950
18542TIP3    H177041   4.572   0.806  16.975 -0.2643 -0.0279  1.0581
18542TIP3    H277042   4.636   0.773  17.109 -0.4947 -1.1896  0.8908
18543TIP3   OH277043   4.987   2.404   2.192  0.0503  0.3411  0.2024
18543TIP3    H177044   4.938   2.470   2.242  0.5063 -0.0620  1.2032
18543TIP3    H277045   5.079   2.427   2.205  0.2139 -0.4789  0.5523
18544TIP3   OH277046   3.187   3.951  15.296  0.3606 -0.1634  0.5214
18544TIP3    H177047   3.130   4.004  15.240  0.9282 -0.9214 -0.8221
18544TIP3    H277048   3.160   3.860  15.278  0.3026 -0.4073  1.7758
18545TIP3   OH277049   2.706   3.245   3.194 -0.0865 -0.0303 -0.0301
18545TIP3    H177050   2.619   3.225   3.161 -0.6603  1.9208  0.2363
18545TIP3    H277051   2.765   3.214   3.125 -0.9668 -1.1469 -0.3190
18546TIP3   OH277052   4.539   3.010  12.204  0.4951 -0.7192 -0.5403
18546TIP3    H177053   4.500   3.004  12.117 -0.4631  3.6793 -0.6477
18546TIP3    H277054   4.605   3.080  12.196  1.2461 -1.0315  2.0015
18547TIP3   OH277055   6.118   6.617  11.488 -0.1525 -0.7343 -0.0995
18547TIP3    H177056   6.076   6.531  11.488 -1.0911 -0.2912 -0.8725
18547TIP3    H277057   6.101   6.653  11.401  2.1656 -0.6633 -0.5945
18548TIP3   OH277058   3.175   5.698   4.491  0.6314  0.4011  0.7742
18548TIP3    H177059   3.227   5.712   4.570 -0.2519 -0.5303  1.5590
18548TIP3    H277060   3.101   5.645   4.521 -1.6069  2.9185  0.0513
18549TIP3   OH277061   1.960   4.180  13.835 -0.4896 -0.0057  0.2798
18549TIP3    H177062   1.875   4.173  13.791  0.3099  0.3458 -1.4096
18549TIP3    H277063   1.989   4.269  13.816  0.7647 -0.4891 -0.1362
18550TIP3   OH277064   0.737   5.444   2.184  0.7445  0.1058  0.4487
18550TIP3    H177065   0.653   5.419   2.146  1.2373 -1.3489  0.2387
18550TIP3    H277066   0.715   5.509   2.251 -0.6884 -1.0197  1.1480
18551TIP3   OH277067   3.067   1.063  16.226  0.3064  0.1945 -1.0005
18551TIP3    H177068   2.996   1.007  16.257 -0.2471  1.7465  0.7786
18551TIP3    H277069   3.083   1.035  16.136 -0.9350 -1.7681 -0.6677
18552TIP3   OH277070   4.987   3.124  12.511  0.0746 -0.0176  0.5965
18552TIP3    H177071   5.030   3.077  12.439 -0.5648  0.5795 -0.1999
18552TIP3    H277072   4.971   3.057  12.577 -1.7368 -1.1745 -0.9289
18553TIP3   OH277073   4.240   3.521  15.659  0.0371  0.0648  0.2891
18553TIP3    H177074   4.223   3.493  15.749  1.8859 -1.1446  0.2957
18553TIP3    H277075   4.189   3.461  15.605  1.2390 -1.1467  0.4496
18554TIP3   OH277076   4.858   5.201   2.501  0.0293  0.0790  0.1756
18554TIP3    H177077   4.950   5.190   2.526  0.1955  1.8187  0.4771
18554TIP3    H277078   4.845   5.296   2.500 -1.2409 -0.0659 -1.7999
18555TIP3   OH277079   4.895   0.200  14.549 -0.4827  0.0589  0.0627
18555TIP3    H177080   4.969   0.165  14.598  0.2959  2.2925  0.6192
18555TIP3    H277081   4.901   0.157  14.463  0.9903 -0.4034  0.3632
18556TIP3   OH277082   5.602   1.737   5.053 -0.2672  0.4386  0.9167
18556TIP3    H177083   5.677   1.737   4.994 -1.3068 -1.1112 -0.5009
18556TIP3    H277084   5.537   1.792   5.008 -1.2978 -1.2710  0.2188
18557TIP3   OH277085   2.749   1.039  14.202 -0.3865 -0.1239  0.1653
18557TIP3    H177086   2.840   1.056  14.227 -0.7388 -0.4355  1.7697
18557TIP3    H277087   2.717   1.123  14.169  0.0206  0.4282  1.1311
18558TIP3   OH277088   0.662   4.087  13.879 -0.0006 -0.1900  0.1338
18558TIP3    H177089   0.636   4.146  13.950  2.1369  2.1929 -0.9214
18558TIP3    H277090   0.715   4.020  13.922 -0.3788  0.0892  1.0558
18559TIP3   OH277091   0.029   5.757   3.590 -0.7308  0.3952 -0.1486
18559TIP3    H177092   0.015   5.795   3.677  0.5998 -1.6297  1.0213
18559TIP3    H277093   0.122   5.774   3.572 -0.2405 -1.6757  0.1633
18560TIP3   OH277094   0.238   3.042  17.146 -0.2378 -0.1193  0.3592
18560TIP3    H177095   0.171   2.982  17.113  0.1550  0.3730 -1.4396
18560TIP3    H277096   0.319   2.992  17.144  0.3885  0.8133 -2.6417
18561TIP3   OH277097   0.456   1.491  15.249 -1.0278  0.3457 -0.1622
18561TIP3    H177098   0.504   1.467  15.329 -3.1006 -0.8428  0.8157
18561TIP3    H277099   0.424   1.579  15.267 -0.7825  0.4132 -0.0435
18562TIP3   OH277100   5.564   1.066  12.059 -0.0750  0.1779 -0.0988
18562TIP3    H177101   5.525   0.988  12.021  1.7214 -1.2366  0.7828
18562TIP3    H277102   5.613   1.034  12.135  0.2854  2.2453  0.6296
18563TIP3   OH277103   3.006   1.070  12.432 -0.1384  0.1474  0.4793
18563TIP3    H177104   3.058   1.035  12.504 -0.6170  0.4639  0.9782
18563TIP3    H277105   3.000   0.998  12.370 -2.2867 -1.1833  2.0987
18564TIP3   OH277106   0.204   0.820   3.455  0.2964  0.1412 -0.2232
18564TIP3    H177107   0.246   0.842   3.372 -0.8139  1.8475 -0.3912
18564TIP3    H277108   0.164   0.902   3.484 -1.1934 -0.9317  0.9246
18565TIP3   OH277109   6.156   4.972  15.127 -0.0829  0.2142  0.1091
18565TIP3    H177110   6.206   5.044  15.088  2.9332 -0.3592  2.4846
18565TIP3    H277111   6.121   5.009  15.208  1.4110 -0.8581  1.3030
18566TIP3   OH277112   2.169   4.194  11.429 -0.2987  0.0621 -0.3709
18566TIP3    H177113   2.124   4.252  11.490  0.1093  1.4565 -1.3482
18566TIP3    H277114   2.204   4.124  11.484 -0.5931  0.8710  0.8838
18567TIP3   OH277115   4.446   3.089   4.993 -0.9620 -0.8000  0.1332
18567TIP3    H177116   4.418   2.998   5.004 -3.3966 -0.1424  0.0595
18567TIP3    H277117   4.418   3.132   5.075  0.4522 -0.1666  0.3029
18568TIP3   OH277118   5.627   0.541  15.500  0.3852  0.0276  0.6413
18568TIP3    H177119   5.616   0.446  15.492  0.5917  0.0462  0.0897
18568TIP3    H277120   5.559   0.567  15.563  0.5317 -0.5215  1.0385
18569TIP3   OH277121   3.186   4.561  16.463 -0.5598  0.2230 -0.6089
18569TIP3    H177122   3.189   4.639  16.518  0.4394 -0.2171 -0.0090
18569TIP3    H277123   3.262   4.569  16.406 -0.5447 -0.2318 -0.6572
18570TIP3   OH277124   5.662   3.074   4.612 -0.9005  0.5046 -0.2047
18570TIP3    H177125   5.575   3.048   4.581 -0.3300  1.2338 -2.6494
18570TIP3    H277126   5.644   3.131   4.688 -2.5451  0.5333 -0.5697
18571TIP3   OH277127   1.802   2.764   1.084 -0.7276  0.5409 -0.5028
18571TIP3    H177128   1.820   2.714   1.163 -0.2772 -0.8269 -1.4252
18571TIP3    H277129   1.708   2.782   1.088 -1.2454 -1.7545 -0.8548
18572TIP3   OH277130   6.470   3.821  12.121  0.0177 -0.1094  0.3219
18572TIP3    H177131   6.456   3.793  12.212  2.1305 -0.0900  0.7027
18572TIP3    H277132   6.541   3.885  12.127 -0.0273  0.1265 -1.3252
18573TIP3   OH277133   5.144   0.372  16.359  0.5936 -0.0169  0.1723
18573TIP3    H177134   5.125   0.346  16.449  1.4183 -0.1519  0.3166
18573TIP3    H277135   5.158   0.289  16.313  0.0661  0.0464 -0.1062
18574TIP3   OH277136   0.901   2.656   2.300  0.0456  0.2629  0.0447
18574TIP3    H177137   0.965   2.609   2.353  0.6138 -0.6630 -1.4081
18574TIP3    H277138   0.832   2.681   2.362  1.3266  0.4246  1.4547
18575TIP3   OH277139   4.078   5.581   5.521  0.3455  0.2052  0.1053
18575TIP3    H177140   4.031   5.558   5.601 -1.0351 -0.1473 -0.7711
18575TIP3    H277141   4.035   5.531   5.452 -0.0418  2.2335 -1.2287
18576TIP3   OH277142   1.373   4.219   5.468 -0.2731  0.2212 -0.1244
18576TIP3    H177143   1.455   4.256   5.434 -0.5846 -0.5306 -1.8048
18576TIP3    H277144   1.336   4.171   5.394 -2.1378  0.3611  0.6597
18577TIP3   OH277145   5.325   0.493   2.646  0.0351  0.5543  0.1638
18577TIP3    H177146   5.395   0.438   2.683 -0.1882 -0.0557 -0.2952
18577TIP3    H277147   5.325   0.470   2.553 -2.2609 -1.1431  0.4957
18578TIP3   OH277148   1.982   6.645   3.576 -0.1836  0.4680  0.5546
18578TIP3    H177149   1.921   6.585   3.532 -0.3288  0.2869  0.9981
18578TIP3    H277150   2.007   6.707   3.508  1.0022 -0.8719 -0.2778
18579TIP3   OH277151   5.111   4.281   2.363 -0.1154 -0.6931 -0.1203
18579TIP3    H177152   5.090   4.278   2.270  0.9545 -0.5781 -0.3736
18579TIP3    H277153   5.141   4.192   2.384 -1.0240 -0.9193  0.2923
18580TIP3   OH277154   0.720   5.198   4.983 -0.3220 -0.4835  0.3229
18580TIP3    H177155   0.674   5.282   4.976  0.2650 -0.1166  0.7318
18580TIP3    H277156   0.665   5.146   5.042 -0.9607 -0.5839 -0.3504
18581TIP3   OH277157   4.609   2.643   0.647 -0.3294  0.3555 -0.3107
18581TIP3    H177158   4.523   2.622   0.612 -0.8385  2.1834 -0.2221
18581TIP3    H277159   4.651   2.696   0.579 -0.3448  1.7734  0.7457
18582TIP3   OH277160   4.875   3.655   2.902 -0.5550 -0.3053 -0.4754
18582TIP3    H177161   4.925   3.673   2.822 -0.7992  0.1349 -0.5256
18582TIP3    H277162   4.917   3.576   2.937 -0.2706 -0.3478 -0.8902
18583TIP3   OH277163   1.107   5.396   2.742  0.3490  0.3580 -0.3691
18583TIP3    H177164   1.184   5.406   2.798  0.3071 -1.0706 -0.0009
18583TIP3    H277165   1.034   5.389   2.804  0.2000 -0.4230 -0.6267
18584TIP3   OH277166   3.455   3.630  16.547  0.3430  0.0526  0.4557
18584TIP3    H177167   3.424   3.665  16.631  0.7028 -0.3404  0.7604
18584TIP3    H277168   3.551   3.639  16.551  0.3690 -0.0659  0.1313
18585TIP3   OH277169   3.585   5.470  11.750 -0.2715  0.0154  0.3144
18585TIP3    H177170   3.600   5.548  11.697  0.0219 -0.0677  0.2728
18585TIP3    H277171   3.654   5.410  11.724 -1.2328 -0.7411 -0.5518
18586TIP3   OH277172   2.034   3.040   4.098 -0.4469 -0.7030  0.0508
18586TIP3    H177173   1.948   3.030   4.057  0.3727 -0.6517 -1.7926
18586TIP3    H277174   2.037   3.130   4.127 -0.5430 -0.3014 -1.1127
18587TIP3   OH277175   2.479   2.922   1.394  0.1863  0.7458 -0.1635
18587TIP3    H177176   2.386   2.902   1.389  0.2150  0.1278  1.2818
18587TIP3    H277177   2.513   2.903   1.306 -1.1515  1.6597 -0.9104
18588TIP3   OH277178   5.344   4.572   1.715  0.4558 -0.5343  0.2090
18588TIP3    H177179   5.318   4.661   1.691  0.6409 -0.2390  1.0707
18588TIP3    H277180   5.391   4.539   1.638  0.1142 -0.0055 -0.2346
18589TIP3   OH277181   2.500   0.001  10.678  0.6374  0.2725  0.2932
18589TIP3    H177182   2.446   0.079  10.664  0.0219 -0.0804  0.6074
18589TIP3    H277183   2.436  -0.069  10.695  1.1376 -0.5222 -1.0029
18590TIP3   OH277184   3.296   4.276   3.094  0.2684  0.1547  0.3758
18590TIP3    H177185   3.202   4.290   3.084  0.4853  2.7846  1.3247
18590TIP3    H277186   3.310   4.185   3.066 -2.9774 -1.3175  2.8992
18591TIP3   OH277187   0.593   1.025  16.744  0.2860 -0.5762 -0.2526
18591TIP3    H177188   0.673   0.984  16.712  1.0631  0.9403 -0.3560
18591TIP3    H277189   0.624   1.097  16.799 -0.9556  1.1976 -1.7479
18592TIP3   OH277190   4.310   1.112   6.239 -0.1179  0.0138 -0.0434
18592TIP3    H177191   4.256   1.055   6.293 -0.3172 -1.3700 -1.6431
18592TIP3    H277192   4.251   1.184   6.215 -0.3106  0.1328  0.7272
18593TIP3   OH277193   5.262   5.297  11.465  0.6010 -0.4418 -0.2279
18593TIP3    H177194   5.285   5.386  11.440  0.9228 -0.1542  1.0471
18593TIP3    H277195   5.278   5.246  11.385  0.4714  0.6171 -0.9495
18594TIP3   OH277196   3.179   1.950   3.170 -0.5068  0.3670 -0.2558
18594TIP3    H177197   3.202   1.891   3.241 -0.2808  2.0789  1.1589
18594TIP3    H277198   3.258   2.001   3.154 -0.5933  0.1022 -1.6772
18595TIP3   OH277199   0.324   6.681   1.413 -0.0443 -0.2147 -0.0932
18595TIP3    H177200   0.273   6.708   1.490  0.3902  3.5155 -0.9473
18595TIP3    H277201   0.415   6.688   1.441  0.1002 -1.1094 -0.3084
18596TIP3   OH277202   1.347   0.633   3.187  0.0633 -0.2239  0.0979
18596TIP3    H177203   1.401   0.683   3.125  1.4316 -1.0501  0.5643
18596TIP3    H277204   1.257   0.657   3.165  0.5745  0.6478 -1.2136
18597TIP3   OH277205   6.514   0.744  14.932 -0.4602  0.7895 -0.5539
18597TIP3    H177206   6.555   0.658  14.940 -1.2154  0.5194  0.9974
18597TIP3    H277207   6.437   0.729  14.876 -0.0447  0.6780 -1.0984
18598TIP3   OH277208   2.174   3.236   6.707  0.0853  0.2657 -0.5276
18598TIP3    H177209   2.200   3.322   6.741  0.6847  0.5599 -1.6869
18598TIP3    H277210   2.252   3.182   6.714  0.7832  0.8303 -2.9669
18599TIP3   OH277211   1.409   5.938  12.080 -0.7214 -0.3452  0.1323
18599TIP3    H177212   1.374   5.963  11.994 -0.5437 -2.5326 -0.6341
18599TIP3    H277213   1.504   5.948  12.071 -0.8193  1.3896  0.7774
18600TIP3   OH277214   5.099   4.592   4.887  0.0940 -0.0014 -0.1335
18600TIP3    H177215   5.176   4.606   4.942  0.5685  1.6210 -1.1535
18600TIP3    H277216   5.114   4.506   4.847  0.3294 -0.6458  1.2755
18601TIP3   OH277217   4.855   0.000  15.077  0.6758  0.3180 -0.1937
18601TIP3    H177218   4.824   0.041  15.158 -1.5961  0.1868 -0.9184
18601TIP3    H277219   4.825   0.059  15.007  1.3129 -0.3056 -1.0211
18602TIP3   OH277220   5.326   4.190   6.030  0.1210 -0.2347 -0.1790
18602TIP3    H177221   5.374   4.125   6.081  0.0682  0.7800  1.2126
18602TIP3    H277222   5.352   4.274   6.068 -2.6306  0.3664  0.5599
18603TIP3   OH277223   6.312   6.569   0.549 -0.1308  0.7248  0.4580
18603TIP3    H177224   6.239   6.544   0.605 -0.8719 -0.5255 -0.9698
18603TIP3    H277225   6.270   6.610   0.473  0.6389  0.2821 -0.2275
18604TIP3   OH277226   0.636   6.527   1.992  0.0203 -0.1217 -0.0364
18604TIP3    H177227   0.686   6.453   1.959 -2.0356 -1.0858 -1.1980
18604TIP3    H277228   0.700   6.597   2.003  2.0944 -2.0826  1.3286
18605TIP3   OH277229   2.419   6.706  10.983  0.5737  0.6821  0.1515
18605TIP3    H177230   2.386   6.640  10.923  0.2333  0.2267  0.8215
18605TIP3    H277231   2.499   6.740  10.942  2.0268 -1.7095  0.8051
18606TIP3   OH277232   2.494   6.723   4.780  0.2160  0.3528 -0.5568
18606TIP3    H177233   2.410   6.768   4.781  0.2663  0.5170 -1.7320
18606TIP3    H277234   2.476   6.638   4.821 -0.5045  0.4194 -0.7174
18607TIP3   OH277235   2.767   6.655  14.134 -0.1416  0.2194  0.2612
18607TIP3    H177236   2.838   6.677  14.074 -0.6838 -1.1007 -0.9011
18607TIP3    H277237   2.704   6.726  14.123  0.1428  0.4246 -0.0786
18608TIP3   OH277238   5.798   2.641  10.984 -0.6241 -0.5990 -0.2536
18608TIP3    H177239   5.720   2.587  10.969 -0.7194 -0.0499 -2.0255
18608TIP3    H277240   5.844   2.640  10.900  0.4180  0.4180  0.2787
18609TIP3   OH277241   2.783   5.546   1.522 -0.4265  0.4112  0.1573
18609TIP3    H177242   2.701   5.574   1.564 -0.7609  0.0617 -0.2514
18609TIP3    H277243   2.803   5.461   1.561  0.0907  0.7803  0.7198
18610TIP3   OH277244   1.689   4.385  12.565  0.3759 -0.1908  0.0122
18610TIP3    H177245   1.597   4.382  12.538  0.5868  0.6244 -0.8706
18610TIP3    H277246   1.735   4.419  12.489  1.5274 -1.2638  0.1876
18611TIP3   OH277247   1.300   2.525  12.970 -0.7935  0.2880 -0.5620
18611TIP3    H177248   1.292   2.593  13.038 -2.1394 -0.5777  0.1954
18611TIP3    H277249   1.388   2.489  12.983 -0.6067  0.9161 -0.0170
18612TIP3   OH277250   5.730   2.354  17.185  0.1629 -0.0105  0.3947
18612TIP3    H177251   5.676   2.344  17.107 -0.8754 -1.1864  1.2269
18612TIP3    H277252   5.684   2.419  17.238  0.3547  0.0781  0.4538
18613TIP3   OH277253   5.244   1.034   0.352  0.2439 -0.4059 -0.5056
18613TIP3    H177254   5.337   1.056   0.344  0.1827  0.6721  1.2748
18613TIP3    H277255   5.240   0.940   0.336  1.8251 -0.6967  0.5941
18614TIP3   OH277256   2.655   4.384  15.347  0.3481 -0.5576  0.1615
18614TIP3    H177257   2.702   4.352  15.270  0.9508  0.4171  0.1045
18614TIP3    H277258   2.723   4.397  15.412 -0.1629 -1.3858  0.8799
18615TIP3   OH277259   6.309   3.451   2.491  0.3594 -0.6371  0.3052
18615TIP3    H177260   6.246   3.522   2.485  0.8591  0.1485  2.9604
18615TIP3    H277261   6.395   3.495   2.487  0.6797 -1.1754  0.9854
18616TIP3   OH277262   2.400   6.008   2.989 -0.5070  0.1520  0.7251
18616TIP3    H177263   2.457   5.990   2.914  0.2633  1.1167  1.0579
18616TIP3    H277264   2.447   5.971   3.064  0.1629  1.7779  1.1355
18617TIP3   OH277265   6.102   5.619   3.538 -0.1990 -0.0717  0.0109
18617TIP3    H177266   6.107   5.537   3.488 -1.1412  0.2302 -0.5996
18617TIP3    H277267   6.174   5.612   3.602  0.3128 -0.9621 -0.6341
18618TIP3   OH277268   3.163   1.306   2.675  0.1270  0.2451 -0.3234
18618TIP3    H177269   3.159   1.274   2.586 -0.9683 -0.1287 -0.1451
18618TIP3    H277270   3.093   1.371   2.681  0.4299  0.5391  0.1681
18619TIP3   OH277271   2.390   6.279   2.160  0.1971 -0.2465 -0.2728
18619TIP3    H177272   2.358   6.236   2.239 -0.0986  1.1739  0.4040
18619TIP3    H277273   2.357   6.368   2.166  0.1471 -0.1206 -2.0305
18620TIP3   OH277274   2.163   4.259  14.271 -0.1057  0.3071  0.1746
18620TIP3    H177275   2.138   4.187  14.213  0.6381 -0.1548  0.4075
18620TIP3    H277276   2.105   4.331  14.247 -0.4115 -0.1635 -0.5210
18621TIP3   OH277277   5.506   5.956  16.497 -0.2272  0.2228  0.4309
18621TIP3    H177278   5.426   5.908  16.480 -1.9820  2.1545  2.5531
18621TIP3    H277279   5.518   6.011  16.419 -1.0666  0.0489  0.1734
18622TIP3   OH277280   4.321   5.997  10.467  0.3315  0.4488  0.0397
18622TIP3    H177281   4.316   5.978  10.561 -0.1492  1.1636  0.1686
18622TIP3    H277282   4.230   6.006  10.440  0.4877  0.6620 -0.4090
18623TIP3   OH277283   2.390   3.317   5.599 -0.3559 -0.1937 -0.1955
18623TIP3    H177284   2.392   3.312   5.694  2.3229  4.4104  0.2726
18623TIP3    H277285   2.297   3.307   5.577 -0.8947 -3.1154  2.5325
18624TIP3   OH277286   6.435   4.526   0.853  0.3627 -0.0215  0.0080
18624TIP3    H177287   6.434   4.555   0.944  0.0876  1.9870 -0.5921
18624TIP3    H277288   6.350   4.485   0.840  0.4120 -0.3472  0.6292
18625TIP3   OH277289   3.214   4.602  13.902  0.7017  0.0698 -0.3676
18625TIP3    H177290   3.274   4.540  13.861  1.1033  0.4741 -0.4078
18625TIP3    H277291   3.169   4.644  13.829 -0.5416 -1.0976 -0.3078
18626TIP3   OH277292   1.440   0.621   1.250 -0.3422 -0.3355 -0.0272
18626TIP3    H177293   1.511   0.608   1.312 -0.3311  2.7468  0.7615
18626TIP3    H277294   1.371   0.561   1.279  0.5512 -0.6667  1.4880
18627TIP3   OH277295   3.665   4.912  15.788 -0.2080 -0.1334  0.6432
18627TIP3    H177296   3.759   4.905  15.773  0.0302  0.6362  1.6562
18627TIP3    H277297   3.638   4.823  15.812  0.4680 -0.1454  1.4075
18628TIP3   OH277298   0.391   3.422  12.253 -0.3291 -0.3356 -0.0686
18628TIP3    H177299   0.412   3.382  12.337 -1.9536  0.9508  1.0236
18628TIP3    H277300   0.442   3.503  12.251 -0.5379 -0.2059 -0.1791
18629TIP3   OH277301   6.532   6.562  11.094  1.0077 -0.0958  0.1814
18629TIP3    H177302   6.586   6.482  11.092  0.9320 -0.2288  1.9801
18629TIP3    H277303   6.542   6.599  11.006  1.5397 -1.7543 -0.5043
18630TIP3   OH277304   1.832   2.118  11.717 -0.1663  0.2853 -0.3195
18630TIP3    H177305   1.824   2.106  11.812  0.7315 -0.6339 -0.3490
18630TIP3    H277306   1.861   2.034  11.684 -0.4446  0.6044 -1.4264
18631TIP3   OH277307   1.669   4.651   0.892  0.8469 -0.3468 -0.2881
18631TIP3    H177308   1.641   4.616   0.976 -1.7661  1.2186 -0.3947
18631TIP3    H277309   1.676   4.574   0.835 -1.6034 -1.0952  0.2823
18632TIP3   OH277310   3.608   2.243   0.814 -0.0573  0.6098 -0.0863
18632TIP3    H177311   3.689   2.282   0.779  0.2782 -1.1219 -1.3791
18632TIP3    H277312   3.550   2.237   0.738 -0.5394 -0.2541  0.3392
18633TIP3   OH277313   5.579   3.925  15.606  0.1833  0.1077  0.4956
18633TIP3    H177314   5.514   3.989  15.576 -1.3985 -0.8282  1.7309
18633TIP3    H277315   5.626   3.900  15.527 -2.3558 -0.6766 -0.9022
18634TIP3   OH277316   4.921   2.565  11.462 -0.3043  0.2687  0.0830
18634TIP3    H177317   4.827   2.554  11.471 -0.5509  2.4630  0.7983
18634TIP3    H277318   4.938   2.557  11.368 -1.4849  1.5631 -0.2716
18635TIP3   OH277319   6.662   5.327   0.894 -0.0117 -0.1102 -0.2627
18635TIP3    H177320   6.701   5.245   0.864 -0.6600 -0.3362 -0.5063
18635TIP3    H277321   6.730   5.392   0.880  0.6262 -0.6566  0.2298
18636TIP3   OH277322   6.369   2.265   2.355 -0.6541 -0.4287  0.2206
18636TIP3    H177323   6.443   2.204   2.364  0.8271  1.2677 -0.0273
18636TIP3    H277324   6.291   2.209   2.366  0.6133 -2.3878 -0.1704
18637TIP3   OH277325   4.063   3.704  16.508 -0.0062 -0.8855 -0.0926
18637TIP3    H177326   3.984   3.650  16.497 -0.2597 -0.4158 -0.6714
18637TIP3    H277327   4.032   3.781  16.555  0.4568 -1.4601  1.1876
18638TIP3   OH277328   5.068   2.408   3.820  0.3093  0.1149 -0.0597
18638TIP3    H177329   5.090   2.437   3.732 -0.2406  0.2455 -0.1596
18638TIP3    H277330   5.043   2.488   3.866 -1.3450 -0.1823 -0.3734
18639TIP3   OH277331   1.887   2.853   5.003 -0.2940 -0.6438 -0.6877
18639TIP3    H177332   1.870   2.770   5.047 -0.4957 -0.9473 -1.3222
18639TIP3    H277333   1.800   2.888   4.984 -0.2458  0.6092  1.1888
18640TIP3   OH277334   3.448   3.824  15.834 -0.2611 -0.1666 -0.1614
18640TIP3    H177335   3.469   3.865  15.918 -0.2859  1.3597 -0.8772
18640TIP3    H277336   3.453   3.895  15.770 -1.8428 -0.9381 -1.2232
18641TIP3   OH277337   3.753   5.828   6.463 -0.1409  0.3363 -0.8284
18641TIP3    H177338   3.702   5.861   6.537 -0.4711 -1.0377 -0.4200
18641TIP3    H277339   3.717   5.874   6.387 -2.2896 -0.8596 -0.6101
18642TIP3   OH277340   3.968   1.090   4.592  0.3368 -0.1701  0.0357
18642TIP3    H177341   4.044   1.048   4.630  0.8575 -0.4467 -1.2542
18642TIP3    H277342   3.997   1.120   4.506 -0.4764  1.3988  0.2575
18643TIP3   OH277343   1.227   0.332   4.601 -0.1890  0.4493  0.1966
18643TIP3    H177344   1.273   0.323   4.518 -0.3460  0.6206  0.0915
18643TIP3    H277345   1.256   0.417   4.635 -0.2414  0.4471  0.2459
18644TIP3   OH277346   6.020   5.909  10.866 -0.8321  0.2554  0.1465
18644TIP3    H177347   5.985   5.887  10.780  0.7929 -0.0462 -0.4787
18644TIP3    H277348   6.100   5.958  10.847 -1.2875  1.6028  1.5135
18645TIP3   OH277349   3.279   1.843   1.718 -0.8616 -0.5461 -0.5295
18645TIP3    H177350   3.239   1.902   1.654 -0.8400  0.0180 -0.0339
18645TIP3    H277351   3.250   1.876   1.803  0.2779 -0.3959 -0.1805
18646TIP3   OH277352   5.751   4.927   4.285 -0.3850 -0.2116 -0.1227
18646TIP3    H177353   5.769   4.944   4.193 -0.6229  0.7013 -0.0127
18646TIP3    H277354   5.671   4.875   4.286 -1.2489  1.0612 -0.3938
18647TIP3   OH277355   3.678   5.791   3.489 -0.3935 -0.1339 -0.4593
18647TIP3    H177356   3.748   5.855   3.471  0.4618 -1.0219 -0.3583
18647TIP3    H277357   3.639   5.774   3.403 -1.6741  1.6697 -0.2856
18648TIP3   OH277358   1.767   2.710  13.256 -0.1970 -0.0078 -0.1465
18648TIP3    H177359   1.707   2.655  13.306  0.0231 -0.5294 -0.4557
18648TIP3    H277360   1.713   2.745  13.184  0.0261 -1.0015 -0.8081
18649TIP3   OH277361   3.366   4.224   3.350  0.1211  0.3890 -0.4207
18649TIP3    H177362   3.452   4.264   3.362  1.6545 -2.5873 -0.4677
18649TIP3    H277363   3.340   4.249   3.261  1.3183  0.7224 -0.6975
18650TIP3   OH277364   4.837   2.999  16.345  0.1037  0.2694  0.6207
18650TIP3    H177365   4.791   3.071  16.303 -2.3061 -2.0149 -0.9364
18650TIP3    H277366   4.919   2.990  16.296 -0.7385  0.3831 -0.8572
18651TIP3   OH277367   4.499   4.213   1.146  0.0045 -0.0653  0.0011
18651TIP3    H177368   4.448   4.267   1.207  0.5216  1.7668 -1.1074
18651TIP3    H277369   4.442   4.138   1.127 -1.8947  1.4038 -0.4276
18652TIP3   OH277370   3.115   0.129  16.501  0.1588  0.2044 -0.1081
18652TIP3    H177371   3.196   0.150  16.548  1.5248  1.4171 -2.7812
18652TIP3    H277372   3.145   0.090  16.419 -2.0444 -0.4510 -0.6691
18653TIP3   OH277373   2.774   0.171   2.885 -0.5895  0.0621 -0.6077
18653TIP3    H177374   2.801   0.248   2.835 -2.3502  1.5483  0.5923
18653TIP3    H277375   2.856   0.124   2.903  0.5669  1.7729 -1.1784
18654TIP3   OH277376   2.438   6.495  14.390  0.3822  0.0052  0.0230
18654TIP3    H177377   2.431   6.426  14.323  0.7532 -1.4603  1.4270
18654TIP3    H277378   2.531   6.496  14.414  0.0945 -0.2293  1.2305
18655TIP3   OH277379   2.006   4.912  15.150  0.0291  0.1562 -0.3590
18655TIP3    H177380   2.001   5.008  15.150 -1.8777  0.1039 -0.6229
18655TIP3    H277381   1.997   4.887  15.058  0.9252 -0.2832 -0.3375
18656TIP3   OH277382   6.164   3.542  14.599  0.6455 -0.2498 -0.4884
18656TIP3    H177383   6.128   3.482  14.665 -0.9443  1.3315  0.1886
18656TIP3    H277384   6.137   3.629  14.630  1.3215  0.6669 -2.3632
18657TIP3   OH277385   2.725   4.729  15.936 -0.0974 -0.2175  0.3646
18657TIP3    H177386   2.687   4.814  15.958  1.8426  0.2200  2.3081
18657TIP3    H277387   2.754   4.738  15.845  1.0982  1.6168  0.8968
18658TIP3   OH277388   5.556   2.287  11.453 -0.0832  0.3683 -0.8145
18658TIP3    H177389   5.533   2.347  11.524  1.5630 -0.0115  0.0865
18658TIP3    H277390   5.585   2.344  11.382 -3.3494  0.8713 -1.9605
18659TIP3   OH277391   0.037   6.673   1.076 -0.2470 -0.3360  0.1908
18659TIP3    H177392   0.027   6.591   1.027  1.2544 -0.5599  0.2160
18659TIP3    H277393  -0.004   6.655   1.161 -2.9653  0.0915 -0.9585
18660TIP3   OH277394   2.790   5.540   5.611 -0.2753 -0.1939 -0.2424
18660TIP3    H177395   2.747   5.469   5.658 -1.2310  0.0870 -0.6730
18660TIP3    H277396   2.808   5.607   5.677 -1.7137  0.2483 -0.2706
18661TIP3   OH277397   3.575   4.426   0.538 -0.6528  0.4928  0.0993
18661TIP3    H177398   3.529   4.368   0.599 -0.2834 -0.3777 -0.4398
18661TIP3    H277399   3.522   4.424   0.458 -0.5508  0.7762  0.0220
18662TIP3   OH277400   3.811   5.540  11.378  0.6995 -0.6128 -0.3599
18662TIP3    H177401   3.720   5.512  11.387  0.9872 -1.6158 -0.4480
18662TIP3    H277402   3.806   5.632  11.350 -0.2769 -0.6145 -0.1998
18663TIP3   OH277403   3.416   6.673  11.983  0.0806 -0.1412  0.1453
18663TIP3    H177404   3.324   6.649  11.998  0.2668 -0.3719  0.9528
18663TIP3    H277405   3.441   6.723  12.060  0.7449 -0.4020  0.1087
18664TIP3   OH277406   6.274   4.062   5.946  0.2733  0.0435 -0.1493
18664TIP3    H177407   6.265   4.149   5.986  0.9842  0.2389 -0.3995
18664TIP3    H277408   6.184   4.034   5.930  0.0455  1.3284 -1.3332
18665TIP3   OH277409   1.999   3.323  11.453  0.1162  0.1761  0.3454
18665TIP3    H177410   1.996   3.312  11.358  1.4689  1.3974  0.1220
18665TIP3    H277411   1.957   3.244  11.488  0.5575 -0.8013 -1.2310
18666TIP3   OH277412   2.119   4.732   6.044 -0.3128  0.7744 -0.4850
18666TIP3    H177413   2.068   4.790   6.101 -0.3562  0.8731 -0.6235
18666TIP3    H277414   2.080   4.743   5.958 -0.2328  0.6412 -0.5383
18667TIP3   OH277415   4.702   6.269   0.165  0.1813  0.2929  0.1601
18667TIP3    H177416   4.695   6.278   0.070  1.3487  0.0130  0.0244
18667TIP3    H277417   4.672   6.353   0.200 -0.2284  0.4025 -0.4532
18668TIP3   OH277418   3.999   3.922  12.595  0.4638 -0.0674  0.8112
18668TIP3    H177419   4.094   3.929  12.610  0.4630  2.1413  0.1332
18668TIP3    H277420   3.986   3.832  12.567  2.9425  0.4686 -2.6578
18669TIP3   OH277421   4.655   1.383  12.049  0.1523 -0.1346  0.5365
18669TIP3    H177422   4.604   1.302  12.050 -1.1064  0.6342  0.3854
18669TIP3    H277423   4.627   1.428  11.970  3.6933 -1.2533 -1.6054
18670TIP3   OH277424   1.960   1.831  15.446 -0.1982 -0.0584  0.0262
18670TIP3    H177425   2.047   1.818  15.483 -0.4948 -2.5337  0.0475
18670TIP3    H277426   1.967   1.801  15.355 -0.9010  0.2830 -0.1527
18671TIP3   OH277427   3.859   1.054   5.286 -0.2562 -0.3405 -0.6852
18671TIP3    H177428   3.874   1.023   5.197 -0.3987 -0.1877 -0.7615
18671TIP3    H277429   3.835   1.146   5.276 -0.0285 -0.2570 -0.4714
18672TIP3   OH277430   4.379   0.441   3.389  0.3122  0.2929 -0.7748
18672TIP3    H177431   4.418   0.487   3.315 -1.2154  0.0307 -1.7929
18672TIP3    H277432   4.332   0.509   3.437 -1.3550 -0.0090 -1.8834
18673TIP3   OH277433   4.836   4.822  16.715  0.0496 -0.2865 -0.2546
18673TIP3    H177434   4.767   4.867  16.763  0.7964  0.6990 -0.0771
18673TIP3    H277435   4.789   4.769  16.651 -0.8796  0.4979 -0.2529
18674TIP3   OH277436   5.134   5.636  11.470  0.7902 -0.2792  0.3902
18674TIP3    H177437   5.123   5.730  11.486 -0.2107 -0.1784 -0.7126
18674TIP3    H277438   5.180   5.632  11.386 -1.7730 -0.7070 -1.1184
18675TIP3   OH277439   4.769   3.422   2.594 -0.2696 -0.1335 -0.4501
18675TIP3    H177440   4.684   3.466   2.602  0.6357  1.5260  0.7858
18675TIP3    H277441   4.812   3.466   2.521 -0.2088 -0.5068 -0.6393
18676TIP3   OH277442   5.715   2.620  16.233 -0.0462 -0.0654 -0.1066
18676TIP3    H177443   5.621   2.637  16.232  0.1024  0.7861 -0.7368
18676TIP3    H277444   5.727   2.548  16.172 -0.0702  1.2092 -1.6889
18677TIP3   OH277445   6.228   3.977  12.265  0.5902  0.4216 -0.1973
18677TIP3    H177446   6.214   4.070  12.282  0.8158  0.6018 -0.9681
18677TIP3    H277447   6.220   3.969  12.170  1.2260 -0.2337 -0.1982
18678TIP3   OH277448   0.560   0.848  15.161  0.4112  0.2520  0.1659
18678TIP3    H177449   0.514   0.924  15.124 -0.6636 -0.9262 -1.0197
18678TIP3    H277450   0.532   0.845  15.252 -0.7515  0.4156 -0.1715
18679TIP3   OH277451   1.881   1.322  16.067 -0.6851  0.2428  0.5180
18679TIP3    H177452   1.814   1.266  16.105  0.7390 -0.9162  1.4347
18679TIP3    H277453   1.832   1.389  16.019 -2.5341  0.3800  2.4259
18680TIP3   OH277454   3.243   4.320  15.259 -0.2587  0.2864 -0.1206
18680TIP3    H177455   3.233   4.405  15.216  0.7364  0.6604  0.3591
18680TIP3    H277456   3.208   4.257  15.195  1.4106  0.7988 -1.6500
18681TIP3   OH277457   3.037   3.483  11.099 -0.2271 -0.5336  0.3199
18681TIP3    H177458   3.088   3.557  11.132 -1.3388  0.2226  0.3808
18681TIP3    H277459   3.049   3.415  11.166 -0.6007  0.1992  1.1631
18682TIP3   OH277460   4.950   6.363  14.795 -0.0145 -0.5672 -0.0189
18682TIP3    H177461   5.002   6.331  14.721 -0.0486 -0.8574  0.0844
18682TIP3    H277462   4.998   6.334  14.872  2.7799  3.8075  0.2411
18683TIP3   OH277463   1.030   0.565   2.914  0.1092 -0.3575  0.1834
18683TIP3    H177464   1.015   0.498   2.981 -0.1391 -2.0597 -1.4655
18683TIP3    H277465   1.093   0.525   2.854 -1.1332  0.2535 -1.6334
18684TIP3   OH277466   4.727   4.279  12.200  0.0699  0.2932  0.2967
18684TIP3    H177467   4.773   4.353  12.241 -1.1742  0.3974  1.5912
18684TIP3    H277468   4.634   4.300  12.210 -0.2889 -0.7901 -0.5960
18685TIP3   OH277469   1.278   2.439  14.327  0.0457 -0.7846  0.6912
18685TIP3    H177470   1.258   2.482  14.410 -1.4063 -0.0304 -0.0068
18685TIP3    H277471   1.312   2.353  14.353 -2.5869 -1.5358  2.1100
18686TIP3   OH277472   1.793   2.077  15.435 -0.5032 -0.4487 -0.0050
18686TIP3    H177473   1.814   1.991  15.399  0.3353 -0.1361 -0.2936
18686TIP3    H277474   1.781   2.061  15.528  0.8659 -0.7060  0.1561
18687TIP3   OH277475   2.756   6.215   4.761 -0.4497 -0.1373  0.0298
18687TIP3    H177476   2.688   6.177   4.817 -0.6731  0.0890 -0.0841
18687TIP3    H277477   2.776   6.300   4.802 -0.6407  0.0455 -0.2550
18688TIP3   OH277478   4.783   0.367   4.446 -0.3359  0.1202  0.1104
18688TIP3    H177479   4.805   0.389   4.356 -0.3270 -0.7442 -0.0989
18688TIP3    H277480   4.816   0.278   4.459 -1.0057 -0.0480  0.7348
18689TIP3   OH277481   0.356   3.954  14.262  0.3676 -0.0814 -0.3294
18689TIP3    H177482   0.330   4.046  14.258  0.5353 -0.0609 -1.1290
18689TIP3    H277483   0.433   3.953  14.319  0.4026  0.2813 -0.3675
18690TIP3   OH277484   3.157   4.101   2.576 -0.3818 -0.7318 -0.0485
18690TIP3    H177485   3.196   4.181   2.611  0.9973 -1.2644 -0.2940
18690TIP3    H277486   3.065   4.124   2.560 -0.5394  0.1842  1.7914
18691TIP3   OH277487   2.586   4.205  11.251 -0.5647  0.1448  0.2440
18691TIP3    H177488   2.637   4.124  11.263 -0.9655 -0.0927  0.3414
18691TIP3    H277489   2.652   4.274  11.251  0.0096 -0.3316 -1.8389
18692TIP3   OH277490   4.342   0.067   4.396 -0.2170  0.5772 -0.1384
18692TIP3    H177491   4.333   0.073   4.301 -1.0089  0.1080 -0.1026
18692TIP3    H277492   4.382   0.150   4.422  0.9853  0.2949 -0.9856
18693TIP3   OH277493   4.897   0.498  17.094 -0.1011 -0.1175  0.4763
18693TIP3    H177494   4.932   0.567  17.151  1.4405 -0.8791  0.5118
18693TIP3    H277495   4.895   0.420  17.150 -2.1822 -0.0660  0.5519
18694TIP3   OH277496   4.489   3.814   3.264  0.1484  0.5366  0.7918
18694TIP3    H177497   4.524   3.737   3.309  0.0909  1.6086  2.7762
18694TIP3    H277498   4.556   3.881   3.278 -1.1321  1.6604  1.7089
18695TIP3   OH277499   2.192   0.483   5.155 -0.3449  0.3697 -0.1093
18695TIP3    H177500   2.105   0.451   5.129 -0.4599  0.4550  0.1654
18695TIP3    H277501   2.241   0.403   5.176 -0.5374  0.3531  0.2840
18696TIP3   OH277502   6.020   2.226   2.089  0.7243  0.3438 -0.0250
18696TIP3    H177503   6.024   2.165   2.162  2.1714 -1.2630 -1.3607
18696TIP3    H277504   6.111   2.256   2.078  0.1928  2.1029  0.0504
18697TIP3   OH277505   5.823   5.706   3.072  0.2702 -0.0699  0.1010
18697TIP3    H177506   5.751   5.715   3.135 -0.6072  3.1932 -1.1784
18697TIP3    H277507   5.902   5.724   3.122 -0.2670  0.8209  0.6530
18698TIP3   OH277508   6.375   0.098   3.458 -0.1992 -0.0772  0.1306
18698TIP3    H177509   6.282   0.119   3.466 -0.3063 -0.2592 -0.5893
18698TIP3    H277510   6.387   0.023   3.516 -0.6002 -0.3412 -0.1195
18699TIP3   OH277511   6.226   1.231  12.637  0.4215 -0.3434  0.1415
18699TIP3    H177512   6.162   1.212  12.706  1.3693  3.7678  2.5200
18699TIP3    H277513   6.260   1.146  12.611 -1.7031 -2.2865  3.0773
18700TIP3   OH277514   1.332   5.154  15.092  0.5131  0.0496 -0.1229
18700TIP3    H177515   1.348   5.248  15.084  0.0613 -0.0128 -3.0465
18700TIP3    H277516   1.418   5.114  15.078  0.4896  0.0100 -0.1552
18701TIP3   OH277517   0.841   2.689   4.697  0.2026 -0.9062 -0.6771
18701TIP3    H177518   0.832   2.651   4.784  1.0866 -3.1095 -1.4764
18701TIP3    H277519   0.935   2.706   4.688  0.2776 -1.7442 -1.5935
18702TIP3   OH277520   5.538   0.689  17.020  0.2027  0.4777 -0.2636
18702TIP3    H177521   5.601   0.730  16.959 -0.4630  0.4715 -0.9725
18702TIP3    H277522   5.526   0.755  17.089  0.7829  0.5854 -0.2551
18703TIP3   OH277523   1.591   1.462   6.228 -0.3343 -0.1421 -0.1926
18703TIP3    H177524   1.620   1.507   6.308  0.5985 -0.5092 -0.3023
18703TIP3    H277525   1.636   1.377   6.231 -1.6254 -0.8402 -0.2713
18704TIP3   OH277526   6.163   1.136   5.201  0.0643 -0.2350 -0.1520
18704TIP3    H177527   6.092   1.173   5.149  0.0070  0.0949  0.1539
18704TIP3    H277528   6.151   1.175   5.288  0.9067  0.2011 -0.2235
18705TIP3   OH277529   2.057   3.398   0.573 -0.3566  0.3102  0.3817
18705TIP3    H177530   2.043   3.303   0.573 -0.6755  0.3565 -0.5555
18705TIP3    H277531   2.130   3.411   0.635 -1.0952 -0.4136  1.4414
18706TIP3   OH277532   5.992   4.414   5.449 -1.1513 -0.7485  0.1609
18706TIP3    H177533   6.014   4.428   5.357 -0.5541 -1.4923  0.1756
18706TIP3    H277534   5.972   4.320   5.454 -0.5993 -0.8349  0.8941
18707TIP3   OH277535   5.738   6.089  11.480  0.3178 -0.1198 -0.2257
18707TIP3    H177536   5.653   6.059  11.514  0.7543  1.2253  2.2864
18707TIP3    H277537   5.802   6.041  11.533  1.0328  2.1371  1.0725
18708TIP3   OH277538   4.641   2.843  10.863 -0.1876 -0.3485 -0.7987
18708TIP3    H177539   4.647   2.938  10.871 -1.7342 -0.2549 -0.4049
18708TIP3    H277540   4.661   2.824  10.772  0.9497  0.2611 -0.6917
18709TIP3   OH277541   1.802   5.653   4.589  0.3151 -0.3106 -0.3590
18709TIP3    H177542   1.857   5.625   4.661  1.2277  0.5664 -0.6870
18709TIP3    H277543   1.726   5.694   4.631  0.9223  0.3498  0.1246
18710TIP3   OH277544   1.951   4.666  15.265  0.0353 -0.2442 -0.3426
18710TIP3    H177545   1.923   4.749  15.227  0.0360 -0.5196 -0.9528
18710TIP3    H277546   1.872   4.632  15.308 -0.6206 -1.0352 -2.0902
18711TIP3   OH277547   4.238   1.285   5.795  0.7567 -0.1016 -0.3534
18711TIP3    H177548   4.177   1.296   5.722 -0.7256  0.8930  0.9465
18711TIP3    H277549   4.219   1.198   5.829 -2.3091  1.2907  1.9482
18712TIP3   OH277550   1.250   3.698   3.952 -0.3760  0.0311  0.3685
18712TIP3    H177551   1.336   3.655   3.954 -0.7555 -0.7461  0.6799
18712TIP3    H277552   1.264   3.779   3.903  0.8431  0.5818  1.5395
18713TIP3   OH277553   1.578   6.465   0.925  0.0462  0.1419 -0.0664
18713TIP3    H177554   1.609   6.432   0.841  1.2337  0.3100  0.2785
18713TIP3    H277555   1.635   6.422   0.989  1.4368  2.5417  0.4343
18714TIP3   OH277556   4.921   5.496   6.008  0.0239  0.3226  0.0432
18714TIP3    H177557   4.834   5.457   6.016 -0.1037  0.6525  0.2933
18714TIP3    H277558   4.912   5.560   5.938  0.5195 -0.8512 -1.1504
18715TIP3   OH277559   5.417   1.980  11.370 -0.0970  0.0991 -1.0985
18715TIP3    H177560   5.347   1.916  11.364 -0.4079  0.2967  0.0802
18715TIP3    H277561   5.386   2.055  11.320 -2.2951  1.5055  2.0006
18716TIP3   OH277562   5.788   4.465  16.151 -0.4437  0.7644 -0.1233
18716TIP3    H177563   5.761   4.451  16.061 -2.1120  1.0219  0.2862
18716TIP3    H277564   5.811   4.378  16.184  0.1403  0.6677 -0.7798
18717TIP3   OH277565   4.510   3.412   5.715  0.1176  0.0128  0.5575
18717TIP3    H177566   4.516   3.507   5.701 -0.4888 -0.2938 -2.2815
18717TIP3    H277567   4.595   3.388   5.752  0.3177  1.6164  1.2407
18718TIP3   OH277568   2.219   4.697  11.975  0.1699  0.5531  0.1123
18718TIP3    H177569   2.199   4.771  11.918 -1.7016  0.9200  1.1339
18718TIP3    H277570   2.229   4.622  11.916 -0.7215  1.1042 -0.7639
18719TIP3   OH277571   1.062   0.626   0.067  0.0357 -0.2063  0.4037
18719TIP3    H177572   1.119   0.665   0.134  1.4254 -1.4576  0.0114
18719TIP3    H277573   0.980   0.674   0.075  0.5312  0.4503  2.2354
18720TIP3   OH277574   4.438   0.931  16.132 -0.3379  0.6062 -0.1693
18720TIP3    H177575   4.451   0.930  16.037  0.1402 -1.1038 -0.1297
18720TIP3    H277576   4.369   0.866  16.147 -0.9060  1.3710  0.6021
18721TIP3   OH277577   2.459   3.382  16.496  0.0978  0.5460  0.1478
18721TIP3    H177578   2.527   3.448  16.501 -2.1419  2.9964  0.1231
18721TIP3    H277579   2.485   3.326  16.422  1.4009  2.1548 -0.6708
18722TIP3   OH277580   5.979   5.397  15.266  0.1282 -0.2764  0.5907
18722TIP3    H177581   5.946   5.385  15.354  0.8747 -0.9757  0.7958
18722TIP3    H277582   5.954   5.317  15.220 -0.4756  0.1910  0.0917
18723TIP3   OH277583   1.185   5.334   0.498  0.0711  0.6021 -0.3193
18723TIP3    H177584   1.117   5.313   0.562  1.0061 -0.8370  0.2753
18723TIP3    H277585   1.250   5.385   0.547  0.9412 -0.7676  0.0244
18724TIP3   OH277586   4.833   1.272   4.445  0.0878  0.5662 -0.3997
18724TIP3    H177587   4.810   1.182   4.467  0.3184  0.7104  0.4363
18724TIP3    H277588   4.901   1.264   4.379 -1.0318  0.1351 -1.5521
18725TIP3   OH277589   2.584   5.164  15.253  1.3099  0.3299  0.3775
18725TIP3    H177590   2.613   5.076  15.229  0.1207  0.1361 -0.4160
18725TIP3    H277591   2.636   5.223  15.199  0.4538  0.0005 -0.8377
18726TIP3   OH277592   1.199   0.283   1.814 -0.2789 -0.2995  0.0311
18726TIP3    H177593   1.257   0.220   1.771  0.4053  0.3163  0.0389
18726TIP3    H277594   1.245   0.307   1.894  0.1024  1.2134 -0.6150
18727TIP3   OH277595   5.886   3.631  13.552  0.5934 -0.1922 -0.1934
18727TIP3    H177596   5.840   3.694  13.496 -0.2892 -0.6048  0.0470
18727TIP3    H277597   5.899   3.554  13.496  1.4876  0.1152 -0.4244
18728TIP3   OH277598   6.220   6.442  16.844 -0.0344  0.1647 -0.3839
18728TIP3    H177599   6.199   6.531  16.819 -0.5862  0.5337  1.2639
18728TIP3    H277600   6.313   6.444  16.866  0.1638  0.1159 -1.2139
18729TIP3   OH277601   4.997   3.307  12.119 -0.0760 -0.2494  0.2043
18729TIP3    H177602   4.969   3.398  12.128 -1.7854 -0.8808  2.1264
18729TIP3    H277603   4.978   3.284  12.028  1.3919  1.5746 -0.6209
18730TIP3   OH277604   1.205   2.098  13.356 -0.0982 -0.1146 -0.0930
18730TIP3    H177605   1.139   2.164  13.334 -0.8613 -0.3149  1.4857
18730TIP3    H277606   1.242   2.072  13.271  0.0126  2.0905 -0.7770
18731TIP3   OH277607   6.198   5.236   5.385 -0.0293  0.6363  0.2892
18731TIP3    H177608   6.143   5.310   5.360 -0.8856  0.4407  1.5289
18731TIP3    H277609   6.224   5.197   5.302  0.1660  2.1171 -0.3808
18732TIP3   OH277610   4.453   6.219   1.115 -0.2687  0.3265 -0.0101
18732TIP3    H177611   4.466   6.231   1.209 -1.0287  0.4333  0.0928
18732TIP3    H277612   4.374   6.270   1.096 -0.3328 -0.0012 -0.6331
18733TIP3   OH277613   0.616   3.576   5.548 -0.8069 -0.0820  0.1274
18733TIP3    H177614   0.542   3.583   5.609 -1.7736 -0.6719 -0.9134
18733TIP3    H277615   0.577   3.596   5.463  0.4584  0.4948 -0.3254
18734TIP3   OH277616   4.391   5.533   4.901 -0.6531  0.2552 -0.9593
18734TIP3    H177617   4.437   5.567   4.978 -1.1982 -0.7885 -0.1337
18734TIP3    H277618   4.384   5.607   4.842 -0.1156  1.0586 -0.0410
18735TIP3   OH277619   2.789   3.406  11.847  0.0800  0.0350  0.6379
18735TIP3    H177620   2.811   3.313  11.844 -1.1167 -0.2444 -1.4235
18735TIP3    H277621   2.704   3.412  11.803 -0.1164  2.0472  1.1932
18736TIP3   OH277622   5.269   4.902  11.706 -0.0529 -0.7093 -0.3157
18736TIP3    H177623   5.326   4.885  11.781 -0.3777 -1.0975 -0.1492
18736TIP3    H277624   5.182   4.874  11.736 -1.2103  3.5140  0.9463
18737TIP3   OH277625   3.988   2.210   5.367  0.0394  0.7648 -0.2872
18737TIP3    H177626   3.905   2.258   5.369 -0.8718 -0.7020 -1.0285
18737TIP3    H277627   4.002   2.190   5.274  0.5598 -0.1036 -0.0322
18738TIP3   OH277628   6.039   2.743  16.410 -0.0600  0.0442 -0.5646
18738TIP3    H177629   6.062   2.704  16.494  1.9122  5.0273  1.5808
18738TIP3    H277630   5.945   2.758  16.415 -0.6204 -2.7976 -0.9125
18739TIP3   OH277631   4.444   0.946   0.019  0.6899 -0.5599 -1.0299
18739TIP3    H177632   4.485   0.866  -0.015 -0.7724 -1.0686 -1.6903
18739TIP3    H277633   4.459   0.942   0.113  2.6855 -0.3831 -1.2917
18740TIP3   OH277634   0.922   0.119   5.459  0.5085  0.1147 -0.8091
18740TIP3    H177635   0.850   0.162   5.413 -1.2543 -0.6692  1.0350
18740TIP3    H277636   0.946   0.180   5.529  0.6725 -0.2360 -0.5547
18741TIP3   OH277637   3.438   0.674   3.974  0.1557  0.1932  0.1030
18741TIP3    H177638   3.424   0.764   4.006  1.4374  0.0424  1.1987
18741TIP3    H277639   3.530   0.656   3.994  0.5323 -0.6179 -2.0604
18742TIP3   OH277640   2.972   1.323  15.974 -0.2160  0.8473 -0.1198
18742TIP3    H177641   2.918   1.326  15.895  1.5120 -0.6820 -1.4541
18742TIP3    H277642   3.008   1.234  15.975  0.6372  1.1648  1.8308
18743TIP3   OH277643   3.183   3.606   1.138 -0.7794 -0.1120  0.0645
18743TIP3    H177644   3.116   3.554   1.184 -1.2210 -0.1384 -0.5870
18743TIP3    H277645   3.233   3.541   1.089  0.4701 -0.2250  1.4232
18744TIP3   OH277646   2.445   4.035   2.713  0.8778  0.6060  0.9536
18744TIP3    H177647   2.462   4.115   2.762 -2.6776  2.1767 -0.0333
18744TIP3    H277648   2.390   3.982   2.771  0.8639  0.1891  0.5712
18745TIP3   OH277649   4.435   1.267   0.132  0.4363 -0.0583 -0.0804
18745TIP3    H177650   4.497   1.196   0.116  1.3987  0.8922 -0.7224
18745TIP3    H277651   4.378   1.234   0.202  0.2583 -1.8082 -0.9875
18746TIP3   OH277652   2.112   4.554   5.496 -0.2819 -0.6177  0.2741
18746TIP3    H177653   2.087   4.636   5.539  0.6281  0.3043 -0.9132
18746TIP3    H277654   2.091   4.486   5.561 -1.3425  0.5034  1.1591
18747TIP3   OH277655   0.389   0.616  15.489 -0.1796 -0.4718  0.8310
18747TIP3    H177656   0.403   0.625  15.395 -1.1808 -1.3661  0.5781
18747TIP3    H277657   0.311   0.669  15.507  0.0056 -0.3067  1.1629
18748TIP3   OH277658   4.271   0.778  11.219  0.0597  0.3599  0.6487
18748TIP3    H177659   4.271   0.734  11.304  0.2728  0.9743  0.9734
18748TIP3    H277660   4.325   0.856  11.233  0.5012  0.2095 -0.1840
18749TIP3   OH277661   3.518   4.183   5.706 -0.4618 -0.0984  0.1920
18749TIP3    H177662   3.449   4.210   5.644 -1.7368  0.4991  1.7958
18749TIP3    H277663   3.492   4.222   5.789  0.0266 -2.6232  1.6334
18750TIP3   OH277664   6.705   2.364  16.381 -0.2525  0.4414 -0.2894
18750TIP3    H177665   6.684   2.325  16.466 -1.2475  1.2099 -0.1677
18750TIP3    H277666   6.636   2.333  16.322  1.1269 -1.1368 -1.1809
18751TIP3   OH277667   4.949   2.065  14.463  0.0516 -0.6000  0.0704
18751TIP3    H177668   4.916   2.074  14.552  1.3367 -1.4757  0.6814
18751TIP3    H277669   4.988   2.150  14.443  0.6399 -0.6926  0.7551
18752TIP3   OH277670   3.454   4.424  16.655  0.2860 -0.6972  0.2205
18752TIP3    H177671   3.475   4.476  16.732  0.4851 -0.5589  0.0756
18752TIP3    H277672   3.444   4.489  16.585 -3.7415 -0.3800  0.8614
18753TIP3   OH277673   4.284   6.628  14.243  0.3321 -0.1066 -0.0812
18753TIP3    H177674   4.293   6.557  14.180 -0.1794 -0.1202 -0.1426
18753TIP3    H277675   4.320   6.704  14.198 -0.3957 -0.0272 -0.5595
18754TIP3   OH277676   0.772   3.484   6.123 -0.3227  0.0955 -0.3529
18754TIP3    H177677   0.823   3.515   6.048  1.1886 -0.8239  0.2316
18754TIP3    H277678   0.755   3.562   6.175 -2.3398  0.9260 -2.1443
18755TIP3   OH277679   2.390   3.573  13.302  0.0252 -0.0957 -0.3502
18755TIP3    H177680   2.327   3.628  13.255 -0.8924 -1.0942 -0.3197
18755TIP3    H277681   2.381   3.600  13.393  0.6385  0.7093 -0.5146
18756TIP3   OH277682   2.738   5.021   4.926 -0.7580 -0.4187  0.1663
18756TIP3    H177683   2.764   5.013   4.834 -1.9480  1.3799 -0.3816
18756TIP3    H277684   2.691   4.939   4.944  0.8767 -1.5100 -0.2876
18757TIP3   OH277685   6.310   2.718  13.916 -0.1409  0.7013 -0.3189
18757TIP3    H177686   6.334   2.665  13.992 -1.6127 -0.1654 -0.4189
18757TIP3    H277687   6.293   2.805  13.951 -0.7862  0.3114  0.3567
18758TIP3   OH277688   6.534   2.632  15.178 -0.3960  0.2525  0.8092
18758TIP3    H177689   6.558   2.657  15.267 -0.6001 -0.1149  0.9746
18758TIP3    H277690   6.531   2.536  15.181 -2.1795  0.2695  0.8983
18759TIP3   OH277691   3.318   3.724   3.290  0.7519 -0.5049 -0.0384
18759TIP3    H177692   3.336   3.795   3.351 -0.3738 -0.4369  0.2285
18759TIP3    H277693   3.240   3.681   3.325  1.1187 -1.5507 -0.4784
18760TIP3   OH277694   5.888   4.557  12.327 -0.0857  0.2552 -0.2363
18760TIP3    H177695   5.826   4.502  12.376  0.0016 -0.8970 -1.3527
18760TIP3    H277696   5.949   4.495  12.287 -0.2256  1.1144 -1.8898
18761TIP3   OH277697   0.363   0.133   5.252  0.3306  0.2934  0.6324
18761TIP3    H177698   0.310   0.071   5.302 -0.1890  1.6856  1.9114
18761TIP3    H277699   0.451   0.124   5.287  0.4342 -0.2865  0.2337
18762TIP3   OH277700   3.473   2.328  14.805  0.0930  0.2567 -0.1762
18762TIP3    H177701   3.424   2.324  14.723  0.1505 -1.2638 -0.1636
18762TIP3    H277702   3.445   2.249  14.853  2.4196 -0.5928 -0.1073
18763TIP3   OH277703   6.421   0.046   2.140  0.1592 -0.5172 -0.1058
18763TIP3    H177704   6.467   0.117   2.184 -1.1471 -0.6516  1.5757
18763TIP3    H277705   6.331   0.076   2.133  0.3739 -0.3223 -3.1871
18764TIP3   OH277706   0.031   1.921  14.113  0.0008 -0.3589 -0.5510
18764TIP3    H177707   0.054   2.007  14.078 -1.0327  0.2420  0.2128
18764TIP3    H277708   0.059   1.860  14.044  1.4355  0.5031 -0.7825
18765TIP3   OH277709   4.181   2.050   1.823 -0.2051  0.0360  0.1897
18765TIP3    H177710   4.196   1.975   1.880  0.1779 -0.3443 -0.3992
18765TIP3    H277711   4.260   2.104   1.833 -0.1672  0.0021  0.0779
18766TIP3   OH277712   3.585   1.044  12.115 -0.3386  0.0399 -0.1135
18766TIP3    H177713   3.573   1.100  12.038  0.4998 -0.7845 -0.8777
18766TIP3    H277714   3.621   0.962  12.079 -0.3198 -0.5099  1.1138
18767TIP3   OH277715   3.997   2.708  16.838  0.2802 -0.2285 -1.0459
18767TIP3    H177716   4.036   2.682  16.754  2.1303 -1.1428  0.0478
18767TIP3    H277717   3.957   2.628  16.872 -0.7717  0.2215 -1.1616
18768TIP3   OH277718   5.002   5.305   2.859 -0.4609  0.3625 -0.0494
18768TIP3    H177719   5.095   5.307   2.883  0.4726 -1.0428 -3.0281
18768TIP3    H277720   4.974   5.396   2.863  1.5607  1.0671 -0.6765
18769TIP3   OH277721   0.948   5.394   1.500 -0.2213 -0.4044 -0.0529
18769TIP3    H177722   0.887   5.439   1.558  0.5113 -0.3525  0.7015
18769TIP3    H277723   1.022   5.371   1.557  0.8372  0.2682 -1.1209
18770TIP3   OH277724   1.206   0.773  12.821  0.5154  0.5287 -0.0123
18770TIP3    H177725   1.135   0.806  12.877 -0.4209 -1.6564  0.1667
18770TIP3    H277726   1.163   0.755  12.737  1.0787  0.1321 -0.2198
18771TIP3   OH277727   0.534   4.776   3.502 -0.8532 -0.2148 -0.2182
18771TIP3    H177728   0.581   4.696   3.524  0.7475  0.6160 -0.4918
18771TIP3    H277729   0.499   4.760   3.414  2.1325  0.4533 -1.6543
18772TIP3   OH277730   2.404   0.987   4.712  0.1640 -0.6642  0.3910
18772TIP3    H177731   2.406   0.997   4.617 -0.6467  1.3056  0.5256
18772TIP3    H277732   2.496   0.989   4.738  0.3999  3.4845 -0.0569
18773TIP3   OH277733   5.234   3.262  16.571 -0.8143  0.4020 -0.0190
18773TIP3    H177734   5.297   3.331  16.593  0.9621 -0.9746 -0.5743
18773TIP3    H277735   5.214   3.277  16.478 -1.7559  1.1331  0.2760
18774TIP3   OH277736   5.103   1.875  15.749  0.2323 -0.2060 -0.1712
18774TIP3    H177737   5.101   1.931  15.671 -1.5834  0.4656  0.2874
18774TIP3    H277738   5.123   1.934  15.821 -0.5122 -0.3399  0.1626
18775TIP3   OH277739   6.545   0.318  14.677 -0.1153 -0.3241 -0.0903
18775TIP3    H177740   6.483   0.244  14.678 -0.5358 -0.0420 -1.9433
18775TIP3    H277741   6.496   0.391  14.715 -0.3251 -0.5306  0.0404
18776TIP3   OH277742   2.358   0.358  12.462  0.7873 -0.0561 -0.8976
18776TIP3    H177743   2.295   0.335  12.529  1.2196 -1.1136 -0.8288
18776TIP3    H277744   2.407   0.431  12.499  1.6936 -1.2581  0.3994
18777TIP3   OH277745   5.434   1.913  12.527  0.2283 -0.1819  0.2945
18777TIP3    H177746   5.345   1.877  12.531 -0.3138  1.0047 -0.4327
18777TIP3    H277747   5.491   1.837  12.533 -0.7832 -0.8565  2.4689
18778TIP3   OH277748   3.979   0.080   1.715  0.3039 -0.2247  0.1098
18778TIP3    H177749   3.911   0.117   1.772 -0.2620  0.2137 -0.8285
18778TIP3    H277750   3.971  -0.015   1.727  0.1028 -0.1426  0.6505
18779TIP3   OH277751   3.382   5.989   1.960 -0.0522  0.4240  0.3149
18779TIP3    H177752   3.382   5.897   1.985 -0.8855  0.5402  0.7380
18779TIP3    H277753   3.291   6.016   1.966  0.3638  1.6567  1.5837
18780TIP3   OH277754   2.420   0.071   5.050  0.1244  0.1243 -0.7036
18780TIP3    H177755   2.396   0.148   5.101 -1.3912  0.8443 -2.4118
18780TIP3    H277756   2.365   0.075   4.972 -0.1798 -2.8116 -0.7728
18781TIP3   OH277757   1.805   6.003   2.657 -0.1933 -0.0926 -0.0118
18781TIP3    H177758   1.884   6.053   2.679 -1.2005  2.0925 -1.1044
18781TIP3    H277759   1.836   5.933   2.599  1.0354  0.2158  0.2442
18782TIP3   OH277760   4.598   6.451  16.936  0.5926  0.1736 -0.3763
18782TIP3    H177761   4.550   6.372  16.911  0.5589 -0.2365  0.9243
18782TIP3    H277762   4.532   6.506  16.979  1.4380 -0.8613  2.4278
18783TIP3   OH277763   1.318   3.784   5.947  0.0900 -0.0488  0.3233
18783TIP3    H177764   1.301   3.691   5.933 -1.3190  0.3859 -1.1860
18783TIP3    H277765   1.319   3.794   6.042 -2.8926 -1.1364  0.5611
18784TIP3   OH277766   3.622   5.915  13.351 -0.1027  0.2497 -0.3442
18784TIP3    H177767   3.658   5.833  13.385  2.6501  1.1560 -0.7943
18784TIP3    H277768   3.569   5.889  13.276 -1.0351 -1.2512  0.7905
18785TIP3   OH277769   0.600   0.031  13.239 -0.0146  0.1394  0.3434
18785TIP3    H177770   0.506   0.011  13.232  0.2873 -0.9119 -1.4953
18785TIP3    H277771   0.643  -0.047  13.203  1.4560  1.7120 -1.5025
18786TIP3   OH277772   3.892   1.453   6.268 -0.2790  0.0213 -0.8005
18786TIP3    H177773   3.799   1.451   6.290 -0.5494  1.1861 -1.7452
18786TIP3    H277774   3.930   1.515   6.330 -0.2888  0.1740 -0.9458
18787TIP3   OH277775   2.819   4.360  16.428  0.1045 -0.0439  0.5097
18787TIP3    H177776   2.903   4.322  16.401  0.1622 -0.7946  1.6698
18787TIP3    H277777   2.838   4.453  16.440  0.5007 -0.0147 -0.2635
18788TIP3   OH277778   6.173   3.500  13.254  0.1756  0.2300 -0.4764
18788TIP3    H177779   6.111   3.467  13.319  0.3768  0.1449 -0.3259
18788TIP3    H277780   6.250   3.444  13.263  0.0034 -0.1285 -1.1627
18789TIP3   OH277781   1.878   5.077   5.010  0.6299  0.1244  0.2028
18789TIP3    H177782   1.807   5.117   5.061 -0.9270  0.6317 -2.1971
18789TIP3    H277783   1.884   5.131   4.932  1.9195 -1.4417 -0.8346
18790TIP3   OH277784   4.038   6.073   2.898 -0.4139  0.7358  0.1074
18790TIP3    H177785   3.945   6.058   2.883 -0.6441  1.8923  0.3172
18790TIP3    H277786   4.066   6.123   2.821  0.0269  0.4459  0.0762
18791TIP3   OH277787   2.913   4.653  16.385  0.1280  0.0263 -0.3099
18791TIP3    H177788   3.004   4.659  16.355 -0.3919  0.0144 -2.0377
18791TIP3    H277789   2.862   4.644  16.304 -1.2884 -1.6166  0.6948
18792TIP3   OH277790   0.993   2.250  15.458 -0.0206 -0.2141 -0.3204
18792TIP3    H177791   1.017   2.167  15.500 -0.5902 -0.5641 -0.6730
18792TIP3    H277792   0.920   2.283  15.510 -1.1477 -0.9608 -1.3629
18793TIP3   OH277793   2.977   1.752  11.165 -0.3758 -0.0206 -0.5319
18793TIP3    H177794   2.983   1.739  11.259 -0.9619 -0.6373 -0.5697
18793TIP3    H277795   3.032   1.683  11.127  1.6221  1.5270 -0.6213
18794TIP3   OH277796   3.228   4.561  14.719 -0.1234  0.1075 -0.1780
18794TIP3    H177797   3.274   4.637  14.753  1.7676 -1.2161  0.3457
18794TIP3    H277798   3.284   4.528  14.649 -0.1384 -1.6589  0.6007
18795TIP3   OH277799   4.312   5.412  13.726 -0.0239 -0.2359 -0.2250
18795TIP3    H177800   4.341   5.339  13.781 -1.0070  0.1466  0.8595
18795TIP3    H277801   4.381   5.423  13.661  1.3599 -0.5008  1.1370
18796TIP3   OH277802   2.650   2.674   3.944 -0.4073  0.4102  0.2831
18796TIP3    H177803   2.690   2.673   4.031  0.8656 -0.9869 -0.2610
18796TIP3    H277804   2.573   2.619   3.952 -0.8465  1.0829  0.7514
18797TIP3   OH277805   6.425   4.386  13.864 -0.3576 -0.4648  0.7200
18797TIP3    H177806   6.513   4.350  13.877  0.7537  0.7643 -2.3916
18797TIP3    H277807   6.376   4.315  13.822  0.5597  0.1479 -1.5376
18798TIP3   OH277808   0.560   0.873   4.000 -0.0700 -0.4463 -0.4083
18798TIP3    H177809   0.523   0.959   3.982 -1.0828 -0.4140  1.5150
18798TIP3    H277810   0.519   0.815   3.937  0.9034  0.4962 -1.9703
18799TIP3   OH277811   1.339   0.948  14.990 -0.5552 -0.6201  0.0417
18799TIP3    H177812   1.325   1.008  15.063 -1.9443 -0.8062 -0.0447
18799TIP3    H277813   1.396   0.879  15.027 -0.6743 -0.3526  0.7415
18800TIP3   OH277814   4.336   0.215   2.377 -0.4939 -0.1505  0.1582
18800TIP3    H177815   4.291   0.158   2.314 -0.5378  0.6082 -0.5080
18800TIP3    H277816   4.360   0.156   2.448 -0.1027 -1.1068 -0.7310
18801TIP3   OH277817   6.188   1.829   4.172 -0.6479  0.6358 -0.0140
18801TIP3    H177818   6.109   1.785   4.142 -0.5001 -0.0411  0.5731
18801TIP3    H277819   6.212   1.887   4.099 -0.3445 -0.8914 -1.1793
18802TIP3   OH277820   5.592   6.670   1.341  0.0205  0.0140 -0.5323
18802TIP3    H177821   5.630   6.684   1.255  2.4590  1.4398  0.6659
18802TIP3    H277822   5.516   6.729   1.345 -0.9854 -1.1090 -2.1330
18803TIP3   OH277823   1.624   0.485   0.614 -0.2443 -0.7503 -0.4569
18803TIP3    H177824   1.704   0.522   0.577 -0.1601  0.7331  1.0799
18803TIP3    H277825   1.646   0.394   0.635  0.9519 -0.4385 -0.3349
18804TIP3   OH277826   5.906   5.337   4.525  0.0690 -0.1650 -0.5489
18804TIP3    H177827   5.819   5.299   4.537  0.6746 -1.2395  0.6274
18804TIP3    H277828   5.944   5.340   4.613  2.6529 -3.2503 -1.3525
18805TIP3   OH277829   6.591   1.383  11.465 -0.6236  0.0551 -0.0507
18805TIP3    H177830   6.537   1.342  11.533 -0.2691 -2.7263 -1.3114
18805TIP3    H277831   6.576   1.330  11.387  3.1304 -0.3444 -0.7098
18806TIP3   OH277832   5.044   4.356  14.240  0.4954  0.3059  0.5408
18806TIP3    H177833   5.106   4.339  14.311  0.2219  0.7349  0.8910
18806TIP3    H277834   5.098   4.372  14.164  0.9610  2.9904  1.3220
18807TIP3   OH277835   4.310   6.377  11.218 -0.1603  0.5425  0.0408
18807TIP3    H177836   4.248   6.367  11.146  1.2693 -1.1793 -1.0573
18807TIP3    H277837   4.370   6.302  11.208  0.7377  0.8685  2.3846
18808TIP3   OH277838   0.864   5.056  12.123 -0.4005 -0.1335  0.6001
18808TIP3    H177839   0.772   5.058  12.151 -0.0910 -0.5066  1.7165
18808TIP3    H277840   0.864   5.005  12.042 -1.1897 -0.0092  0.5180
18809TIP3   OH277841   2.695   5.449  11.748  0.2070 -0.2356  0.3071
18809TIP3    H177842   2.783   5.489  11.746 -0.1377  0.5793  0.7793
18809TIP3    H277843   2.704   5.370  11.696  1.0423  0.2286 -0.2895
18810TIP3   OH277844   0.547   5.446   4.924  0.2232  0.0071 -0.4782
18810TIP3    H177845   0.519   5.537   4.918 -1.0945 -0.4598 -2.0038
18810TIP3    H277846   0.613   5.436   4.855  0.7788 -0.0785  0.0507
18811TIP3   OH277847   2.851   0.024  11.962 -0.4913 -0.7932 -0.2837
18811TIP3    H177848   2.932   0.031  12.012 -0.0118  1.2271 -1.2481
18811TIP3    H277849   2.790  -0.022  12.020  0.5249  0.0517  1.5083
18812TIP3   OH277850   2.750   5.912  16.464 -0.0049 -0.0165  0.5381
18812TIP3    H177851   2.835   5.884  16.429 -0.3624  1.2272 -1.4860
18812TIP3    H277852   2.772   5.968  16.539  0.9107 -0.3798  0.5518
18813TIP3   OH277853   6.230   3.807  14.657 -0.0063  0.5306  0.1482
18813TIP3    H177854   6.179   3.887  14.643 -0.3460  0.0024 -1.9485
18813TIP3    H277855   6.312   3.823  14.610  0.1452 -0.1444  0.1757
18814TIP3   OH277856   5.058   1.480   1.633 -0.3475  0.3268 -0.5029
18814TIP3    H177857   5.133   1.539   1.627 -0.2233  0.6351  2.5405
18814TIP3    H277858   4.986   1.534   1.665 -0.1583 -1.0472  2.6384
18815TIP3   OH277859   2.246   5.975  13.512 -0.7233  0.3131  0.3863
18815TIP3    H177860   2.319   6.030  13.544  1.5275 -0.4971 -2.8915
18815TIP3    H277861   2.197   6.032  13.453 -0.5544 -0.1728 -0.2272
18816TIP3   OH277862   4.695   5.439   4.723  0.4198  0.2610  0.4410
18816TIP3    H177863   4.735   5.379   4.660  0.4253  0.6112  0.1121
18816TIP3    H277864   4.747   5.427   4.803  1.3776  0.9319 -0.0684
18817TIP3   OH277865   5.939   4.249  16.149  0.0872  0.4312  0.2145
18817TIP3    H177866   5.947   4.165  16.195 -1.1551  0.3664  0.3578
18817TIP3    H277867   6.026   4.265  16.114 -0.3254 -2.5554 -2.6656
18818TIP3   OH277868   6.089   5.050   4.063  0.3999  0.2237  0.5115
18818TIP3    H177869   6.141   5.058   3.984 -0.8818 -1.3165 -0.5423
18818TIP3    H277870   6.145   5.002   4.124  0.6103 -0.4816 -0.2286
18819TIP3   OH277871   0.242   5.583  16.718  0.1699 -0.0853 -0.0379
18819TIP3    H177872   0.162   5.632  16.701  0.8781  1.5578  1.1073
18819TIP3    H277873   0.308   5.650  16.735  1.6766 -1.4054 -0.4102
18820TIP3   OH277874   0.591   6.198  12.594 -0.0743  0.2427  0.0745
18820TIP3    H177875   0.652   6.260  12.633  0.4159  0.6182 -1.2427
18820TIP3    H277876   0.607   6.115  12.640 -0.8155  1.0651  1.9361
18821TIP3   OH277877   3.018   4.413  16.714  0.5321 -0.1780 -0.0833
18821TIP3    H177878   3.059   4.328  16.698  2.6611  0.4411  1.6150
18821TIP3    H277879   2.997   4.446  16.626  0.0406 -2.2172 -0.7932
18822TIP3   OH277880   3.806   3.712  15.487 -0.0939 -0.0057  0.5063
18822TIP3    H177881   3.833   3.801  15.468  2.6646 -1.0413 -1.0268
18822TIP3    H277882   3.818   3.703  15.582 -0.4336  1.2120  0.6829
18823TIP3   OH277883   3.749   2.596   4.924  0.1614  0.0404 -0.0727
18823TIP3    H177884   3.793   2.532   4.869 -0.2731 -0.8905  0.6461
18823TIP3    H277885   3.814   2.666   4.935  1.2788 -1.0645  0.5501
18824TIP3   OH277886   1.767   5.045   4.341 -0.7918  0.2753  0.0691
18824TIP3    H177887   1.791   5.074   4.429 -0.5475 -1.7203  0.7154
18824TIP3    H277888   1.850   5.040   4.294 -0.6041 -0.8685  0.4731
18825TIP3   OH277889   3.589   3.578   2.758 -0.1371  0.2677 -0.0858
18825TIP3    H177890   3.498   3.584   2.788  0.3736 -0.8066  1.8249
18825TIP3    H277891   3.587   3.514   2.687 -1.1518  1.7561 -1.4584
18826TIP3   OH277892   3.830   3.225  15.663 -0.0434 -0.0021  0.7827
18826TIP3    H177893   3.866   3.304  15.703  0.7588 -0.6696  1.4137
18826TIP3    H277894   3.737   3.246  15.648  0.2193  1.1543  0.6619
18827TIP3   OH277895   5.937   3.978   0.839  0.0904 -0.0082  0.8505
18827TIP3    H177896   6.010   3.965   0.777  0.0826 -0.6392  0.9610
18827TIP3    H277897   5.919   4.071   0.835 -0.3076 -0.1124 -0.5695
18828TIP3   OH277898   2.817   2.649   1.219  0.3411  0.3195 -0.7653
18828TIP3    H177899   2.908   2.628   1.196  0.1546  0.9711 -2.2385
18828TIP3    H277900   2.798   2.729   1.169 -1.2211 -0.1237 -0.9312
18829TIP3   OH277901   2.071   2.967  12.489  0.0783  0.3010 -0.1371
18829TIP3    H177902   2.041   3.011  12.569  0.3690  2.9281 -1.3909
18829TIP3    H277903   2.164   2.948  12.506 -0.4123 -1.3495  0.9955
18830TIP3   OH277904   5.707   3.711  11.212  0.1486  0.0386  0.2615
18830TIP3    H177905   5.642   3.760  11.162 -0.5806 -1.1426 -0.0132
18830TIP3    H277906   5.692   3.620  11.186  0.0468 -0.5700  2.2964
18831TIP3   OH277907   5.153   3.386  15.928  0.5237  0.0268 -0.3360
18831TIP3    H177908   5.198   3.317  15.879  0.6572 -0.6885  0.7560
18831TIP3    H277909   5.098   3.339  15.991  1.0717  0.8965  0.8410
18832TIP3   OH277910   3.041   0.391   2.069 -0.0686 -0.2788 -0.0912
18832TIP3    H177911   3.030   0.486   2.070  1.2539 -0.1018  0.5378
18832TIP3    H277912   3.088   0.372   2.151  0.6212 -1.3366 -0.7137
18833TIP3   OH277913   5.311   3.856   3.508 -0.0916  0.2177  0.4132
18833TIP3    H177914   5.327   3.775   3.557 -0.8176  0.2021  0.6342
18833TIP3    H277915   5.353   3.842   3.424 -0.9929 -0.7542  0.1139
18834TIP3   OH277916   1.300   1.309   3.222  0.0970  0.0841 -0.2729
18834TIP3    H177917   1.209   1.280   3.230  0.4279 -0.8849  0.0784
18834TIP3    H277918   1.337   1.252   3.155  0.8090 -0.4523  0.5602
18835TIP3   OH277919   2.265   3.220  11.591  0.5494 -0.0898  0.0393
18835TIP3    H177920   2.222   3.200  11.508 -1.9465 -0.3634  1.2976
18835TIP3    H277921   2.302   3.136  11.619 -0.4541 -0.5096  0.1639
18836TIP3   OH277922   2.201   4.218   2.003 -0.0604  0.1256 -0.2819
18836TIP3    H177923   2.143   4.266   1.944  0.4049 -1.2388 -1.9412
18836TIP3    H277924   2.142   4.170   2.062 -0.5770  0.1666 -0.7646
18837TIP3   OH277925   0.296   5.972  15.809  0.5025  0.5968 -0.2154
18837TIP3    H177926   0.238   6.047  15.795 -1.0232 -0.6996 -1.0000
18837TIP3    H277927   0.312   5.972  15.904  0.3355  1.7398 -0.1656
18838TIP3   OH277928   6.572   1.056  13.387 -0.2542  0.4835  0.7598
18838TIP3    H177929   6.652   1.040  13.437  0.8600 -0.1105 -1.0759
18838TIP3    H277930   6.512   0.986  13.414  0.9315 -0.8470  0.0866
18839TIP3   OH277931   3.948   5.344  15.155  0.4752  0.4568  0.1570
18839TIP3    H177932   3.872   5.338  15.096  0.3253  0.6947  0.3276
18839TIP3    H277933   3.964   5.438  15.164  0.1881  0.4439  0.8941
18840TIP3   OH277934   1.880   0.437   0.245 -0.0340  0.0848  0.2975
18840TIP3    H177935   1.858   0.530   0.249 -1.0553  0.0314 -2.2595
18840TIP3    H277936   1.939   0.423   0.319  0.7797  2.9290  0.2916
18841TIP3   OH277937   4.306   1.289  14.464 -0.2001  0.0926  0.0237
18841TIP3    H177938   4.307   1.210  14.410 -0.6576  0.3477 -0.3661
18841TIP3    H277939   4.373   1.274  14.530  0.5033 -0.1445 -0.7378
18842TIP3   OH277940   4.825   3.438  16.604  0.2126  0.1929 -0.6300
18842TIP3    H177941   4.871   3.358  16.629  2.0441  1.8699  1.9380
18842TIP3    H277942   4.733   3.412  16.596  0.6822 -2.0690  0.4783
18843TIP3   OH277943   3.365   3.122   4.089 -0.1399 -0.6493  0.1625
18843TIP3    H177944   3.441   3.129   4.147 -0.3261  0.4867  0.2808
18843TIP3    H277945   3.397   3.072   4.014  0.1541 -1.9874  1.1294
18844TIP3   OH277946   4.828   4.119  14.943  0.2420 -0.0820 -0.3431
18844TIP3    H177947   4.795   4.034  14.916  0.6808 -0.4013  0.0942
18844TIP3    H277948   4.750   4.173  14.953 -0.1736 -0.8390  0.7467
18845TIP3   OH277949   2.426   5.426   1.815 -0.0229 -0.2995 -0.1034
18845TIP3    H177950   2.376   5.503   1.844 -2.3232 -1.1892 -1.4546
18845TIP3    H277951   2.427   5.369   1.892  1.6960  0.9906  0.9104
18846TIP3   OH277952   2.460   1.440   4.673 -0.3835 -0.0374 -0.0808
18846TIP3    H177953   2.495   1.352   4.663 -1.4111 -0.4302 -0.3300
18846TIP3    H277954   2.372   1.436   4.637  0.0594  1.4729 -1.4559
18847TIP3   OH277955   6.294   3.602   3.593 -0.2081  0.1876 -0.1243
18847TIP3    H177956   6.337   3.549   3.526 -0.4086 -0.0642 -0.0542
18847TIP3    H277957   6.281   3.541   3.666  0.2966  0.5371  0.2635
18848TIP3   OH277958   2.407   6.482   0.931  0.0021 -0.3009 -0.2873
18848TIP3    H177959   2.375   6.402   0.973 -1.5838  0.5109  0.1096
18848TIP3    H277960   2.437   6.453   0.845 -0.6212 -1.3175 -0.1874
18849TIP3   OH277961   0.371   1.647  12.535 -0.0711  0.3283  0.0516
18849TIP3    H177962   0.402   1.579  12.595  1.8340  1.7804  0.8275
18849TIP3    H277963   0.301   1.691  12.583 -1.1813 -0.9115 -0.3775
18850TIP3   OH277964   3.761   0.230   0.679  0.3164 -0.2153  0.0055
18850TIP3    H177965   3.846   0.274   0.678  0.3006 -0.1834 -0.7219
18850TIP3    H277966   3.730   0.236   0.589  0.8576 -2.7295 -0.4387
18851TIP3   OH277967   0.168   1.132   2.858 -0.1345  0.1538 -0.4306
18851TIP3    H177968   0.220   1.062   2.896 -0.2262  0.5426  0.4206
18851TIP3    H277969   0.154   1.194   2.929  1.6622  2.0882 -1.6454
18852TIP3   OH277970   2.288   2.004  16.347 -0.0355  0.4143 -0.0950
18852TIP3    H177971   2.235   2.082  16.334 -0.7354 -0.1294 -0.5313
18852TIP3    H277972   2.278   1.953  16.266 -0.8980 -0.9013  0.7956
18853TIP3   OH277973   0.614   1.683  16.732  0.2781  0.0752  0.3680
18853TIP3    H177974   0.598   1.744  16.660 -0.4688  1.5643  1.7415
18853TIP3    H277975   0.527   1.650  16.755  0.4626 -0.0383  0.8995
18854TIP3   OH277976   0.947   0.312  16.379 -0.1886  0.4588  0.4012
18854TIP3    H177977   0.890   0.378  16.341 -1.1523  0.2678  1.4705
18854TIP3    H277978   0.887   0.246  16.416  0.6832  0.5549  2.0837
18855TIP3   OH277979   5.504   0.187  11.672  0.4220  0.2143 -0.7548
18855TIP3    H177980   5.511   0.111  11.730  1.3765  2.0969  1.7604
18855TIP3    H277981   5.590   0.193  11.630  0.2934 -0.1524 -1.0814
18856TIP3   OH277982   3.431   2.150   4.914  0.4633  0.7322  0.2426
18856TIP3    H177983   3.401   2.239   4.927  1.8257  0.8940  2.9635
18856TIP3    H277984   3.363   2.095   4.953  0.0535  0.6079 -0.6248
18857TIP3   OH277985   4.225   0.498   1.473  0.0433 -0.3358 -0.4535
18857TIP3    H177986   4.291   0.555   1.511  0.0677  0.6190 -1.8322
18857TIP3    H277987   4.168   0.558   1.423 -1.0285 -1.3030 -0.4344
18858TIP3   OH277988   3.040   3.487  16.241 -0.5649 -0.0364  0.2709
18858TIP3    H177989   3.125   3.526  16.258 -0.4234  0.0478 -0.5926
18858TIP3    H277990   3.025   3.429  16.315  0.4953 -0.4660  0.1707
18859TIP3   OH277991   2.936   3.351  16.802 -0.2202  0.2058  0.1843
18859TIP3    H177992   2.922   3.424  16.862 -1.4057  0.1173  0.0381
18859TIP3    H277993   2.984   3.389  16.728  1.7875  0.1939  1.4145
18860TIP3   OH277994   5.827   0.992  10.681  0.3843 -0.2141 -0.4272
18860TIP3    H177995   5.923   0.991  10.674  0.3004 -0.3313 -1.8673
18860TIP3    H277996   5.802   0.900  10.685  0.2237 -0.3159 -2.5300
18861TIP3   OH277997   6.212   5.921   0.227 -0.3127 -0.4991 -0.7281
18861TIP3    H177998   6.237   5.866   0.152  1.2208  0.8171 -1.2436
18861TIP3    H277999   6.267   5.890   0.299 -0.0832 -0.2429 -0.7886
18862TIP3   OH278000   3.858   2.056  11.628 -0.5046 -0.7963 -0.2358
18862TIP3    H178001   3.923   2.112  11.584 -1.2140  0.0272 -0.2693
18862TIP3    H278002   3.789   2.044  11.562  0.0952 -2.5604 -0.5792
18863TIP3   OH278003   4.792   4.382  12.795  0.0003 -0.1651  0.2398
18863TIP3    H178004   4.752   4.469  12.796  1.9010  0.8018 -0.9718
18863TIP3    H278005   4.862   4.387  12.860 -0.9944 -1.4424  1.4859
18864TIP3   OH278006   5.173   2.120  13.027 -1.3673 -0.0821  0.3921
18864TIP3    H178007   5.082   2.145  13.011 -1.3219 -0.4456 -0.5174
18864TIP3    H278008   5.205   2.091  12.941  0.2456  1.9983  0.2219
18865TIP3   OH278009   0.988   3.569   5.669 -0.6543  0.0401 -0.1627
18865TIP3    H178010   1.043   3.643   5.642  0.6284 -0.6016  0.5800
18865TIP3    H278011   1.028   3.493   5.626 -0.4798 -0.5434  0.9889
18866TIP3   OH278012   6.299   3.364   3.009 -0.1989  0.2733 -0.1798
18866TIP3    H178013   6.318   3.397   2.921  0.3443  2.2179  0.6096
18866TIP3    H278014   6.381   3.377   3.057 -0.7055 -0.1096  0.8011
18867TIP3   OH278015   5.357   5.262   3.663 -0.3463  0.2513  0.1874
18867TIP3    H178016   5.348   5.229   3.574 -0.0654  1.6644 -0.3896
18867TIP3    H278017   5.427   5.209   3.701  0.3442  0.4159 -0.8203
18868TIP3   OH278018   6.122   0.180   3.643  0.3701 -0.0770  0.1110
18868TIP3    H178019   6.078   0.145   3.720  0.0947  0.8912  0.4121
18868TIP3    H278020   6.196   0.230   3.678  2.5359 -2.6508 -0.4219
18869TIP3   OH278021   2.723   3.364  12.989 -0.2401  0.0823  0.2710
18869TIP3    H178022   2.643   3.415  12.979 -1.6700 -2.1705 -0.5475
18869TIP3    H278023   2.711   3.317  13.072 -0.2850 -1.0869 -0.3838
18870TIP3   OH278024   5.669   0.374   1.348  0.5370 -0.1199 -0.1718
18870TIP3    H178025   5.652   0.380   1.442 -0.0618  0.4428 -0.3109
18870TIP3    H278026   5.651   0.283   1.326 -0.2220 -0.0383  0.0908
18871TIP3   OH278027   6.472   1.519  16.634 -0.0326  0.5437 -0.4490
18871TIP3    H178028   6.427   1.554  16.711 -2.3486 -0.6184 -1.1868
18871TIP3    H278029   6.492   1.597  16.581  0.0310  1.1950  0.4947
18872TIP3   OH278030   3.588   2.183   0.397 -0.1739 -0.0047 -0.0009
18872TIP3    H178031   3.536   2.118   0.350  0.0213 -0.1640  0.0005
18872TIP3    H278032   3.524   2.234   0.447 -0.3400 -0.1100 -0.1063
18873TIP3   OH278033   6.529   6.287  12.303  0.5862  0.0639  0.3305
18873TIP3    H178034   6.567   6.320  12.385 -3.4661  0.8240  2.1495
18873TIP3    H278035   6.579   6.208  12.284  2.4034  0.4356  2.9060
18874TIP3   OH278036   4.348   5.060  11.053  0.1236  0.6687  0.3759
18874TIP3    H178037   4.376   4.973  11.023 -0.8785 -0.6922  2.9868
18874TIP3    H278038   4.335   5.110  10.973  1.4058 -1.3727 -1.2142
18875TIP3   OH278039   5.984   4.865  13.068 -0.1780 -0.7561 -0.1794
18875TIP3    H178040   6.013   4.943  13.115  1.3356 -1.4871  0.1717
18875TIP3    H278041   6.061   4.836  13.020 -0.6337 -2.1648 -0.1127
18876TIP3   OH278042   0.356   6.205   5.637  0.4144 -0.3506 -0.1505
18876TIP3    H178043   0.277   6.156   5.657 -0.3193  0.6848 -0.4105
18876TIP3    H278044   0.368   6.263   5.713  2.6340 -2.5038  1.3140
18877TIP3   OH278045   0.525   6.361  14.147  0.9038 -0.1278  0.0277
18877TIP3    H178046   0.567   6.447  14.140 -0.3593  0.3494 -3.4876
18877TIP3    H278047   0.448   6.376  14.202  0.7935  0.9607 -0.4015
18878TIP3   OH278048   1.972   2.337   6.222 -0.2181  0.9106 -0.0861
18878TIP3    H178049   2.030   2.261   6.221 -1.4978 -0.1122  0.3441
18878TIP3    H278050   1.996   2.385   6.301  0.2063  0.6397 -0.0467
18879TIP3   OH278051   5.133   6.613  11.217  0.3216  0.5968 -0.4429
18879TIP3    H178052   5.163   6.614  11.308 -1.6582 -0.5648  0.2782
18879TIP3    H278053   5.048   6.656  11.220  0.4134  0.9082 -1.8362
18880TIP3   OH278054   0.665   6.574   0.766  0.4997  0.5234 -0.0926
18880TIP3    H178055   0.725   6.628   0.818 -1.1490  2.1275  0.2172
18880TIP3    H278056   0.578   6.609   0.785 -0.5305 -1.5049 -0.8128
18881TIP3   OH278057   1.109   3.919   5.191  0.1188  0.4980 -0.6789
18881TIP3    H178058   1.113   3.886   5.281 -0.2943 -1.3783 -1.3136
18881TIP3    H278059   1.017   3.907   5.165  0.4142  0.2371 -1.6314
18882TIP3   OH278060   0.184   0.020  16.191 -0.2377  0.4656  0.2817
18882TIP3    H178061   0.229   0.097  16.157  0.4227 -0.3156 -0.6622
18882TIP3    H278062   0.091   0.040  16.183 -0.1320  2.1119  2.2649
18883TIP3   OH278063   2.120   6.051   1.014  0.1727  0.0923 -0.5144
18883TIP3    H178064   2.080   5.988   1.074  1.8240  1.1213  1.8310
18883TIP3    H278065   2.048   6.077   0.956 -0.9021 -2.8177 -0.6743
18884TIP3   OH278066   6.199   6.389   4.127 -0.4933  0.3460 -0.2118
18884TIP3    H178067   6.179   6.482   4.136 -0.8883  0.3646 -1.1348
18884TIP3    H278068   6.153   6.347   4.200  0.0135  0.9074  0.4412
18885TIP3   OH278069   5.871   1.119  16.158 -0.1036 -0.4456  0.1869
18885TIP3    H178070   5.911   1.110  16.245 -3.1781  0.0020  1.7672
18885TIP3    H278071   5.874   1.213  16.140  0.5028 -0.5345 -0.2280
18886TIP3   OH278072   0.709   3.938   4.121 -0.2128 -0.1750 -0.1052
18886TIP3    H178073   0.751   3.875   4.062  1.7405  0.2178  0.7830
18886TIP3    H278074   0.669   3.884   4.189 -1.1121 -0.5569 -0.9204
18887TIP3   OH278075   2.469   2.404   4.396 -0.1779 -0.4714 -0.1938
18887TIP3    H178076   2.375   2.421   4.406  0.0771  0.2970  1.2809
18887TIP3    H278077   2.492   2.354   4.474  0.7717  0.0025 -0.1528
18888TIP3   OH278078   4.730   2.843  12.318 -0.3188 -0.2987 -0.1595
18888TIP3    H178079   4.653   2.895  12.297 -0.4689 -0.3204  0.3216
18888TIP3    H278080   4.749   2.864  12.410  1.3796  1.1765 -0.7830
18889TIP3   OH278081   1.710   4.792  12.499 -0.5179  0.0059 -0.3386
18889TIP3    H178082   1.682   4.798  12.590  1.9784 -1.5263  0.6447
18889TIP3    H278083   1.804   4.815  12.502 -0.5928  0.9268 -2.7049
18890TIP3   OH278084   0.542   2.523   4.530  0.2246 -0.5008  0.4313
18890TIP3    H178085   0.555   2.525   4.625  1.0090 -1.4493  0.3587
18890TIP3    H278086   0.458   2.479   4.519 -0.1603  0.1530  0.6991
18891TIP3   OH278087   5.760   4.544   6.535 -0.0233  0.0669 -0.2977
18891TIP3    H178088   5.717   4.622   6.568 -0.5862  0.0509 -0.9806
18891TIP3    H278089   5.736   4.475   6.597  0.6052  0.4519  0.3951
18892TIP3   OH278090   1.158   2.364   4.517  0.2343  0.3090  0.5550
18892TIP3    H178091   1.252   2.355   4.532  0.3417 -0.6174 -0.5649
18892TIP3    H278092   1.118   2.328   4.596  0.8069  0.4690  0.9272
18893TIP3   OH278093   3.547   5.461   1.873 -0.0004 -0.2235  0.0958
18893TIP3    H178094   3.553   5.368   1.892  0.6435 -0.1637  0.1984
18893TIP3    H278095   3.473   5.491   1.926 -0.2880 -0.6984 -0.0339
18894TIP3   OH278096   2.132   5.018   0.322  0.4266  0.2537  0.2446
18894TIP3    H178097   2.187   4.940   0.324 -0.8856 -0.6839  0.8363
18894TIP3    H278098   2.163   5.071   0.395  0.7086 -0.1470  0.4180
18895TIP3   OH278099   0.307   3.724   4.204 -0.0308 -0.0907 -0.0436
18895TIP3    H178100   0.301   3.778   4.126  2.0627 -0.7676 -0.7403
18895TIP3    H278101   0.299   3.634   4.172 -0.1286 -0.3406  0.6551
18896TIP3   OH278102   5.615   6.097  13.643 -0.6953 -0.0595  0.4502
18896TIP3    H178103   5.560   6.173  13.661 -0.2812  0.1159  1.0015
18896TIP3    H278104   5.559   6.038  13.592 -0.5198  1.2718 -1.3620
18897TIP3   OH278105   0.831   5.240   1.956  0.1152  0.6141  0.3527
18897TIP3    H178106   0.898   5.303   1.930  2.1172 -0.4431  2.5035
18897TIP3    H278107   0.780   5.285   2.024 -0.8979  1.1493 -0.7365
18898TIP3   OH278108   3.929   6.054   1.383  0.5379  0.1743 -0.3865
18898TIP3    H178109   3.894   6.017   1.463 -0.3168  1.1056 -0.3042
18898TIP3    H278110   3.857   6.047   1.320  0.1489  2.0830 -0.2264
18899TIP3   OH278111   6.728   3.319   5.238  0.1792  0.1366  0.5170
18899TIP3    H178112   6.792   3.389   5.222  0.3670 -0.1560 -0.0632
18899TIP3    H278113   6.781   3.240   5.248 -0.0332  0.0739  1.1439
18900TIP3   OH278114   3.350   3.733   0.132  0.6958 -0.0774 -0.4457
18900TIP3    H178115   3.311   3.810   0.090 -1.0212 -0.4815  0.3179
18900TIP3    H278116   3.329   3.744   0.225  0.9629 -1.1593 -0.2533
18901TIP3   OH278117   2.782   0.869   1.021  0.4218  0.0374  0.4210
18901TIP3    H178118   2.792   0.963   1.003  1.8250 -0.3538 -1.1046
18901TIP3    H278119   2.721   0.839   0.953 -0.4725 -0.0807  1.2563
18902TIP3   OH278120   6.265   3.899   0.066  0.2277  0.2135 -0.3667
18902TIP3    H178121   6.343   3.943   0.099 -0.2856  1.5082 -0.8172
18902TIP3    H278122   6.193   3.937   0.117 -0.3518  0.8060 -1.5956
18903TIP3   OH278123   3.551   5.970  16.197  0.0568  0.9075  0.7337
18903TIP3    H178124   3.536   6.027  16.272  0.0173 -1.0722  2.3175
18903TIP3    H278125   3.634   5.927  16.215 -0.1068  0.1662 -0.2037
18904TIP3   OH278126   2.747   2.139   2.545  0.5070  0.3877  0.7698
18904TIP3    H178127   2.760   2.045   2.554  0.7630  0.4989  1.6595
18904TIP3    H278128   2.802   2.177   2.613  0.6227  1.1966  0.2360
18905TIP3   OH278129   1.278   1.532  13.614 -0.4486 -0.0434 -0.8073
18905TIP3    H178130   1.350   1.587  13.645 -1.7276  0.7632  0.9196
18905TIP3    H278131   1.300   1.444  13.643  0.5239 -0.0707 -1.5876
18906TIP3   OH278132   1.589   4.055  14.207 -0.3635  0.3563 -0.7099
18906TIP3    H178133   1.662   4.102  14.247  0.0081  0.0233 -0.9859
18906TIP3    H278134   1.612   4.051  14.114 -0.5433 -0.0978 -0.7362
18907TIP3   OH278135   1.950   2.651  15.714  0.1298 -0.1713 -0.2381
18907TIP3    H178136   1.907   2.661  15.799  0.3879 -0.5303 -0.0649
18907TIP3    H278137   1.986   2.563  15.715  1.2455  0.2605 -0.1971
18908TIP3   OH278138   3.979   5.468   6.410 -0.3295  0.2074  0.2023
18908TIP3    H178139   4.003   5.444   6.500 -3.1401 -1.6084  0.5844
18908TIP3    H278140   4.060   5.456   6.360  0.6049 -1.6439  1.9872
18909TIP3   OH278141   2.045   2.017   4.420  0.0522  0.0750  0.2763
18909TIP3    H178142   1.989   2.079   4.467 -1.2234 -0.2321 -0.7950
18909TIP3    H278143   2.023   2.028   4.328 -0.2538 -1.9946  0.0470
18910TIP3   OH278144   5.313   4.860   2.948  0.5117  0.3186 -0.2781
18910TIP3    H178145   5.284   4.799   2.880  1.8933 -1.0973  0.3304
18910TIP3    H278146   5.384   4.909   2.908 -0.2449  1.2005 -0.5900
18911TIP3   OH278147   6.013   1.779  16.470  1.2624  0.4042  0.1956
18911TIP3    H178148   5.924   1.779  16.505  1.0907 -2.9008  0.1339
18911TIP3    H278149   6.006   1.824  16.386  0.7053  4.2180  2.0598
18912TIP3   OH278150   5.656   5.511  14.568 -0.0260  0.2025 -0.7314
18912TIP3    H178151   5.747   5.491  14.588 -0.5790  0.8295  3.3568
18912TIP3    H278152   5.660   5.580  14.503  2.5407  1.3146  0.4649
18913TIP3   OH278153   3.116   5.308  16.302 -0.4385 -0.2807  0.5268
18913TIP3    H178154   3.091   5.236  16.245  0.3018  0.4825 -0.8128
18913TIP3    H278155   3.211   5.299  16.312 -0.2750  0.6977  0.0257
18914TIP3   OH278156   2.210   1.575  15.190 -0.5768  0.2794  0.2205
18914TIP3    H178157   2.293   1.613  15.220  0.0105 -0.5917 -0.2610
18914TIP3    H278158   2.219   1.570  15.095 -1.9151  1.8274 -0.0357
18915TIP3   OH278159   5.638   5.464  13.951  0.6379 -0.3018 -0.9967
18915TIP3    H178160   5.573   5.412  13.998 -0.8318  1.8298 -0.5205
18915TIP3    H278161   5.652   5.417  13.869 -0.1444 -1.7299 -0.3513
18916TIP3   OH278162   6.629   4.282   0.860 -0.5468  0.6430 -0.5365
18916TIP3    H178163   6.618   4.372   0.829  1.2481  1.2821  0.5316
18916TIP3    H278164   6.695   4.245   0.801 -0.2140  0.4931 -0.0686
18917TIP3   OH278165   0.309   6.699   1.059 -0.2809 -0.1305 -0.0682
18917TIP3    H178166   0.216   6.693   1.080 -0.2797  1.3480  0.5211
18917TIP3    H278167   0.351   6.630   1.111 -1.0547 -0.9424 -0.4980
18918TIP3   OH278168   1.864   5.840  12.560 -0.3507 -0.4004 -0.3413
18918TIP3    H178169   1.823   5.893  12.628  1.0763 -0.9584  1.0074
18918TIP3    H278170   1.837   5.882  12.478 -1.5753  0.6825  0.5642
18919TIP3   OH278171   5.140   5.156  16.725 -0.2418 -0.0211  0.3510
18919TIP3    H178172   5.182   5.161  16.639 -1.2980 -0.3623 -0.1924
18919TIP3    H278173   5.155   5.243  16.764  0.5363  0.0241 -0.0198
18920TIP3   OH278174   2.204   0.556  15.022 -0.0645 -0.3954 -0.5416
18920TIP3    H178175   2.277   0.553  15.085  0.7004 -0.0459 -1.3819
18920TIP3    H278176   2.164   0.470  15.028 -1.3916  0.2841  1.9755
18921TIP3   OH278177   6.421   3.663   0.139 -0.2579 -0.4108  0.1632
18921TIP3    H178178   6.496   3.719   0.155  0.1639 -1.0782  0.5745
18921TIP3    H278179   6.349   3.723   0.123 -0.1971  0.2861  2.2619
18922TIP3   OH278180   4.645   6.448  14.464  0.7785  0.1434  0.5938
18922TIP3    H178181   4.669   6.540  14.475 -0.0943  0.4182  0.2195
18922TIP3    H278182   4.727   6.406  14.435  0.5516  1.3255 -2.0690
18923TIP3   OH278183   2.928   1.823   1.324  0.2129 -0.3310 -0.1550
18923TIP3    H178184   2.916   1.817   1.419 -2.6666  1.8714 -0.2528
18923TIP3    H278185   3.022   1.823   1.312  0.7064  0.7427  2.8497
18924TIP3   OH278186   0.853   5.582  15.191 -0.6781 -0.1838  0.4621
18924TIP3    H178187   0.854   5.500  15.241 -2.0341 -1.0538 -0.8519
18924TIP3    H278188   0.945   5.604  15.180 -0.3130 -0.7165  2.0930
18925TIP3   OH278189   3.349   5.280  17.273  0.1610  0.8155 -0.1798
18925TIP3    H178190   3.363   5.196  17.229  2.2933  0.6197  0.7571
18925TIP3    H278191   3.380   5.345  17.210  0.7466  0.7210  0.0066
18926TIP3   OH278192   1.218   3.420  11.846 -0.7411  0.6923 -0.3114
18926TIP3    H178193   1.245   3.394  11.758 -0.1810 -0.6001  0.2103
18926TIP3    H278194   1.140   3.474  11.832 -1.2695 -0.3240 -1.5562
18927TIP3   OH278195   3.387   2.272   0.134  0.0934 -0.2242  0.5134
18927TIP3    H178196   3.334   2.194   0.148 -0.1366 -0.3142 -0.7729
18927TIP3    H278197   3.476   2.238   0.118 -0.3878 -0.3919 -2.1184
18928TIP3   OH278198   6.591   3.419   1.724  0.2453 -0.0880  0.1391
18928TIP3    H178199   6.613   3.328   1.702 -1.3059 -0.6446  0.7808
18928TIP3    H278200   6.506   3.434   1.683  0.1985  0.8736  0.5652
18929TIP3   OH278201   4.333   4.439  14.606 -0.3499 -0.0079 -0.3449
18929TIP3    H178202   4.385   4.417  14.684 -0.2482 -2.4603 -1.0091
18929TIP3    H278203   4.266   4.499  14.638  1.2647  1.1326  1.0805
18930TIP3   OH278204   3.757   1.346  15.422  0.0236 -0.6993  0.4873
18930TIP3    H178205   3.809   1.357  15.343  2.5109 -0.1669  2.0912
18930TIP3    H278206   3.674   1.391  15.403  1.1016  0.6681 -1.2887
18931TIP3   OH278207   3.052   3.910   3.409 -0.8158  0.1468 -0.3101
18931TIP3    H178208   2.958   3.929   3.401 -0.7482 -0.0316 -2.0267
18931TIP3    H278209   3.058   3.816   3.392 -0.1184  0.5863 -3.0636
18932TIP3   OH278210   6.441   5.482  14.434 -0.0415  0.2947 -0.1863
18932TIP3    H178211   6.477   5.393  14.443  0.4832  0.3187 -1.7741
18932TIP3    H278212   6.346   5.470  14.444  0.0308 -0.4337 -0.2837
18933TIP3   OH278213   3.463   1.294   3.066  0.1405  0.1223  0.1088
18933TIP3    H178214   3.390   1.269   3.122 -1.0224  1.9853 -0.4733
18933TIP3    H278215   3.540   1.256   3.108 -0.6804  1.3251  2.9451
18934TIP3   OH278216   5.360   3.321  13.268  0.0032 -0.0156 -0.0860
18934TIP3    H178217   5.370   3.294  13.176  1.5677 -0.2321  0.1053
18934TIP3    H278218   5.346   3.415  13.265  0.6533  0.0756 -0.5504
18935TIP3   OH278219   1.953   5.258  17.082 -0.1427  0.2694 -0.0768
18935TIP3    H178220   1.939   5.276  17.175 -0.5439  1.8034 -0.4085
18935TIP3    H278221   1.949   5.344  17.040 -0.5069 -0.4522 -1.5881
18936TIP3   OH278222   6.241   3.976  12.000  0.0467 -0.4300  0.1754
18936TIP3    H178223   6.327   3.935  12.010  0.4399 -0.3922 -2.3437
18936TIP3    H278224   6.261   4.069  11.989 -0.1392 -0.5928 -1.8433
18937TIP3   OH278225   5.056   6.501  12.226  0.4549 -0.8287  0.3823
18937TIP3    H178226   5.059   6.422  12.172 -0.4027 -1.5487  1.3287
18937TIP3    H278227   5.006   6.474  12.304 -0.8668  0.9535  0.2142
18938TIP3   OH278228   2.913   1.602   2.434  0.2900  0.3604  0.3077
18938TIP3    H178229   2.998   1.642   2.415 -0.6051  1.9887 -0.5644
18938TIP3    H278230   2.850   1.661   2.392 -1.1842 -1.7266 -0.5755
18939TIP3   OH278231   5.296   4.126  15.970  0.6459  1.0927 -0.6160
18939TIP3    H178232   5.361   4.190  15.941  0.7904  0.6584 -1.2620
18939TIP3    H278233   5.340   4.041  15.964  0.3683  0.8976 -0.0235
18940TIP3   OH278234   4.354   0.855   6.581 -0.0360  0.3418  0.5151
18940TIP3    H178235   4.399   0.779   6.543  0.7174  1.0542 -0.0348
18940TIP3    H278236   4.271   0.819   6.613  0.3821 -0.7514  0.4227
18941TIP3   OH278237   5.490   3.017  12.392  0.0070 -0.4000  0.0925
18941TIP3    H178238   5.467   2.998  12.483 -2.9396  2.6811  0.1545
18941TIP3    H278239   5.566   3.075  12.398 -0.8601  0.7000  0.6951
18942TIP3   OH278240   5.491   2.610  12.759  0.0119 -0.0257  0.2734
18942TIP3    H178241   5.509   2.517  12.770  0.5144  0.0609  0.1907
18942TIP3    H278242   5.407   2.613  12.713  0.1916 -0.4444 -0.0890
18943TIP3   OH278243   0.587   6.585   3.546 -0.3667 -0.0792  0.2198
18943TIP3    H178244   0.503   6.597   3.592 -0.2501 -0.1684  0.4541
18943TIP3    H278245   0.650   6.564   3.615 -0.1459  0.0055  0.0447
18944TIP3   OH278246   5.815   4.772  14.351  0.2201 -0.5415 -0.3232
18944TIP3    H178247   5.748   4.833  14.320 -1.0680 -0.0230  3.1254
18944TIP3    H278248   5.782   4.686  14.325 -1.0543 -0.1790 -0.0026
18945TIP3   OH278249   5.518   3.409  12.441 -0.7415 -0.1042 -0.0048
18945TIP3    H178250   5.463   3.339  12.477  0.5754 -0.9264  0.4971
18945TIP3    H278251   5.561   3.369  12.365 -0.2408  0.2581  0.0818
18946TIP3   OH278252   2.930   3.856  16.010  0.3417 -0.2680 -0.4967
18946TIP3    H178253   2.919   3.761  16.005 -0.8239 -0.1215 -0.9934
18946TIP3    H278254   2.843   3.890  16.029  0.3063  0.8137 -2.2913
18947TIP3   OH278255   4.090   3.867   1.607 -0.0667  0.6246 -0.0222
18947TIP3    H178256   4.070   3.933   1.541  0.3914 -2.4762 -3.5749
18947TIP3    H278257   4.177   3.889   1.639  1.0817  0.5820 -2.8732
18948TIP3   OH278258   5.971   3.731   2.475 -0.9046  0.2551  0.1972
18948TIP3    H178259   6.012   3.774   2.551 -1.7151  1.3733  0.0265
18948TIP3    H278260   6.022   3.762   2.400 -1.5826  1.0589  0.0591
18949TIP3   OH278261   6.408   5.494   6.485 -0.0745  0.0861 -0.1864
18949TIP3    H178262   6.315   5.484   6.505  0.1269  0.4339  0.9906
18949TIP3    H278263   6.437   5.405   6.462 -0.3355 -0.3528  1.1150
18950TIP3   OH278264   0.448   1.652  15.933 -0.2828  0.3943  0.3614
18950TIP3    H178265   0.481   1.742  15.936 -0.7628  0.6193 -0.7368
18950TIP3    H278266   0.522   1.598  15.963  0.5717  1.0141 -0.5863
18951TIP3   OH278267   2.330   6.057   5.104  0.0328 -0.2555 -0.1736
18951TIP3    H178268   2.374   6.141   5.119 -1.4610  0.3842  0.8840
18951TIP3    H278269   2.251   6.080   5.053 -0.9531 -0.8361  1.0451
18952TIP3   OH278270   0.547   5.277  16.384  0.1528 -0.4748 -0.0318
18952TIP3    H178271   0.559   5.211  16.453 -0.6690 -0.1829  0.4016
18952TIP3    H278272   0.570   5.360  16.426  0.4388 -0.3952 -0.3477
18953TIP3   OH278273   4.837   4.923  16.190  0.2537 -0.1990  0.3360
18953TIP3    H178274   4.880   4.920  16.275  1.2424 -0.3871 -0.1596
18953TIP3    H278275   4.880   4.854  16.139  0.2780  0.4855 -0.5916
18954TIP3   OH278276   2.836   0.162  11.125 -0.3583  0.0697 -0.0061
18954TIP3    H178277   2.926   0.139  11.104  0.8190  1.1823  3.1821
18954TIP3    H278278   2.784   0.124  11.054  2.4923 -1.4875 -1.4300
18955TIP3   OH278279   2.041   1.686   6.122 -0.0842  0.5096  0.1147
18955TIP3    H178280   1.966   1.626   6.116  0.5530 -0.4786  1.4265
18955TIP3    H278281   2.102   1.653   6.056  0.1513 -0.1509  0.6463
18956TIP3   OH278282   0.982   0.244  13.767  0.4161  0.0510  0.2262
18956TIP3    H178283   0.987   0.202  13.681 -0.6723 -0.3652  0.3478
18956TIP3    H278284   0.915   0.311  13.757  2.1698  1.8634  0.0248
18957TIP3   OH278285   4.445   1.745   2.397 -0.1376  0.2745 -0.0858
18957TIP3    H178286   4.440   1.741   2.302  2.1633 -1.3884 -0.2326
18957TIP3    H278287   4.455   1.838   2.417 -2.1462  0.8088 -1.2962
18958TIP3   OH278288   4.123   6.406   4.544  0.1029  0.0761 -1.1609
18958TIP3    H178289   4.168   6.458   4.477  0.0012 -1.8739 -2.8244
18958TIP3    H278290   4.054   6.360   4.497 -1.1474  0.0065  0.6450
18959TIP3   OH278291   2.267   4.743  16.498  0.2821 -0.5731 -0.3650
18959TIP3    H178292   2.197   4.793  16.539 -0.1678 -0.0715 -1.7029
18959TIP3    H278293   2.333   4.809  16.475  0.4987 -0.8397 -0.5192
18960TIP3   OH278294   5.810   3.181   0.026 -0.5011 -0.6949  0.6004
18960TIP3    H178295   5.718   3.157   0.031 -0.5200 -0.7607  0.0186
18960TIP3    H278296   5.846   3.123  -0.041 -0.2939  0.1183 -0.0002
18961TIP3   OH278297   3.421   4.427   0.309 -0.1557  0.6413 -0.5708
18961TIP3    H178298   3.457   4.371   0.242  0.7200  0.0393  0.3725
18961TIP3    H278299   3.419   4.515   0.270 -1.1081  0.0608 -1.8875
18962TIP3   OH278300   2.166   6.045   4.401  0.2041 -0.5923 -0.9256
18962TIP3    H178301   2.152   6.091   4.485  0.7919  0.0729 -1.1809
18962TIP3    H278302   2.098   6.081   4.343  0.0607 -0.7473 -0.8547
18963TIP3   OH278303   4.361   6.275   2.567 -0.5579  0.0845 -0.8305
18963TIP3    H178304   4.449   6.237   2.570 -0.1157  1.1390  0.4692
18963TIP3    H278305   4.314   6.221   2.503  0.9554 -0.6391 -1.3813
18964TIP3   OH278306   3.892   0.680   2.960 -0.6069 -0.0958  0.1983
18964TIP3    H178307   3.814   0.634   2.992 -1.4592  2.1251  1.5679
18964TIP3    H278308   3.858   0.748   2.902  0.3200  0.7091  0.5596
18965TIP3   OH278309   0.525   3.579  13.186 -0.3576 -0.5105 -0.6278
18965TIP3    H178310   0.517   3.618  13.274  0.1453 -0.5304 -0.5726
18965TIP3    H278311   0.577   3.500  13.199  0.2638 -0.1782 -1.0407
18966TIP3   OH278312   4.553   4.626   3.413 -0.3931 -0.2991 -0.3357
18966TIP3    H178313   4.516   4.654   3.330  1.2511  2.9642 -0.1106
18966TIP3    H278314   4.625   4.568   3.389 -1.8565 -1.9472 -0.9730
18967TIP3   OH278315   5.445   3.134  15.519  0.2137  0.4749  0.2013
18967TIP3    H178316   5.461   3.228  15.523  3.0504  0.0891 -0.3778
18967TIP3    H278317   5.462   3.110  15.428 -0.1608 -0.6740  0.4141
18968TIP3   OH278318   4.255   5.505   0.553 -0.2783  0.2974 -0.5183
18968TIP3    H178319   4.296   5.582   0.515 -1.4133  1.0988 -0.1913
18968TIP3    H278320   4.180   5.540   0.602 -0.6562 -0.9885 -0.1390
18969TIP3   OH278321   2.880   2.307   5.791 -0.3417  0.0310 -0.1672
18969TIP3    H178322   2.907   2.215   5.789  1.9847  0.6273  0.3984
18969TIP3    H278323   2.841   2.320   5.877  0.7220 -0.1057  0.3519
18970TIP3   OH278324   0.186   1.560  13.580 -1.2005 -0.3204 -0.0575
18970TIP3    H178325   0.197   1.654  13.563  0.1493 -0.3927  0.3152
18970TIP3    H278326   0.094   1.551  13.604 -0.7991  1.3295  2.4660
18971TIP3   OH278327   2.608   6.225  11.428  0.0376  0.0176 -0.0548
18971TIP3    H178328   2.643   6.303  11.471 -0.3721  2.1124 -3.1556
18971TIP3    H278329   2.513   6.237  11.432 -0.0038  0.3916 -1.6245
18972TIP3   OH278330   2.201   0.487  11.652 -0.2812  0.5956 -0.7248
18972TIP3    H178331   2.257   0.545  11.704 -0.0436  0.6507 -1.0337
18972TIP3    H278332   2.261   0.445  11.591 -0.3770 -0.3588 -0.1768
18973TIP3   OH278333   5.313   4.371  16.297  0.1260  0.2336  0.3077
18973TIP3    H178334   5.362   4.438  16.346 -0.0353  1.2754 -0.8989
18973TIP3    H278335   5.224   4.405  16.294  0.3442  0.7785 -1.6245
18974TIP3   OH278336   0.407   2.274   4.803 -0.1551 -0.3407 -0.0434
18974TIP3    H178337   0.419   2.361   4.841 -1.9399 -0.1688  0.2242
18974TIP3    H278338   0.448   2.215   4.865  0.1269  0.2291  0.3248
18975TIP3   OH278339   5.765   3.194  10.690 -0.2196 -0.2109  0.4314
18975TIP3    H178340   5.849   3.237  10.677 -0.0848 -1.4037 -4.4030
18975TIP3    H278341   5.782   3.126  10.756  1.9457  0.9960  1.2022
18976TIP3   OH278342   1.541   0.809   5.630 -0.3356  0.6509 -0.2076
18976TIP3    H178343   1.490   0.829   5.552 -0.1275  3.4882  0.2726
18976TIP3    H278344   1.576   0.893   5.658  1.2810 -0.5850  1.8055
18977TIP3   OH278345   0.714   4.337   1.056  0.4758  0.3905 -0.4143
18977TIP3    H178346   0.641   4.375   1.105 -0.7149 -2.6904  0.4941
18977TIP3    H278347   0.695   4.357   0.964 -0.6288  1.0308 -0.0582
18978TIP3   OH278348   4.627   1.994   0.086  0.6712 -0.4388  0.2142
18978TIP3    H178349   4.556   1.964   0.142  0.8937 -1.6636 -0.1078
18978TIP3    H278350   4.586   2.008   0.001  0.5670  0.2018  0.3654
18979TIP3   OH278351   5.343   5.558  14.999  0.4461  0.1434  0.7290
18979TIP3    H178352   5.382   5.569  15.086 -0.2338  0.3500  1.0218
18979TIP3    H278353   5.393   5.616  14.943  0.1746  0.8741  1.2238
18980TIP3   OH278354   0.980   6.709  12.142  0.6663 -0.5260  0.2908
18980TIP3    H178355   1.037   6.633  12.130 -1.1598 -2.3828  2.4865
18980TIP3    H278356   0.999   6.740  12.230  0.1816  0.5439  0.0405
18981TIP3   OH278357   4.257   5.084  16.498  0.0744 -0.3948  0.4026
18981TIP3    H178358   4.165   5.104  16.482 -0.7621 -3.2597  0.9339
18981TIP3    H278359   4.277   5.125  16.582 -0.4009  1.0455 -0.1689
18982TIP3   OH278360   2.065   1.669  16.235  0.2286 -0.8258  0.3308
18982TIP3    H178361   2.025   1.754  16.218 -0.0778 -0.4572  2.5672
18982TIP3    H278362   1.996   1.606  16.218 -0.1395 -0.4732  0.5037
18983TIP3   OH278363   5.500   6.081   2.791  0.9200 -0.2573  0.0254
18983TIP3    H178364   5.581   6.124   2.819  0.8295  0.2661 -0.5072
18983TIP3    H278365   5.500   6.089   2.696  1.0670 -1.7311 -0.1340
18984TIP3   OH278366   3.839   2.690  12.816 -0.4284  0.1621  0.5602
18984TIP3    H178367   3.820   2.670  12.908 -0.6938  0.5880  0.6010
18984TIP3    H278368   3.908   2.757  12.821 -1.1010  0.8791  0.4740
18985TIP3   OH278369   5.721   3.160   0.589 -1.1153 -0.3149  0.0551
18985TIP3    H178370   5.627   3.138   0.587 -0.8618 -1.5368 -1.9964
18985TIP3    H278371   5.726   3.240   0.641 -3.0152 -1.3655  2.0111
18986TIP3   OH278372   5.041   3.523  13.719  0.0075  0.6838  0.3731
18986TIP3    H178373   5.051   3.607  13.764  1.9552  0.9117 -0.4075
18986TIP3    H278374   5.117   3.472  13.746  0.1233  0.0751 -1.0417
18987TIP3   OH278375   1.271   0.200  17.257 -0.1547  0.2528  0.4222
18987TIP3    H178376   1.231   0.113  17.252 -0.5262  0.4870 -0.9003
18987TIP3    H278377   1.340   0.199  17.192  0.0948  0.8242  0.6730
18988TIP3   OH278378   5.181   3.027   2.845  0.2246  0.0451 -0.2901
18988TIP3    H178379   5.234   3.005   2.768 -0.1545 -0.5241 -0.3910
18988TIP3    H278380   5.244   3.028   2.917  0.4355 -0.2651 -0.4674
18989TIP3   OH278381   4.804   5.174  17.205 -0.5549 -0.1039 -0.4282
18989TIP3    H178382   4.762   5.247  17.248 -0.4328  0.2464 -0.8925
18989TIP3    H278383   4.799   5.102  17.268 -0.5879  0.3306  0.0637
18990TIP3   OH278384   4.908   3.643   1.331 -0.1458 -0.2480  0.4067
18990TIP3    H178385   4.875   3.698   1.260 -0.0035  0.9249  1.2158
18990TIP3    H278386   4.929   3.560   1.289 -1.8884 -0.2493 -0.5653
18991TIP3   OH278387   0.069   6.646  10.612  0.0313 -0.2653  0.5958
18991TIP3    H178388   0.053   6.552  10.615 -0.7412 -0.1094  2.4134
18991TIP3    H278389   0.033   6.674  10.528  1.8599 -1.8191 -0.7966
18992TIP3   OH278390   3.194   4.967  13.146  0.2003  0.4703 -0.8860
18992TIP3    H178391   3.197   4.986  13.240 -3.2141  1.2117 -0.8053
18992TIP3    H278392   3.221   4.876  13.139 -1.2073 -0.1590  1.0865
18993TIP3   OH278393   4.988   4.926  11.942 -0.0242 -0.0571 -0.2120
18993TIP3    H178394   5.052   4.995  11.924  0.9640 -1.2249 -1.3436
18993TIP3    H278395   5.037   4.860  11.992 -0.0428 -1.3780 -1.8522
18994TIP3   OH278396   3.813   0.890   2.817  0.9108 -0.4435  0.0696
18994TIP3    H178397   3.786   0.913   2.727  1.5723  1.3436  0.2876
18994TIP3    H278398   3.770   0.955   2.872  0.8185 -1.2978  1.0460
18995TIP3   OH278399   5.503   2.402  16.660  0.2467  0.1242 -0.2290
18995TIP3    H178400   5.490   2.497  16.657 -0.4312  0.0355 -0.1570
18995TIP3    H278401   5.482   2.373  16.571  0.0107 -0.0164 -0.1257
18996TIP3   OH278402   6.058   4.960  11.468  0.0267  0.0461  0.3256
18996TIP3    H178403   5.978   4.991  11.426  0.9494  3.8167  0.9670
18996TIP3    H278404   6.035   4.954  11.561 -0.0702 -1.0443  0.2378
18997TIP3   OH278405   2.777   3.415  15.284  0.3293 -0.0297  0.5190
18997TIP3    H178406   2.795   3.504  15.255  0.3249 -0.5290 -1.1202
18997TIP3    H278407   2.862   3.370  15.278 -0.0981 -0.7122 -0.9617
18998TIP3   OH278408   4.674   4.865  12.607 -0.3107  0.2009 -0.1247
18998TIP3    H178409   4.665   4.771  12.591 -0.3967  0.0100  0.9835
18998TIP3    H278410   4.670   4.874  12.702 -0.5310  1.3557 -0.2267
18999TIP3   OH278411   3.493   4.186  12.929  0.0841  0.2835 -0.3928
18999TIP3    H178412   3.579   4.159  12.897 -0.4073 -0.0347 -1.4861
18999TIP3    H278413   3.486   4.147  13.017  0.9639  0.1508 -0.3765
19000TIP3   OH278414   1.178   0.310   5.997  0.0998  0.0841 -0.1102
19000TIP3    H178415   1.133   0.274   6.074  1.9151  1.3642  1.6438
19000TIP3    H278416   1.248   0.248   5.980  0.3896  0.3801 -0.0029
19001TIP3   OH278417   0.364   0.239   2.740  0.3962  0.2287 -0.1816
19001TIP3    H178418   0.355   0.144   2.749 -0.1916  0.3125  0.1074
19001TIP3    H278419   0.368   0.254   2.646  1.7307 -0.1903 -0.2239
19002TIP3   OH278420   6.517   0.931   1.952 -0.5124 -0.0791  0.1917
19002TIP3    H178421   6.598   0.909   1.998 -1.1918 -2.4863  0.3261
19002TIP3    H278422   6.522   0.883   1.869 -1.2270  0.8183 -0.3967
19003TIP3   OH278423   0.500   2.630  12.374  0.2615  0.2730 -0.1259
19003TIP3    H178424   0.511   2.724  12.388 -0.5196  0.4012 -0.3044
19003TIP3    H278425   0.483   2.594  12.461 -0.1253  0.4065 -0.1428
19004TIP3   OH278426   1.709   3.735   4.867 -0.0264 -0.0961  0.1232
19004TIP3    H178427   1.629   3.683   4.859 -0.4823  0.8040 -1.9972
19004TIP3    H278428   1.703   3.800   4.796  2.3515  0.3171  0.2001
19005TIP3   OH278429   0.680   3.256  13.748 -0.8696 -0.0386  0.4269
19005TIP3    H178430   0.756   3.265  13.807  0.1108 -1.6581 -0.5312
19005TIP3    H278431   0.607   3.294  13.798 -0.0420 -1.1172  2.5875
19006TIP3   OH278432   5.739   6.039   1.139 -0.2345 -0.4080 -0.1320
19006TIP3    H178433   5.690   6.107   1.185  0.2097 -0.6251  0.6781
19006TIP3    H278434   5.691   5.959   1.157  0.7393 -0.7317  1.2208
19007TIP3   OH278435   0.713   5.817  12.951 -0.6827  0.2407  0.4072
19007TIP3    H178436   0.634   5.831  13.003 -0.1108  0.4670  1.2455
19007TIP3    H278437   0.781   5.868  12.996 -0.1488  0.3850 -0.5281
19008TIP3   OH278438   2.011   2.427   1.534 -0.1660 -0.3200  0.4355
19008TIP3    H178439   2.102   2.396   1.538  0.2097  0.7268  0.3251
19008TIP3    H278440   1.975   2.383   1.457  0.3096 -0.5889  0.3583
19009TIP3   OH278441   0.399   5.764   0.967  0.1198  0.3252  0.9078
19009TIP3    H178442   0.336   5.815   0.917  2.4154  1.1189 -1.3908
19009TIP3    H278443   0.348   5.727   1.040 -2.7802  1.4269 -0.4203
19010TIP3   OH278444   1.761   0.311  16.407 -0.8957 -0.3044  0.0864
19010TIP3    H178445   1.671   0.339  16.425 -1.7786 -2.6023 -0.5090
19010TIP3    H278446   1.794   0.282  16.492 -0.3440  1.3976  0.4923
19011TIP3   OH278447   0.848   4.632   4.750 -0.0149  0.3304  0.7006
19011TIP3    H178448   0.902   4.555   4.770  0.9953  1.2372  1.6503
19011TIP3    H278449   0.865   4.650   4.658 -1.5116 -1.4861 -0.0072
19012TIP3   OH278450   6.549   3.437  12.641 -0.2679  0.0589  0.9691
19012TIP3    H178451   6.572   3.401  12.727 -0.3532 -0.6513  0.6990
19012TIP3    H278452   6.632   3.462  12.602  0.2781 -3.2435 -0.3469
19013TIP3   OH278453   0.049   4.184  14.751 -0.7219 -1.1072  0.1833
19013TIP3    H178454   0.107   4.128  14.699 -0.9770 -1.4668  0.2769
19013TIP3    H278455   0.107   4.246  14.794 -0.5701 -0.3339 -1.0999
19014TIP3   OH278456   4.605   0.973   0.860  0.0305 -0.3044  0.8382
19014TIP3    H178457   4.654   0.966   0.941  2.0173  0.4686 -0.2257
19014TIP3    H278458   4.663   0.936   0.793 -1.4106 -0.6268 -0.2889
19015TIP3   OH278459   1.778   2.322   0.060  0.5196  0.7031 -0.2189
19015TIP3    H178460   1.734   2.239   0.078 -1.9341  2.2079  1.2425
19015TIP3    H278461   1.840   2.333   0.132  1.1039  0.0131 -0.6029
19016TIP3   OH278462   4.438   1.098  16.614 -0.4947 -0.1115  0.2868
19016TIP3    H178463   4.362   1.150  16.639 -1.1034 -0.6872 -0.3499
19016TIP3    H278464   4.475   1.145  16.539 -0.7959 -0.3619 -0.0196
19017TIP3   OH278465   3.223   5.068   2.382 -0.2522  0.2646 -0.9449
19017TIP3    H178466   3.209   5.160   2.403  3.9808  0.5177  1.9315
19017TIP3    H278467   3.166   5.021   2.442 -0.0437  1.0299 -0.1293
19018TIP3   OH278468   2.607   4.758   2.462  0.3177  0.2001 -0.3858
19018TIP3    H178469   2.512   4.744   2.459  0.1600  0.3136  1.9998
19018TIP3    H278470   2.639   4.691   2.522  1.3735  1.7101  0.8264
19019TIP3   OH278471   1.672   3.356   4.841  0.6379 -0.0313  0.3483
19019TIP3    H178472   1.759   3.368   4.879  1.6964 -1.6084 -1.3715
19019TIP3    H278473   1.669   3.420   4.769  1.2227 -1.2785 -0.8348
19020TIP3   OH278474   6.440   4.775  16.415 -0.9805 -0.7268  0.7549
19020TIP3    H178475   6.397   4.811  16.493 -1.6294 -0.6794  0.3891
19020TIP3    H278476   6.378   4.793  16.344 -0.5081 -0.9889  0.2714
19021TIP3   OH278477   2.673   1.273  15.085  0.5296  0.3779 -0.0044
19021TIP3    H178478   2.650   1.210  15.016  2.4589  0.4335 -0.7590
19021TIP3    H278479   2.589   1.298  15.123 -0.3871 -1.8494 -0.3806
19022TIP3   OH278480   3.384   2.126   3.052  0.3917  0.1657  0.2120
19022TIP3    H178481   3.351   2.215   3.044 -0.8283 -0.0901  1.8180
19022TIP3    H278482   3.405   2.099   2.963 -2.2516  0.9372 -0.7208
19023TIP3   OH278483   4.000   4.269   4.038  0.4133 -0.4044  0.1388
19023TIP3    H178484   4.055   4.324   3.982  0.0618 -0.9216 -0.7303
19023TIP3    H278485   3.932   4.328   4.070 -1.4722 -0.8027 -2.8168
19024TIP3   OH278486   1.996   0.191  16.027 -0.1996  0.3651 -0.6238
19024TIP3    H178487   2.003   0.257  16.095  0.7373  0.2566 -0.5985
19024TIP3    H278488   1.921   0.137  16.052  0.7386 -0.2938  0.8686
19025TIP3   OH278489   4.128   2.278   1.686  0.3019 -0.2837  0.4235
19025TIP3    H178490   4.204   2.292   1.630  0.9088  0.7443  1.4587
19025TIP3    H278491   4.146   2.195   1.729  0.7207 -0.1733  0.4714
19026TIP3   OH278492   5.949   5.795  14.628 -0.1784 -0.3776 -0.2314
19026TIP3    H178493   6.032   5.748  14.621  0.1033  0.1514 -0.4708
19026TIP3    H278494   5.890   5.748  14.570 -0.7972 -2.3100  1.8229
19027TIP3   OH278495   1.192   0.150  14.703  0.0770  0.2526 -0.0829
19027TIP3    H178496   1.130   0.223  14.709 -0.7867 -0.4179 -0.6139
19027TIP3    H278497   1.197   0.115  14.791  0.1654  0.6754  0.0857
19028TIP3   OH278498   2.664   5.091  12.009 -0.2186  0.1186 -0.6927
19028TIP3    H178499   2.638   5.077  12.100 -0.2374  0.9989 -0.5551
19028TIP3    H278500   2.758   5.107  12.013 -0.6657  3.2172 -0.4334
19029TIP3   OH278501   6.106   4.977   2.946 -0.2425  0.3412 -0.1610
19029TIP3    H178502   6.115   5.012   2.858  1.4341 -0.0113 -0.1546
19029TIP3    H278503   6.071   4.889   2.933  1.6110 -0.3815 -0.6469
19030TIP3   OH278504   5.114   5.927  16.942 -0.3721  0.2052 -0.0732
19030TIP3    H178505   5.185   5.991  16.935 -0.4702  0.7313  2.5415
19030TIP3    H278506   5.035   5.980  16.951 -1.0323 -0.3751 -1.9634
19031TIP3   OH278507   2.292   4.094  16.092 -0.0505  0.2075  0.0595
19031TIP3    H178508   2.290   4.168  16.152  0.5734 -0.2533  0.6587
19031TIP3    H278509   2.334   4.128  16.013 -2.1125  1.2034 -0.6855
19032TIP3   OH278510   4.796   5.568  13.986 -0.2610 -0.7089 -0.1119
19032TIP3    H178511   4.712   5.579  13.941  0.1286  1.1882 -0.4252
19032TIP3    H278512   4.783   5.610  14.071  1.0678  1.8195 -1.0735
19033TIP3   OH278513   1.070   0.645  16.197  0.3353  0.5708  0.3421
19033TIP3    H178514   1.122   0.567  16.215 -1.7142 -0.6561  1.3909
19033TIP3    H278515   1.078   0.658  16.103  0.3577 -1.2332  0.0480
19034TIP3   OH278516   2.572   2.624  15.620  0.2398 -0.0821 -1.1985
19034TIP3    H178517   2.539   2.581  15.541  1.5259 -1.2334 -1.1363
19034TIP3    H278518   2.496   2.628  15.678  0.0403 -2.2239 -1.2471
19035TIP3   OH278519   5.622   1.431   4.288 -0.8375  0.0558  0.5292
19035TIP3    H178520   5.716   1.434   4.271 -1.0786  1.8925 -0.7204
19035TIP3    H278521   5.587   1.371   4.222 -0.7601  0.8025 -0.1969
19036TIP3   OH278522   3.274   2.424   2.527  0.0552  0.3207  0.1610
19036TIP3    H178523   3.180   2.410   2.529  0.0525  0.1548 -0.5860
19036TIP3    H278524   3.310   2.360   2.588 -0.4477  1.7734  2.0527
19037TIP3   OH278525   0.690   1.886   5.112 -0.0832 -0.4874  0.5672
19037TIP3    H178526   0.767   1.852   5.067 -1.2199 -1.7223 -0.5352
19037TIP3    H278527   0.696   1.850   5.200  0.4149 -0.8787  0.3797
19038TIP3   OH278528   4.480   6.636   2.933 -0.5341 -0.1168  0.4320
19038TIP3    H178529   4.561   6.596   2.966 -0.6104  0.4302  1.3027
19038TIP3    H278530   4.474   6.605   2.842  0.3811 -0.5759  0.5114
19039TIP3   OH278531   0.186   3.405  11.580 -0.7356 -0.1990 -0.5470
19039TIP3    H178532   0.281   3.409  11.591 -0.6061 -0.8615 -1.3365
19039TIP3    H278533   0.167   3.470  11.512 -0.6556 -1.0799 -1.4365
19040TIP3   OH278534   5.844   4.583   2.083 -0.1834  0.8754  0.0150
19040TIP3    H178535   5.874   4.662   2.128  0.4637  0.1776  0.8628
19040TIP3    H278536   5.873   4.511   2.140 -1.2226  0.0485 -0.4660
19041TIP3   OH278537   5.801   1.737   1.581  0.3572  0.4887 -0.3743
19041TIP3    H178538   5.730   1.728   1.645 -0.2842 -0.3490 -1.1948
19041TIP3    H278539   5.805   1.831   1.564  0.3725  0.6963  0.7066
19042TIP3   OH278540   0.931   6.497  13.273  0.1840  0.5030  0.7091
19042TIP3    H178541   0.922   6.416  13.323  0.1992 -0.4292 -0.7368
19042TIP3    H278542   0.842   6.519  13.246  0.3106  0.3229  0.1321
19043TIP3   OH278543   4.181   1.682   2.432 -0.3205 -0.3395 -0.1695
19043TIP3    H178544   4.182   1.591   2.401  0.1241 -0.5381  0.4210
19043TIP3    H278545   4.270   1.713   2.415 -0.2756 -0.2322  0.2713
19044TIP3   OH278546   6.734   1.069  14.468 -0.2436 -0.3930 -0.1948
19044TIP3    H178547   6.821   1.102  14.489 -0.1000  0.0017 -1.3070
19044TIP3    H278548   6.722   0.992  14.524  0.6393 -0.2043  0.2681
19045TIP3   OH278549   0.078   4.850  12.405 -0.3119 -0.4762  0.8305
19045TIP3    H178550   0.016   4.863  12.333  0.0563 -1.0494  0.3986
19045TIP3    H278551   0.051   4.913  12.472 -0.9491 -0.2619  0.3810
19046TIP3   OH278552   2.563   4.198  16.006  0.2025 -0.4060 -0.0342
19046TIP3    H178553   2.650   4.164  16.025  0.0021 -1.2457 -0.5443
19046TIP3    H278554   2.569   4.292  16.022  1.4096 -0.3350 -0.8119
19047TIP3   OH278555   6.187   2.431  12.543  0.6731 -0.0627 -0.4282
19047TIP3    H178556   6.113   2.458  12.489  1.7023  0.6870 -1.5172
19047TIP3    H278557   6.263   2.437  12.485  1.9147  1.2974  1.2304
19048TIP3   OH278558   5.846   2.598   5.463  0.7318 -0.0897 -0.3663
19048TIP3    H178559   5.926   2.640   5.431  1.1454  1.8568  2.7110
19048TIP3    H278560   5.780   2.668   5.459  0.6475  0.0521  2.0737
19049TIP3   OH278561   6.423   3.470  11.316 -0.1992 -0.1348  0.2410
19049TIP3    H178562   6.362   3.486  11.244  0.9926  2.0049 -0.3691
19049TIP3    H278563   6.441   3.556  11.352  1.0208 -0.9246  1.6153
19050TIP3   OH278564   4.540   5.467  14.897  0.1306  0.1818  0.2085
19050TIP3    H178565   4.489   5.522  14.837 -1.3948  1.5732  2.6161
19050TIP3    H278566   4.627   5.508  14.897  0.4796 -0.4492 -1.7319
19051TIP3   OH278567   0.367   1.596   2.162  0.1624 -0.3562  0.4264
19051TIP3    H178568   0.330   1.511   2.136 -0.3654  0.0620 -0.2482
19051TIP3    H278569   0.304   1.660   2.129  1.6981  0.4201 -1.1513
19052TIP3   OH278570   1.770   6.766   0.855 -0.5033 -0.1188  0.2232
19052TIP3    H178571   1.857   6.736   0.828 -0.5627  0.6579 -0.8706
19052TIP3    H278572   1.712   6.693   0.833 -0.4325  0.1896 -1.0880
19053TIP3   OH278573   0.662   6.101  10.931 -0.1941  0.4595  0.4289
19053TIP3    H178574   0.683   6.108  10.838  0.2114 -0.0231  0.4826
19053TIP3    H278575   0.681   6.010  10.954 -0.7233  0.4538  0.8804
19054TIP3   OH278576   0.632   6.157   0.086  0.6117 -0.0899 -0.2536
19054TIP3    H178577   0.557   6.099   0.094  0.8640 -0.2819  0.8390
19054TIP3    H278578   0.684   6.120   0.014  1.0052 -1.5021  0.7273
19055TIP3   OH278579   0.160   5.829   4.490 -0.0874 -0.0027 -0.5698
19055TIP3    H178580   0.172   5.738   4.462 -0.9818 -0.8268  1.5648
19055TIP3    H278581   0.101   5.824   4.564  0.0611  2.3236 -0.2250
19056TIP3   OH278582   2.050   6.015  14.960 -0.9020 -0.1814 -0.4130
19056TIP3    H178583   1.956   6.033  14.947 -0.6081  1.0997 -0.8766
19056TIP3    H278584   2.091   6.101  14.963  0.0553 -0.6498  1.5503
19057TIP3   OH278585   6.515   2.729  13.742 -0.3862  0.1498  0.4016
19057TIP3    H178586   6.585   2.777  13.788  0.8425 -1.0899 -0.1202
19057TIP3    H278587   6.448   2.715  13.809  0.7619 -0.3999  1.4771
19058TIP3   OH278588   4.249   4.552  13.222 -0.0389  0.1929  0.4612
19058TIP3    H178589   4.155   4.561  13.237  0.0845  0.8365  0.8833
19058TIP3    H278590   4.275   4.632  13.177  0.4463  0.3856  1.0693
19059TIP3   OH278591   1.773   1.158  13.475  0.6040 -0.9214  0.2762
19059TIP3    H178592   1.736   1.145  13.388 -0.2686  0.2045  0.4608
19059TIP3    H278593   1.750   1.079  13.523 -1.0462 -0.5164  0.1989
19060TIP3   OH278594   4.395   4.510   0.221 -0.1978  0.1436 -0.3682
19060TIP3    H178595   4.474   4.476   0.262  0.0548  2.0533  0.8281
19060TIP3    H278596   4.375   4.447   0.152  0.6976 -1.9415  1.1712
19061TIP3   OH278597   1.368   3.397  12.863  0.4615  0.3798  0.2969
19061TIP3    H178598   1.293   3.339  12.877  1.2601 -0.8576 -0.3359
19061TIP3    H278599   1.386   3.390  12.770  1.8501  0.0214  0.5752
19062TIP3   OH278600   3.236   2.931  13.438 -0.1688  0.6391  0.1786
19062TIP3    H178601   3.195   3.011  13.404  1.2895  1.1963 -0.3146
19062TIP3    H278602   3.252   2.949  13.530  0.9843  1.2730 -0.1382
19063TIP3   OH278603   4.635   2.136  13.179 -0.5503  0.2541 -0.0622
19063TIP3    H178604   4.555   2.101  13.219  0.1850  0.4228  1.6268
19063TIP3    H278605   4.654   2.215  13.229  0.2778  0.6463 -0.9537
19064TIP3   OH278606   0.795   0.915   6.145 -0.1635  0.1224 -0.0960
19064TIP3    H178607   0.829   0.845   6.088 -0.4690 -0.8555  0.8745
19064TIP3    H278608   0.873   0.953   6.186 -0.1017 -1.3836  1.2960
19065TIP3   OH278609   6.020   6.372  11.550 -0.5134  0.3024  0.2577
19065TIP3    H178610   5.992   6.420  11.628 -1.6444  2.0231 -1.1285
19065TIP3    H278611   5.952   6.307  11.537 -1.0959  0.9633 -0.0823
19066TIP3   OH278612   5.451   4.402   5.397 -0.0012  0.2101 -0.3551
19066TIP3    H178613   5.411   4.362   5.320 -2.3391  0.4480  0.6331
19066TIP3    H278614   5.484   4.486   5.366  0.4538 -0.3453 -1.4025
19067TIP3   OH278615   1.922   4.179  13.414 -0.5368  0.4142 -0.2755
19067TIP3    H178616   1.857   4.243  13.387 -0.5632  0.8533  0.7729
19067TIP3    H278617   1.875   4.120  13.473 -0.4878 -0.5254 -1.1472
19068TIP3   OH278618   5.874   1.116  11.569 -0.0368  0.2454  0.9678
19068TIP3    H178619   5.908   1.067  11.644  1.0353 -0.9045 -0.2058
19068TIP3    H278620   5.803   1.061  11.535 -0.6632  0.8670  1.2412
19069TIP3   OH278621   3.300   3.562   4.359  0.3465 -0.2407 -0.2155
19069TIP3    H178622   3.347   3.640   4.329 -0.7407 -0.2335 -2.0012
19069TIP3    H278623   3.280   3.514   4.279 -0.0173 -1.7902  0.7693
19070TIP3   OH278624   0.062   2.287   0.943 -0.3239  0.4582  0.0721
19070TIP3    H178625   0.083   2.196   0.967 -0.3807  0.1318 -1.0661
19070TIP3    H278626   0.077   2.337   1.023  0.6714 -0.4086  0.4484
19071TIP3   OH278627   4.510   0.324   4.379  0.0888 -0.2252 -0.5164
19071TIP3    H178628   4.529   0.294   4.290  0.3609 -0.0932 -0.5044
19071TIP3    H278629   4.596   0.341   4.417 -0.0082 -0.7482 -0.0616
19072TIP3   OH278630   3.632   3.152  11.929  0.2250 -0.3819 -0.1955
19072TIP3    H178631   3.628   3.201  12.012  1.1467 -1.2956  0.4176
19072TIP3    H278632   3.724   3.158  11.903  0.1916 -1.1730 -0.4949
19073TIP3   OH278633   5.478   4.176  11.867 -0.1462  0.1447 -0.0334
19073TIP3    H178634   5.447   4.265  11.850 -1.8556 -0.5289 -0.7458
19073TIP3    H278635   5.556   4.167  11.812 -0.9792  0.6481 -1.3734
19074TIP3   OH278636   2.849   0.707   2.669  0.2862 -0.5658 -0.4881
19074TIP3    H178637   2.804   0.754   2.599  0.3639  0.7224  0.2962
19074TIP3    H278638   2.861   0.772   2.738 -0.9352 -2.0761  1.2629
19075TIP3   OH278639   2.106   0.655  16.599  0.3263  0.1642  0.0368
19075TIP3    H178640   2.072   0.644  16.688  0.3764 -0.2928 -0.0006
19075TIP3    H278641   2.197   0.682  16.611  1.3400 -2.9705  0.1350
19076TIP3   OH278642   4.109   4.098  16.031  0.4314 -0.1756  0.2274
19076TIP3    H178643   4.188   4.112  15.980 -0.3362  0.7767 -0.7605
19076TIP3    H278644   4.091   4.183  16.071  0.2116 -0.5273  0.8993
19077TIP3   OH278645   6.128   4.506   0.367  0.0556  0.2252  0.1940
19077TIP3    H178646   6.086   4.420   0.362  2.5438 -1.1569  1.3045
19077TIP3    H278647   6.135   4.535   0.276 -0.8701 -0.7063 -0.1911
19078TIP3   OH278648   5.057   0.645  11.325  0.5989  0.5521  0.3351
19078TIP3    H178649   5.126   0.702  11.289 -1.0026  1.2882 -1.7692
19078TIP3    H278650   5.051   0.573  11.262 -1.5550  1.2915 -0.3577
19079TIP3   OH278651   6.760   4.924   1.478  0.8579 -0.6962  0.3178
19079TIP3    H178652   6.695   4.947   1.544 -1.0552  3.3892 -2.5357
19079TIP3    H278653   6.845   4.940   1.520 -0.2443  1.1726  1.9829
19080TIP3   OH278654   3.441   1.931   2.838  0.3874  0.1456 -0.5768
19080TIP3    H178655   3.369   1.868   2.835 -1.1444  1.8169 -2.1115
19080TIP3    H278656   3.518   1.880   2.813 -0.1910 -1.7247  1.1738
19081TIP3   OH278657   5.834   4.381  13.887  0.3378 -0.0291 -0.3585
19081TIP3    H178658   5.803   4.294  13.912  0.8566  0.0398  0.5357
19081TIP3    H278659   5.859   4.371  13.795  0.6552 -0.8967 -0.1879
19082TIP3   OH278660   3.973   0.417   5.101  0.3324  0.2623 -0.3301
19082TIP3    H178661   4.039   0.394   5.166 -1.1914  0.0928  1.2489
19082TIP3    H278662   3.953   0.334   5.057 -1.2367 -0.4947  1.6002
19083TIP3   OH278663   2.936   5.768   3.681  0.3929  0.5592 -0.0391
19083TIP3    H178664   2.965   5.705   3.747  2.5401  0.9121 -0.5611
19083TIP3    H278665   2.872   5.721   3.628  0.9981 -0.7548  0.3667
19084TIP3   OH278666   5.294   0.349  11.605 -0.3136  0.6115 -0.0092
19084TIP3    H178667   5.365   0.397  11.562 -0.1716  1.5853  1.2578
19084TIP3    H278668   5.339   0.291  11.667 -0.5559 -0.1389 -0.5196
19085TIP3   OH278669   3.211   2.463  11.236 -1.2692  0.1110 -0.0123
19085TIP3    H178670   3.209   2.485  11.143  0.6416 -0.4909 -0.2557
19085TIP3    H278671   3.205   2.547  11.281  1.9414  0.9395 -0.8226
19086TIP3   OH278672   5.898   2.904  12.666 -0.0665  0.1576  0.3003
19086TIP3    H178673   5.962   2.939  12.603  0.7219 -0.4505  0.7363
19086TIP3    H278674   5.848   2.980  12.695  0.8612  0.7575  0.3795
19087TIP3   OH278675   4.447   1.098   5.547  0.1070  0.0764  0.0875
19087TIP3    H178676   4.401   1.144   5.477 -0.4438 -1.2830 -0.4603
19087TIP3    H278677   4.424   1.147   5.627  0.6329  1.5553 -0.6259
19088TIP3   OH278678   0.870   6.083  11.399  0.1758 -0.6189  0.2309
19088TIP3    H178679   0.905   6.097  11.487  1.5438 -2.3996  0.0351
19088TIP3    H278680   0.897   6.160  11.350 -0.6128  0.4054  1.3438
19089TIP3   OH278681   0.942   0.995  16.102 -0.0044  0.1619  0.5457
19089TIP3    H178682   0.924   0.959  16.188 -1.0347  2.3435  1.3343
19089TIP3    H278683   1.012   1.058  16.116  0.5339 -0.1965 -0.4224
19090TIP3   OH278684   4.601   0.437   4.026 -0.2371 -0.6010  0.3142
19090TIP3    H178685   4.623   0.507   3.965  1.1938 -1.4395 -0.1650
19090TIP3    H278686   4.516   0.463   4.063  1.0265  2.2369  1.4719
19091TIP3   OH278687   0.008   5.885  14.676 -0.0396 -0.0322  0.0489
19091TIP3    H178688  -0.027   5.883  14.587 -2.7403 -1.3725  1.0433
19091TIP3    H278689   0.063   5.807  14.681  1.8424  1.1396 -0.9836
19092TIP3   OH278690   2.500   3.956   5.048 -0.7819 -0.0704  0.3715
19092TIP3    H178691   2.483   4.000   5.131 -0.1385  0.2799  0.3327
19092TIP3    H278692   2.562   3.886   5.070  1.7239  1.7921 -0.1761
19093TIP3   OH278693   4.777   5.910   3.994  0.3898 -0.0289  0.2671
19093TIP3    H178694   4.872   5.906   3.996  0.3793 -1.0695 -0.6467
19093TIP3    H278695   4.755   5.929   3.903 -0.2961 -0.3378  0.3619
19094TIP3   OH278696   6.345   5.419   3.012  0.0587  0.2804  0.2128
19094TIP3    H178697   6.417   5.458   3.060 -0.0907  1.7803 -0.7169
19094TIP3    H278698   6.316   5.346   3.067  2.9555 -1.1002  0.1107
19095TIP3   OH278699   4.654   3.290  16.819  0.2293 -0.5236  0.0571
19095TIP3    H178700   4.693   3.215  16.863  0.6668 -0.2319  0.1813
19095TIP3    H278701   4.560   3.278  16.829  0.2481 -1.6347 -0.9149
19096TIP3   OH278702   3.541   1.011  13.450 -0.2126 -0.3923  0.1007
19096TIP3    H178703   3.602   1.080  13.477 -2.6412  0.9158  2.7678
19096TIP3    H278704   3.534   1.021  13.355  2.1069  0.7046 -0.0409
19097TIP3   OH278705   5.557   3.259  10.888  0.2632 -0.1204  0.4863
19097TIP3    H178706   5.562   3.225  10.799  1.9257 -1.0594  0.9039
19097TIP3    H278707   5.532   3.183  10.941 -1.8947  0.6858  0.7156
19098TIP3   OH278708   4.906   0.201   2.345 -0.1313  0.0251  0.2163
19098TIP3    H178709   4.970   0.189   2.275 -0.7908  0.8904 -0.5474
19098TIP3    H278710   4.884   0.294   2.343 -1.3437 -0.2371  0.5318
19099TIP3   OH278711   6.092   0.380   0.289 -0.1744  0.6534 -0.8924
19099TIP3    H178712   6.059   0.318   0.224 -0.5350 -1.9019  1.4964
19099TIP3    H278713   6.187   0.365   0.291 -0.0591  1.2923 -1.3431
19100TIP3   OH278714   2.158   5.517  12.734 -0.4120  0.0448  0.1311
19100TIP3    H178715   2.103   5.515  12.812 -1.5179 -2.2207 -0.6066
19100TIP3    H278716   2.099   5.547  12.664 -0.0164 -0.0008 -0.2279
19101TIP3   OH278717   0.185   6.251  13.669  0.5419 -0.1761  0.3939
19101TIP3    H178718   0.104   6.259  13.719 -0.2738  0.0988 -0.9175
19101TIP3    H278719   0.240   6.194  13.721 -0.5020 -0.3664  1.3144
19102TIP3   OH278720   4.730   4.342   6.320  0.5431 -0.0711  0.3803
19102TIP3    H178721   4.755   4.254   6.347 -0.9412 -0.2380  1.3198
19102TIP3    H278722   4.636   4.338   6.306  0.6492  1.0530 -0.8762
19103TIP3   OH278723   6.684   4.968  14.171  0.1928  0.0018  0.2946
19103TIP3    H178724   6.617   5.035  14.182 -0.4971 -0.2387 -1.8827
19103TIP3    H278725   6.765   5.017  14.153  0.1005  0.2687  0.6132
19104TIP3   OH278726   5.424   0.130   0.676 -0.0404  0.2678  0.1734
19104TIP3    H178727   5.495   0.147   0.739 -0.7793  2.6052  0.4703
19104TIP3    H278728   5.383   0.050   0.708  1.7901 -0.5486  0.6045
19105TIP3   OH278729   2.512   6.307  14.888 -0.1564 -0.1534 -0.1361
19105TIP3    H178730   2.559   6.390  14.877  1.1434 -0.8088  0.2873
19105TIP3    H278731   2.561   6.260  14.955 -1.9653 -0.5115  1.0102
19106TIP3   OH278732   2.889   3.211  12.834 -0.0415  0.3411  0.3009
19106TIP3    H178733   2.816   3.243  12.887 -0.1740 -1.3192  1.2077
19106TIP3    H278734   2.967   3.238  12.882 -0.0743  1.0501 -0.0261
19107TIP3   OH278735   1.148   6.078   4.157 -0.0108 -0.2267 -0.2695
19107TIP3    H178736   1.121   6.040   4.073  1.4440 -1.5544 -0.1927
19107TIP3    H278737   1.219   6.138   4.135 -0.1329 -0.0062 -0.0668
19108TIP3   OH278738   2.145   2.125   6.240 -0.0805  0.0734 -0.0170
19108TIP3    H178739   2.189   2.177   6.308 -0.1662  0.6827 -0.4166
19108TIP3    H278740   2.170   2.035   6.259 -0.2423  0.2176  0.9252
19109TIP3   OH278741   5.703   0.057   4.455  0.4355 -1.0678  0.8204
19109TIP3    H178742   5.763   0.054   4.530  1.2322 -1.1650  0.1928
19109TIP3    H278743   5.677  -0.034   4.442  0.0828 -1.0159  1.1402
19110TIP3   OH278744   3.294   6.462  14.603 -0.4069  0.1813  0.0794
19110TIP3    H178745   3.260   6.373  14.588 -0.5092  0.1542  0.4764
19110TIP3    H278746   3.389   6.452  14.599 -0.4056  0.4224 -2.0513
19111TIP3   OH278747   5.995   6.569  14.918 -0.3086  0.5995  0.3124
19111TIP3    H178748   5.972   6.476  14.920  3.0204 -0.4358 -1.3655
19111TIP3    H278749   6.037   6.585  15.002  0.7083  0.0393 -0.0705
19112TIP3   OH278750   3.045   1.549  12.276  0.3240  0.1290  0.3983
19112TIP3    H178751   3.076   1.632  12.313  1.8232 -0.0790 -0.2985
19112TIP3    H278752   3.100   1.536  12.199 -2.1865  0.1805 -1.5226
19113TIP3   OH278753   3.923   4.572  17.227  0.3358  0.5537 -0.4544
19113TIP3    H178754   3.987   4.609  17.166  0.5891  1.2091  0.1962
19113TIP3    H278755   3.963   4.492  17.259  3.3500  3.3459  3.8927
19114TIP3   OH278756   6.548   0.945  15.838 -0.0392  0.4741  0.5625
19114TIP3    H178757   6.503   0.974  15.917  1.4147 -0.2463  1.7190
19114TIP3    H278758   6.535   0.851  15.836 -1.6618  0.6923 -1.1513
19115TIP3   OH278759   2.250   6.007   1.521 -0.0842 -0.6102  0.5006
19115TIP3    H178760   2.307   5.975   1.591 -0.2008  0.2336  0.9872
19115TIP3    H278761   2.309   6.024   1.448  0.4288  1.0027  1.2499
19116TIP3   OH278762   3.830   1.267  16.440 -0.2682  0.2864  0.4267
19116TIP3    H178763   3.819   1.242  16.532  0.2694 -0.0025  0.4186
19116TIP3    H278764   3.924   1.262  16.425 -0.2493  1.3360  0.1385
19117TIP3   OH278765   1.472   1.434  12.129  0.2100  0.0818  0.4251
19117TIP3    H178766   1.554   1.416  12.174  0.7136  0.4538 -0.3053
19117TIP3    H278767   1.495   1.502  12.065 -0.8512  0.7838  0.7690
19118TIP3   OH278768   5.478   6.099   2.167  0.4908 -0.2432  0.1482
19118TIP3    H178769   5.399   6.076   2.216  0.3332  0.2071  0.1130
19118TIP3    H278770   5.522   6.163   2.223  0.6446 -0.2186 -0.0018
19119TIP3   OH278771   2.112   3.383   3.324  0.4115 -0.4778  0.2911
19119TIP3    H178772   2.103   3.449   3.254  1.2595  0.0497  0.6604
19119TIP3    H278773   2.092   3.300   3.281 -1.2803  0.0592 -0.0515
19120TIP3   OH278774   1.060   6.236   1.377 -0.8259 -0.0816 -0.2360
19120TIP3    H178775   1.006   6.210   1.302  0.6248 -0.1639 -1.3091
19120TIP3    H278776   1.098   6.319   1.351  0.4399 -0.5722 -0.0136
19121TIP3   OH278777   0.700   3.768   0.316  0.0533  0.0057 -0.1066
19121TIP3    H178778   0.646   3.695   0.346 -0.0778 -0.3182 -1.0899
19121TIP3    H278779   0.679   3.839   0.375 -0.7580 -0.3956  0.1014
19122TIP3   OH278780   3.300   3.506   2.345  0.7040  0.5103 -0.5158
19122TIP3    H178781   3.238   3.551   2.287  0.3982  2.2921  1.1087
19122TIP3    H278782   3.332   3.574   2.404  3.5863 -0.5332 -0.7080
19123TIP3   OH278783   1.516   2.655  14.520 -0.0816 -0.3738  0.4967
19123TIP3    H178784   1.456   2.721  14.487  0.7631 -0.1652 -0.7147
19123TIP3    H278785   1.562   2.697  14.592 -1.3814 -0.5452  1.4463
19124TIP3   OH278786   0.954   5.214  16.672 -0.1611 -0.0013  0.0004
19124TIP3    H178787   0.942   5.289  16.731 -1.3698  1.7723 -2.3095
19124TIP3    H278788   1.033   5.234  16.623 -1.5171  0.8528 -1.9782
19125TIP3   OH278789   4.787   1.930  16.487 -0.9411  0.4542 -0.4052
19125TIP3    H178790   4.819   1.990  16.421 -0.1480  0.7338  0.2185
19125TIP3    H278791   4.841   1.852  16.478 -1.2969  0.2192 -0.5448
19126TIP3   OH278792   5.086   1.827   6.128 -0.2233  0.3727  0.5486
19126TIP3    H178793   5.005   1.776   6.124 -0.4036  0.7332 -0.7787
19126TIP3    H278794   5.135   1.788   6.200 -0.5282 -1.4341 -0.1748
19127TIP3   OH278795   2.426   4.934  16.916 -0.1735 -0.3641 -0.2260
19127TIP3    H178796   2.343   4.950  16.961  1.0361  0.2164  1.9566
19127TIP3    H278797   2.476   4.880  16.977  0.4006 -2.3532 -2.2977
19128TIP3   OH278798   3.373   3.233   6.018  0.1298 -0.4542 -0.3035
19128TIP3    H178799   3.345   3.167   6.081 -1.0159  1.7315  1.5992
19128TIP3    H278800   3.292   3.273   5.986  0.8007  1.8136  0.6345
19129TIP3   OH278801   2.318   0.231  12.811 -0.2202  0.4800  0.0277
19129TIP3    H178802   2.399   0.277  12.790  1.4704 -1.3650  1.9652
19129TIP3    H278803   2.302   0.251  12.904 -0.6321 -1.0205  0.3103
19130TIP3   OH278804   5.032   2.460   3.048  0.2541 -0.2523  0.4824
19130TIP3    H178805   5.047   2.553   3.061  0.3088 -0.4015  1.5211
19130TIP3    H278806   5.119   2.424   3.031 -0.0333  0.2848 -2.8618
19131TIP3   OH278807   6.164   4.183  17.077  0.7405 -0.2773  0.7592
19131TIP3    H178808   6.260   4.179  17.077  0.7721  0.2185 -0.0179
19131TIP3    H278809   6.144   4.275  17.059  0.1387 -0.9243 -2.4916
19132TIP3   OH278810   4.901   4.181   6.644  0.3295 -0.2378 -0.1738
19132TIP3    H178811   4.896   4.111   6.710 -0.5958 -1.7074 -1.7291
19132TIP3    H278812   4.842   4.153   6.575 -0.6114  2.4418 -0.5900
19133TIP3   OH278813   0.602   2.768   2.276  0.3950 -0.3912 -0.8162
19133TIP3    H178814   0.682   2.798   2.233  2.3054  0.1074  2.7294
19133TIP3    H278815   0.620   2.677   2.299  0.4051 -0.0187  0.7895
19134TIP3   OH278816   0.097   4.667   5.216 -0.2316  0.0017  0.5047
19134TIP3    H178817   0.015   4.669   5.167  0.4430 -0.4619 -0.6674
19134TIP3    H278818   0.089   4.591   5.273 -0.9895  0.4999  1.0844
19135TIP3   OH278819   0.705   1.091  13.313 -0.7706  0.7053  0.1059
19135TIP3    H178820   0.657   1.011  13.336 -1.2199  1.1551  0.7804
19135TIP3    H278821   0.684   1.152  13.384 -1.2203  1.7590 -0.9058
19136TIP3   OH278822   1.034   2.266  16.252 -0.2001 -0.1987  0.4500
19136TIP3    H178823   1.027   2.303  16.340 -0.3600 -1.2358  0.8835
19136TIP3    H278824   1.114   2.304  16.216 -0.4022  0.6206  0.8431
19137TIP3   OH278825   6.092   0.329   1.077  0.0085 -0.3144 -0.3098
19137TIP3    H178826   6.150   0.402   1.056  0.3435 -0.2584  0.7248
19137TIP3    H278827   6.087   0.277   0.997 -0.3579  0.9215 -1.1045
19138TIP3   OH278828   4.292   3.034   0.842  0.4327 -0.0367  0.4383
19138TIP3    H178829   4.272   3.101   0.907  0.3763 -1.8204  2.3705
19138TIP3    H278830   4.221   2.970   0.851 -0.2440  0.2059 -2.2739
19139TIP3   OH278831   5.621   1.498   3.221 -0.0844 -0.1699  0.2436
19139TIP3    H178832   5.575   1.441   3.159 -0.5663  0.1670  0.2896
19139TIP3    H278833   5.574   1.487   3.303 -1.5461  1.9071 -0.2369
19140TIP3   OH278834   1.275   6.298  14.744  0.8341 -0.8165 -0.2861
19140TIP3    H178835   1.279   6.212  14.785  1.6102 -0.5976  0.1064
19140TIP3    H278836   1.186   6.329  14.761  1.5839  0.0111  2.7801
19141TIP3   OH278837   4.806   0.558  14.094  0.7532  0.3973 -0.6218
19141TIP3    H178838   4.793   0.583  14.186 -0.0868  0.2744 -0.7024
19141TIP3    H278839   4.866   0.483  14.098 -0.4240 -0.5429 -0.0660
19142TIP3   OH278840   2.495   1.153  14.038  0.0164 -0.2914 -0.2708
19142TIP3    H178841   2.526   1.172  13.950 -0.2030 -0.8359 -0.4724
19142TIP3    H278842   2.452   1.067  14.030  1.1049 -0.9452  0.6104
19143TIP3   OH278843   4.371   4.851   4.939  0.7547  0.3920 -0.0230
19143TIP3    H178844   4.377   4.890   5.026  0.0761 -2.5260  1.4635
19143TIP3    H278845   4.455   4.807   4.927  0.3011 -0.4428 -0.1780
19144TIP3   OH278846   6.563   5.169   3.577 -0.1962  0.4717 -0.1630
19144TIP3    H178847   6.531   5.189   3.665  1.1023 -0.5057  0.5736
19144TIP3    H278848   6.634   5.231   3.562  0.8683 -0.6026  0.2975
19145TIP3   OH278849   4.961   2.154  15.352 -0.1661 -0.0476 -0.1040
19145TIP3    H178850   4.923   2.237  15.380  0.6027  0.4396 -0.4722
19145TIP3    H278851   4.886   2.093  15.348 -0.8582  0.8095 -0.5516
19146TIP3   OH278852   4.486   5.677  12.252 -0.1300  0.3016 -0.1699
19146TIP3    H178853   4.515   5.620  12.323 -2.0484  0.3326  0.6929
19146TIP3    H278854   4.391   5.682  12.262 -0.3419  1.0957 -2.1683
19147TIP3   OH278855   2.498   6.754  12.510  0.0144  0.6665 -0.2292
19147TIP3    H178856   2.512   6.831  12.566 -0.2291  0.9350 -0.5357
19147TIP3    H278857   2.478   6.684  12.572  1.7767  0.4785  0.1655
19148TIP3   OH278858   6.589   1.431   1.760  0.0830 -0.6451  0.2260
19148TIP3    H178859   6.608   1.424   1.667 -2.8830 -3.1989 -0.3242
19148TIP3    H278860   6.652   1.373   1.802  0.8508 -0.1750 -0.2597
19149TIP3   OH278861   5.949   1.894  15.409 -0.5191 -0.2094 -0.0589
19149TIP3    H178862   6.010   1.831  15.447 -0.9638 -1.0210 -0.6526
19149TIP3    H278863   6.005   1.962  15.371 -0.0518  0.1579  1.2384
19150TIP3   OH278864   1.648   2.918   3.753  0.5206 -0.7847  0.2723
19150TIP3    H178865   1.614   2.942   3.839  1.1487  0.1185  0.2809
19150TIP3    H278866   1.628   2.993   3.697 -0.2107 -1.5137 -0.4711
19151TIP3   OH278867   1.595   0.318   3.730  0.0031 -0.4567  0.6088
19151TIP3    H178868   1.678   0.349   3.692 -0.5860 -2.3566 -2.7159
19151TIP3    H278869   1.541   0.396   3.736 -0.1298  0.0603 -3.6890
19152TIP3   OH278870   0.554   5.333  15.853  0.3187  0.3789  0.6154
19152TIP3    H178871   0.487   5.369  15.795  0.1641  0.1835  0.6724
19152TIP3    H278872   0.506   5.290  15.923  0.4703 -1.0918 -0.1487
19153TIP3   OH278873   1.058   6.646   3.374  0.9070  0.1348 -0.1803
19153TIP3    H178874   1.049   6.723   3.318  1.4610 -0.8922 -1.7209
19153TIP3    H278875   0.990   6.658   3.441 -1.2462  0.3923 -2.2532
19154TIP3   OH278876   5.060   6.487  14.443 -0.3848  0.0090 -0.0849
19154TIP3    H178877   5.009   6.443  14.375  0.0313  0.1318 -0.4872
19154TIP3    H278878   5.104   6.417  14.490 -2.1845 -0.2338  1.3442
19155TIP3   OH278879   1.514   2.516  11.173  0.6209 -0.3540 -0.5227
19155TIP3    H178880   1.474   2.575  11.109 -0.6448  0.1103  0.6571
19155TIP3    H278881   1.541   2.440  11.121 -1.1173 -0.3523 -1.5121
19156TIP3   OH278882   1.842   1.135   1.763  0.1941  0.3212  0.3615
19156TIP3    H178883   1.796   1.098   1.839 -1.6531 -1.2099 -1.3777
19156TIP3    H278884   1.922   1.084   1.757 -0.8085 -1.2785 -0.1049
19157TIP3   OH278885   2.554   0.062   2.758  0.2018 -1.2788 -0.1566
19157TIP3    H178886   2.624   0.106   2.806 -0.2826  0.1570 -0.7126
19157TIP3    H278887   2.481   0.056   2.820  0.3158 -1.4454 -0.0375
19158TIP3   OH278888   6.575   5.622   2.051  0.4563 -0.2314 -0.3233
19158TIP3    H178889   6.653   5.579   2.015  1.6698  0.6449  1.1341
19158TIP3    H278890   6.528   5.655   1.975  2.1045  0.1915 -1.1967
19159TIP3   OH278891   4.574   1.457   1.555  0.1139  0.1407  0.0579
19159TIP3    H178892   4.544   1.367   1.570 -0.0777 -0.0303 -1.2746
19159TIP3    H278893   4.518   1.510   1.611 -0.1143 -0.5213  0.4751
19160TIP3   OH278894   1.160   4.744  14.356  0.1492  0.5535 -0.1759
19160TIP3    H178895   1.210   4.814  14.315 -1.1143  0.7430 -1.4850
19160TIP3    H278896   1.189   4.664  14.312 -0.6605  0.6678 -0.9654
19161TIP3   OH278897   6.374   1.124  17.016  0.0266 -0.1978 -0.2710
19161TIP3    H178898   6.376   1.219  17.023  0.8881 -0.1662 -0.7525
19161TIP3    H278899   6.421   1.105  16.935  1.9160 -1.1218  0.9519
19162TIP3   OH278900   0.584   4.975   1.673  0.2808 -0.7185 -0.2433
19162TIP3    H178901   0.664   4.995   1.722 -1.5047  1.9655  1.8148
19162TIP3    H278902   0.589   5.030   1.595  0.7786 -1.1545 -0.5248
19163TIP3   OH278903   6.032   0.901  14.728  0.2229 -0.2362 -0.3187
19163TIP3    H178904   6.117   0.946  14.722  0.2599 -0.3398 -0.6099
19163TIP3    H278905   6.003   0.893  14.637 -0.2582  0.0940 -0.1985
19164TIP3   OH278906   4.789   3.374   6.307 -0.5470 -0.0023  0.3763
19164TIP3    H178907   4.882   3.379   6.328 -0.2184  1.8237 -1.2887
19164TIP3    H278908   4.745   3.419   6.379 -0.1489 -0.5291  0.9661
19165TIP3   OH278909   5.350   2.287   5.570  0.1381 -1.0280  0.1138
19165TIP3    H178910   5.324   2.357   5.629  0.1606 -0.7092 -0.2465
19165TIP3    H278911   5.427   2.321   5.525 -0.2636 -0.9892 -0.5713
19166TIP3   OH278912   5.265   0.085  17.105  0.6976  0.5215  0.2993
19166TIP3    H178913   5.261   0.047  17.193  0.0334 -0.7101 -0.2340
19166TIP3    H278914   5.355   0.117  17.096  0.8119  0.5350  1.3668
19167TIP3   OH278915   5.661   3.698  16.144 -0.0746 -0.1554  1.0241
19167TIP3    H178916   5.580   3.666  16.184  0.1427  0.2766  1.8159
19167TIP3    H278917   5.725   3.628  16.159 -0.8001 -1.4748 -1.4747
19168TIP3   OH278918   2.819   2.945   3.266 -0.3289  0.3185  0.5518
19168TIP3    H178919   2.751   2.964   3.202  0.2634  0.2067 -0.1199
19168TIP3    H278920   2.877   3.021   3.265  0.0236  0.0551  0.5021
19169TIP3   OH278921   6.131   0.887  15.944 -0.4315 -0.0358 -0.2769
19169TIP3    H178922   6.158   0.974  15.915  1.9883  0.2973  2.5196
19169TIP3    H278923   6.049   0.902  15.991 -0.5233  0.5697 -0.6188
19170TIP3   OH278924   2.195   1.223  13.904 -0.1456 -0.2551 -0.5587
19170TIP3    H178925   2.157   1.143  13.941  1.8500 -1.3354 -0.6593
19170TIP3    H278926   2.163   1.226  13.814 -1.0404 -0.3820 -0.2489
19171TIP3   OH278927   6.145   3.337   5.074  0.3247  0.4972 -0.3637
19171TIP3    H178928   6.228   3.377   5.101 -0.2543 -0.0011  2.4754
19171TIP3    H278929   6.110   3.298   5.154 -1.0091 -2.3739 -2.1871
19172TIP3   OH278930   2.857   6.471   4.843  0.4695 -0.2457  0.2131
19172TIP3    H178931   2.948   6.477   4.813  0.4459  1.2610  0.3528
19172TIP3    H278932   2.863   6.470   4.938  0.2996  1.3690  0.2591
19173TIP3   OH278933   4.515   5.468  13.175 -0.4552 -0.3798 -0.0510
19173TIP3    H178934   4.595   5.461  13.227  0.3012  0.0959 -1.1366
19173TIP3    H278935   4.542   5.511  13.094 -1.3654 -2.2008 -1.3890
19174TIP3   OH278936   2.203   6.356  14.533 -0.0466 -0.5361 -0.7285
19174TIP3    H178937   2.112   6.381  14.549 -0.1021 -0.8846 -0.5048
19174TIP3    H278938   2.237   6.426  14.477 -0.6181 -0.6951 -1.2838
19175TIP3   OH278939   4.730   2.010  16.228 -0.5619 -0.3924  0.2884
19175TIP3    H178940   4.810   1.959  16.215  0.2270  0.5698  1.2298
19175TIP3    H278941   4.759   2.101  16.222 -1.3645 -0.0155  1.8337
19176TIP3   OH278942   2.491   5.376   2.104 -0.5360 -0.0040  0.4339
19176TIP3    H178943   2.562   5.396   2.164  0.0810  0.4182 -0.4124
19176TIP3    H278944   2.419   5.434   2.130 -0.4642 -0.2014  1.0833
19177TIP3   OH278945   5.841   4.646   5.604 -0.0889  0.2362 -0.0658
19177TIP3    H178946   5.784   4.579   5.643 -0.0236  0.1513 -0.1172
19177TIP3    H278947   5.870   4.608   5.522 -0.5580  0.5849 -0.3975
19178TIP3   OH278948   6.351   5.393  16.227 -0.6842  0.7031 -0.4893
19178TIP3    H178949   6.414   5.349  16.170 -2.2245 -0.1518 -1.6180
19178TIP3    H278950   6.282   5.423  16.168 -1.0913  2.1044  0.6372
19179TIP3   OH278951   4.708   4.940   5.848 -0.1390  0.3638  0.9352
19179TIP3    H178952   4.612   4.944   5.845 -0.1039  0.7071 -1.5662
19179TIP3    H278953   4.732   4.999   5.920 -1.7964 -0.9367  2.6717
19180TIP3   OH278954   6.538   3.128  16.123 -0.6752 -0.2502 -0.2785
19180TIP3    H178955   6.502   3.044  16.093 -0.9849 -0.7247  1.3073
19180TIP3    H278956   6.624   3.133  16.083 -1.0928 -0.8027 -1.2818
19181TIP3   OH278957   6.422   1.751   3.809  0.6727  0.4657  0.4306
19181TIP3    H178958   6.328   1.765   3.800  0.7644  0.1482 -1.2669
19181TIP3    H278959   6.462   1.826   3.764  1.2629  0.9292  1.6711
19182TIP3   OH278960   1.832   1.671   3.516  0.1144  0.9331  0.0975
19182TIP3    H178961   1.776   1.677   3.439  0.5064  0.9118 -0.1887
19182TIP3    H278962   1.774   1.635   3.584 -0.9478  3.2780  0.5335
19183TIP3   OH278963   4.333   3.707  16.543  0.4480  0.3461 -0.0821
19183TIP3    H178964   4.244   3.692  16.509  0.1186 -2.0237  1.5487
19183TIP3    H278965   4.322   3.777  16.607 -0.0769  0.6633 -0.5059
19184TIP3   OH278966   3.084   2.986   2.434 -0.1298  0.1608 -0.2084
19184TIP3    H178967   3.140   3.010   2.360 -0.5689 -3.2757 -1.8753
19184TIP3    H278968   3.144   2.975   2.507  0.6161  1.5819 -0.5768
19185TIP3   OH278969   4.319   5.794  12.773 -0.4300  0.0766 -0.5313
19185TIP3    H178970   4.267   5.837  12.705  0.6985  3.1379  0.3694
19185TIP3    H278971   4.324   5.858  12.844  0.3033 -2.1268  1.5475
19186TIP3   OH278972   1.829   0.236  16.658 -0.0622 -0.4388 -0.5023
19186TIP3    H178973   1.776   0.254  16.735  0.4631  1.4971 -0.5388
19186TIP3    H278974   1.919   0.238  16.689  0.1009 -1.6691 -0.8242
19187TIP3   OH278975   3.342   3.076  12.338 -0.0871 -0.9508 -0.8611
19187TIP3    H178976   3.322   2.986  12.364  0.8320 -1.3492 -1.4871
19187TIP3    H278977   3.412   3.067  12.273 -0.0526  0.2125 -0.9975
19188TIP3   OH278978   5.618   0.298  10.573 -0.1249  0.7819 -0.4118
19188TIP3    H178979   5.687   0.349  10.616  0.0337  1.0244 -0.9442
19188TIP3    H278980   5.664   0.253  10.502 -0.4629  0.7065 -0.5809
19189TIP3   OH278981   2.918   4.622  15.469  0.3279 -0.7505  0.9137
19189TIP3    H178982   2.912   4.667  15.384  1.5314 -0.4918  0.9454
19189TIP3    H278983   2.870   4.679  15.529  0.1192 -0.5414  0.5540
19190TIP3   OH278984   3.747   2.473   1.952  0.6401  0.0707 -0.3244
19190TIP3    H178985   3.753   2.467   1.856 -2.2286  2.7736 -0.8389
19190TIP3    H278986   3.758   2.566   1.971 -0.6128 -0.1470  1.7565
19191TIP3   OH278987   2.786   4.409  12.686 -0.0371 -0.1851  0.1814
19191TIP3    H178988   2.773   4.316  12.702 -0.7468 -0.4710 -1.8480
19191TIP3    H278989   2.860   4.414  12.626 -0.7201  0.4490 -0.6505
19192TIP3   OH278990   5.015   4.128   4.361  1.3198  0.1662 -0.2510
19192TIP3    H178991   5.007   4.115   4.455  1.8465 -0.0789 -0.2343
19192TIP3    H278992   5.065   4.052   4.330  3.4525  1.5283 -0.3192
19193TIP3   OH278993   2.463   0.130  11.995  0.0394 -0.0746 -0.2973
19193TIP3    H178994   2.527   0.201  11.990  0.9059 -0.8926 -3.8927
19193TIP3    H278995   2.396   0.154  11.931 -0.5645 -1.6465 -0.2962
19194TIP3   OH278996   3.904   6.493  15.302  0.0073 -0.0366  0.2101
19194TIP3    H178997   3.833   6.443  15.261 -0.3677  1.2113 -0.7424
19194TIP3    H278998   3.876   6.584  15.294  1.8822  0.5275 -0.5306
19195TIP3   OH278999   1.360   2.158  16.521 -0.3698 -0.4012 -0.1288
19195TIP3    H179000   1.357   2.112  16.437  2.2331  0.5703 -0.8471
19195TIP3    H279001   1.310   2.239  16.506  0.4415 -0.0349 -0.8906
19196TIP3   OH279002   4.567   1.216   6.671  0.0194 -0.0114  0.2470
19196TIP3    H179003   4.620   1.137   6.664  0.9949  0.6998 -0.9400
19196TIP3    H279004   4.480   1.186   6.694  0.1395 -1.5144 -1.1306
19197TIP3   OH279005   3.414   5.694  14.842 -0.2607 -0.1262  0.1771
19197TIP3    H179006   3.451   5.782  14.846  0.1957 -0.2954 -0.1993
19197TIP3    H279007   3.344   5.694  14.908 -1.6098  1.1389 -1.1558
19198TIP3   OH279008   6.041   0.100   3.879  0.3633 -0.3575  0.0764
19198TIP3    H179009   6.082   0.081   3.963  0.4948 -1.1876 -0.1662
19198TIP3    H279010   5.947   0.096   3.898  0.3778  1.1580  0.5451
19199TIP3   OH279011   1.524   2.912   6.624  0.5986 -0.0517  0.1182
19199TIP3    H179012   1.478   2.829   6.610  1.2544 -0.5164  0.6868
19199TIP3    H279013   1.456   2.979   6.614 -0.8122 -0.8239  3.2706
19200TIP3   OH279014   4.912   6.390  12.617  0.2468 -0.1618 -0.2940
19200TIP3    H179015   4.844   6.332  12.650 -1.4498  2.3448  0.9183
19200TIP3    H279016   4.880   6.416  12.530 -0.6079  1.2936  0.4196
19201TIP3   OH279017   5.532   0.482   2.915  0.0712 -0.6764  0.1981
19201TIP3    H179018   5.512   0.557   2.970  0.2110 -0.6835  0.2578
19201TIP3    H279019   5.465   0.417   2.938 -0.6442 -0.2272 -0.5404
19202TIP3   OH279020   2.016   0.821   0.642 -0.0097  0.2200 -0.9922
19202TIP3    H179021   2.031   0.916   0.646  0.1954  0.1826 -0.8521
19202TIP3    H279022   2.045   0.789   0.728 -1.6412  0.2469 -0.4082
19203TIP3   OH279023   4.735   6.557   4.214  0.0109 -0.1057  0.5293
19203TIP3    H179024   4.673   6.589   4.149  0.8382 -0.2256 -0.3514
19203TIP3    H279025   4.696   6.477   4.247 -0.3737 -0.1059  0.0897
19204TIP3   OH279026   1.048   2.626   5.677  0.7234 -0.0795  0.0911
19204TIP3    H179027   1.085   2.567   5.743  1.2498 -1.0281 -0.9995
19204TIP3    H279028   1.103   2.704   5.680  0.7136 -0.1006  0.8016
19205TIP3   OH279029   2.407   6.627  16.541 -0.2086 -0.3741 -0.0305
19205TIP3    H179030   2.360   6.696  16.587 -2.4417 -1.8516  0.0443
19205TIP3    H279031   2.425   6.663  16.455  1.0146  1.1965  0.8306
19206TIP3   OH279032   5.264   5.589  11.725 -0.3980 -0.3435  0.3331
19206TIP3    H179033   5.203   5.589  11.651  0.0154 -0.5038 -0.0114
19206TIP3    H279034   5.233   5.660  11.782 -0.4694  0.0596 -0.2022
19207TIP3   OH279035   0.561   1.145   3.372 -0.2674  0.2747 -0.3205
19207TIP3    H179036   0.543   1.094   3.293 -0.7593  0.5069 -0.3595
19207TIP3    H279037   0.657   1.154   3.373 -0.2329 -0.0031 -0.7137
19208TIP3   OH279038   0.727   6.220   4.396  0.0044  0.1008  0.1127
19208TIP3    H179039   0.685   6.216   4.482 -0.0827 -1.4543  0.0318
19208TIP3    H279040   0.731   6.314   4.376 -1.3864  0.4185  1.1159
19209TIP3   OH279041   5.395   5.137  11.636 -0.1653 -0.1484  0.3099
19209TIP3    H179042   5.329   5.070  11.653 -0.6910  0.5276  1.0170
19209TIP3    H279043   5.346   5.211  11.599  0.3378  0.0194 -0.0456
19210TIP3   OH279044   5.979   0.822   5.339  0.2795  0.4366  0.4725
19210TIP3    H179045   5.911   0.796   5.401  0.2361  0.7178  0.5438
19210TIP3    H279046   6.054   0.844   5.395  0.4046  0.2033  0.3987
19211TIP3   OH279047   1.707   5.213  14.577 -0.1284  0.0502  0.6075
19211TIP3    H179048   1.617   5.225  14.546 -0.2895  1.1561  1.4514
19211TIP3    H279049   1.707   5.127  14.619 -0.6649 -0.1656  0.1727
19212TIP3   OH279050   5.866   4.398  16.864 -0.2835  0.4793 -0.4319
19212TIP3    H179051   5.772   4.398  16.879 -0.2149  1.0199  0.0763
19212TIP3    H279052   5.880   4.337  16.792 -0.9021 -0.4609  0.2224
19213TIP3   OH279053   5.116   2.448  15.663  0.1795  0.4957 -0.4937
19213TIP3    H179054   5.096   2.504  15.738  0.0882 -0.7612  0.4521
19213TIP3    H279055   5.210   2.430  15.671  0.5178  1.6201 -1.5991
19214TIP3   OH279056   6.371   5.503  11.683 -0.0231  0.0890  0.6480
19214TIP3    H179057   6.445   5.475  11.628  0.9978  0.9079  1.5549
19214TIP3    H279058   6.331   5.575  11.635  0.1918  0.0956  0.4759
19215TIP3   OH279059   3.941   4.398  16.496  0.8223  0.1011 -0.0093
19215TIP3    H179060   3.913   4.377  16.407  1.9663 -1.3456 -0.0713
19215TIP3    H279061   3.882   4.347  16.553  1.4553 -0.6708 -0.0335
19216TIP3   OH279062   5.973   4.565   4.785  0.0729 -0.1721  0.0040
19216TIP3    H179063   6.012   4.515   4.857 -0.6602 -0.4631  0.2004
19216TIP3    H279064   6.024   4.646   4.783  0.2095 -0.2327  0.7407
19217TIP3   OH279065   0.807   4.706   6.902  0.0377 -0.0011  0.7169
19217TIP3    H179066   0.847   4.627   6.939 -0.2917 -0.2113  0.6270
19217TIP3    H279067   0.783   4.759   6.978  0.1263 -0.0540  0.7816
19218TIP3   OH279068   2.947   5.404   2.842 -0.4841  0.1655 -0.0528
19218TIP3    H179069   2.908   5.362   2.918  0.5765  1.1602  1.0776
19218TIP3    H279070   2.938   5.498   2.859  1.5812  0.4306 -0.1388
19219TIP3   OH279071   2.644   3.520   3.637  0.1262  0.4276  0.4397
19219TIP3    H179072   2.558   3.561   3.645  0.2719  0.8818 -0.2749
19219TIP3    H279073   2.625   3.431   3.607 -0.0675  0.7018 -0.2678
19220TIP3   OH279074   0.619   4.488   3.513 -0.3951  0.2264 -0.0854
19220TIP3    H179075   0.692   4.458   3.567 -0.5765  1.7940  1.0867
19220TIP3    H279076   0.549   4.426   3.532  0.2463 -0.5861 -0.3071
19221TIP3   OH279077   2.666   2.362   6.769  0.6891 -0.0759 -0.1801
19221TIP3    H179078   2.706   2.426   6.711  1.6785 -0.6021 -0.0857
19221TIP3    H279079   2.576   2.395   6.781 -0.1949 -0.9465 -3.4757
19222TIP3   OH279080   0.598   2.913   1.830  0.3370  0.1524 -0.1878
19222TIP3    H179081   0.546   2.940   1.905  0.8668  1.4533 -0.2543
19222TIP3    H279082   0.688   2.907   1.864  0.4101 -0.4275 -0.4557
19223TIP3   OH279083   2.072   3.277  13.585 -0.1465  0.1611  0.2889
19223TIP3    H179084   2.063   3.371  13.568 -0.7188  0.0486 -0.0458
19223TIP3    H279085   1.985   3.241  13.566  0.0893 -0.4460  0.3537
19224TIP3   OH279086   6.199   2.765   0.125  0.1189  0.1518  0.0744
19224TIP3    H179087   6.279   2.796   0.083  1.0336 -0.4258  1.3126
19224TIP3    H279088   6.141   2.841   0.126  1.1363  0.9470  0.2821
19225TIP3   OH279089   5.035   4.439  15.863  0.0939  0.3553  0.0900
19225TIP3    H179090   5.115   4.490  15.873  1.1419 -1.3857  1.2580
19225TIP3    H279091   4.967   4.491  15.906  1.0290  0.9430  0.8918
19226TIP3   OH279092   1.453   6.638   4.629  0.1827  0.3226 -0.6743
19226TIP3    H179093   1.516   6.602   4.567 -1.3633  0.3388 -2.3178
19226TIP3    H279094   1.400   6.563   4.654  0.2879  0.4773  0.0311
19227TIP3   OH279095   4.966   6.269   5.704 -0.4497  0.4200  0.1171
19227TIP3    H179096   4.876   6.282   5.733 -0.3810 -0.8012  0.9383
19227TIP3    H279097   4.998   6.195   5.755  1.2766  1.2967  0.3936
19228TIP3   OH279098   2.463   4.961   0.206 -0.2097 -0.1679  0.2917
19228TIP3    H179099   2.399   4.913   0.258  0.5253 -1.9135 -0.3476
19228TIP3    H279100   2.547   4.943   0.249  0.2095 -0.3701 -0.5986
19229TIP3   OH279101   4.158   2.342  11.336 -0.2269 -0.2750  0.4518
19229TIP3    H179102   4.192   2.269  11.285  2.3038  1.6306 -0.7767
19229TIP3    H279103   4.096   2.386  11.278 -0.6668 -0.6057  0.6653
19230TIP3   OH279104   3.745   1.963  12.383 -0.6827 -0.2259  0.6014
19230TIP3    H179105   3.765   2.015  12.461 -0.6925 -0.6089  0.8671
19230TIP3    H279106   3.655   1.986  12.361 -0.6778 -0.1098  0.7044
19231TIP3   OH279107   1.679   5.972  12.007 -0.1843 -0.0422 -0.7836
19231TIP3    H179108   1.743   5.927  11.951  0.2519  1.2233 -1.3284
19231TIP3    H279109   1.682   6.063  11.978 -0.8377  0.4048  0.4994
19232TIP3   OH279110   5.941   5.218   2.507  0.0468 -0.1873  0.0412
19232TIP3    H179111   5.899   5.302   2.526  0.2005  0.0889 -0.8012
19232TIP3    H279112   5.867   5.157   2.500 -0.2320  0.2616 -1.2461
19233TIP3   OH279113   0.600   0.988   1.599  0.1014 -0.3016 -0.0556
19233TIP3    H179114   0.603   0.892   1.596 -1.1632 -0.3407 -1.1237
19233TIP3    H279115   0.583   1.008   1.691  0.2183 -1.1133  0.1547
19234TIP3   OH279116   0.844   4.634  16.181  0.2750 -0.5986  0.3664
19234TIP3    H179117   0.939   4.645  16.178  0.4580 -2.0885 -1.9333
19234TIP3    H279118   0.809   4.707  16.130  0.2636 -0.6761  0.2624
19235TIP3   OH279119   5.161   0.413  15.217  0.5584 -0.1006  0.1506
19235TIP3    H179120   5.228   0.479  15.237  1.4299 -0.3259 -1.8631
19235TIP3    H279121   5.181   0.341  15.277  1.0980  0.4828  0.7021
19236TIP3   OH279122   3.287   2.723  14.855 -0.7589 -0.5176  0.1360
19236TIP3    H179123   3.285   2.632  14.824 -0.3541 -0.4929  0.0416
19236TIP3    H279124   3.213   2.765  14.809 -0.4947 -0.6152 -0.3904
19237TIP3   OH279125   4.795   6.141   0.401 -0.3826  0.4061 -0.4107
19237TIP3    H179126   4.889   6.135   0.418 -0.5366  0.0836  0.3984
19237TIP3    H279127   4.788   6.188   0.318  0.4653  1.4491  0.0837
19238TIP3   OH279128   5.843   0.314   2.587  0.1496  0.3054  0.3074
19238TIP3    H179129   5.894   0.258   2.528 -0.3956  1.1060 -0.9744
19238TIP3    H279130   5.839   0.399   2.542 -0.0822  1.0216  1.6226
19239TIP3   OH279131   4.915   4.794   4.935 -0.4521 -0.9393  0.4227
19239TIP3    H179132   4.962   4.742   4.869 -1.2879 -0.7015 -0.3711
19239TIP3    H279133   4.909   4.736   5.011 -1.8869 -2.2613 -0.6418
19240TIP3   OH279134   0.323   4.353  16.952 -0.2710 -0.1537  0.2090
19240TIP3    H179135   0.264   4.329  16.880  0.0767 -0.3546 -0.0170
19240TIP3    H279136   0.287   4.435  16.987  0.6852  1.0819 -1.5326
19241TIP3   OH279137   1.737   5.778  13.643  0.3530  0.0700 -0.4731
19241TIP3    H179138   1.692   5.696  13.663  0.8860 -0.4699 -1.3985
19241TIP3    H279139   1.777   5.805  13.726  0.6476 -0.9038 -0.2936
19242TIP3   OH279140   6.166   5.957   4.182 -0.1980 -0.3408 -0.2181
19242TIP3    H179141   6.260   5.940   4.186 -0.5573 -2.4187  0.6785
19242TIP3    H279142   6.151   6.021   4.252  0.4928 -0.2263 -0.1648
19243TIP3   OH279143   4.788   0.093   0.424 -0.4103 -0.3902 -0.0010
19243TIP3    H179144   4.797   0.009   0.470 -1.4977  0.1890  1.3414
19243TIP3    H279145   4.703   0.127   0.452 -0.3298  0.8155 -1.1255
19244TIP3   OH279146   6.248   6.355  16.123  0.9120  0.4263  0.3386
19244TIP3    H179147   6.295   6.294  16.066  0.9858  0.8436 -0.0512
19244TIP3    H279148   6.161   6.361  16.084  0.3117 -0.8149  1.3990
19245TIP3   OH279149   4.479   3.676  16.280  0.2129  0.0871 -0.3357
19245TIP3    H179150   4.442   3.702  16.364 -2.1515 -1.7045 -0.7060
19245TIP3    H279151   4.450   3.743  16.218  1.0287  0.8199  0.0580
19246TIP3   OH279152   1.278   0.732  16.469  0.2999  0.0284  0.5322
19246TIP3    H179153   1.312   0.731  16.380 -0.7071 -1.6777  0.1201
19246TIP3    H279154   1.262   0.640  16.490  1.2852  0.2925  2.8024
19247TIP3   OH279155   5.680   5.557  13.137 -0.1542 -0.2070 -0.1275
19247TIP3    H179156   5.756   5.500  13.145  1.0480  1.5840  2.1513
19247TIP3    H279157   5.690   5.598  13.051  1.7088  0.3172  0.3115
19248TIP3   OH279158   2.372   2.186   1.027  0.1537  0.1104 -0.3136
19248TIP3    H179159   2.319   2.151   1.099 -0.1566 -1.1512 -1.1253
19248TIP3    H279160   2.312   2.188   0.952  0.6065  0.9551 -0.6697
19249TIP3   OH279161   5.542   2.566   2.696  0.2957  0.4579 -0.0289
19249TIP3    H179162   5.457   2.605   2.717  0.4846  0.7850  0.1436
19249TIP3    H279163   5.534   2.537   2.605 -0.1607  0.0493  0.1331
19250TIP3   OH279164   6.508   5.451   2.288  0.0249  0.1908 -0.0951
19250TIP3    H179165   6.557   5.373   2.312 -0.2900  0.7657  2.7877
19250TIP3    H279166   6.558   5.489   2.216  1.9892 -0.9716  0.5742
19251TIP3   OH279167   1.794   0.244   0.982  0.3168 -0.0925  0.6740
19251TIP3    H179168   1.876   0.221   1.025  0.8618 -0.0538 -0.3223
19251TIP3    H279169   1.760   0.161   0.948 -0.1741 -0.1429  1.2816
19252TIP3   OH279170   2.854   1.116  13.319 -0.4350  0.2235 -0.5337
19252TIP3    H179171   2.848   1.205  13.352  2.9080  0.0005  1.0306
19252TIP3    H279172   2.815   1.062  13.388  1.3466  0.2190  0.5272
19253TIP3   OH279173   2.684   0.290  17.257  0.3833  0.4136 -0.1506
19253TIP3    H179174   2.752   0.352  17.284  0.9088 -0.2369  0.0499
19253TIP3    H279175   2.660   0.244  17.337 -1.3398  1.6029  0.0741
19254TIP3   OH279176   2.056   2.367  11.849  0.7166  0.1094 -0.2884
19254TIP3    H179177   1.972   2.412  11.844  0.9826  0.7684  0.7168
19254TIP3    H279178   2.045   2.288  11.797 -1.3305 -1.0658  1.7277
19255TIP3   OH279179   0.145   6.040   5.709  0.1083  0.0085  0.2688
19255TIP3    H179180   0.130   6.007   5.797 -0.5795 -1.1891 -0.2635
19255TIP3    H279181   0.184   5.966   5.662 -1.3684 -0.0623 -0.9455
19256TIP3   OH279182   3.314   0.485  15.779  0.4008 -0.0192 -0.3995
19256TIP3    H179183   3.347   0.456  15.694  2.6837  1.2393 -0.0184
19256TIP3    H279184   3.376   0.450  15.843  0.0125  0.9458  0.5464
19257TIP3   OH279185   3.508   1.161  16.383 -0.2494 -0.2106  0.2034
19257TIP3    H179186   3.430   1.185  16.432 -0.2943  0.5912 -0.2446
19257TIP3    H279187   3.564   1.238  16.387  1.2879 -1.3385  1.9501
19258TIP3   OH279188   5.445   0.171   2.838  0.6384  0.1673 -0.0995
19258TIP3    H179189   5.442   0.088   2.790  0.8405  0.3358 -0.4114
19258TIP3    H279190   5.483   0.232   2.775 -0.9309  0.8667 -0.4143
19259TIP3   OH279191   4.762   3.369  13.100  0.2382 -0.8407 -0.4758
19259TIP3    H179192   4.675   3.411  13.106  0.3474 -0.8019  1.7659
19259TIP3    H279193   4.823   3.443  13.093  0.2148 -0.7579  0.1329
19260TIP3   OH279194   0.381   3.777  13.623  0.3631 -0.1353  0.2386
19260TIP3    H179195   0.427   3.861  13.630 -1.1593  0.6274  2.2445
19260TIP3    H279196   0.390   3.738  13.710 -1.5103 -0.6145  0.2520
19261TIP3   OH279197   2.427   4.198   3.117 -0.1872 -0.2102 -0.4076
19261TIP3    H179198   2.475   4.118   3.097  0.4379  0.5602 -2.2194
19261TIP3    H279199   2.362   4.172   3.182  1.3011 -1.7328  0.5359
19262TIP3   OH279200   0.117   3.976   3.438 -0.4909  0.6342  0.0548
19262TIP3    H179201   0.145   4.054   3.390  1.4322  2.1956  3.3987
19262TIP3    H279202   0.187   3.913   3.423  1.0523  1.7504  2.0072
19263TIP3   OH279203   4.193   4.423   4.381 -0.0045 -0.6818 -0.5453
19263TIP3    H179204   4.238   4.462   4.456  1.9893  1.1757 -2.5637
19263TIP3    H279205   4.141   4.495   4.345  2.2112 -0.2576 -3.2011
19264TIP3   OH279206   1.914   1.460  17.017 -0.4828 -0.1737 -0.0062
19264TIP3    H179207   1.904   1.502  16.931 -0.7455  0.5244  0.3587
19264TIP3    H279208   1.998   1.414  17.012 -0.0348  0.6578 -0.3133
19265TIP3   OH279209   1.547   1.907   3.471 -0.4177 -0.0851  0.0239
19265TIP3    H179210   1.580   1.997   3.463  0.8457 -0.4677  0.6918
19265TIP3    H279211   1.533   1.879   3.380  1.0974  0.1283 -0.3098
19266TIP3   OH279212   5.665   0.333   4.018 -0.5324 -0.1878  0.1986
19266TIP3    H179213   5.660   0.408   4.078 -0.9114  2.0686 -2.4384
19266TIP3    H279214   5.574   0.308   4.005 -0.4534 -0.6438  0.5187
19267TIP3   OH279215   1.428   3.943  10.722 -0.5308 -0.2457  0.1304
19267TIP3    H179216   1.469   3.961  10.638 -1.0440 -0.1065 -0.0941
19267TIP3    H279217   1.491   3.975  10.787 -0.7657  1.0270 -0.2307
19268TIP3   OH279218   4.860   1.570  15.138 -0.6349 -0.0834  0.2283
19268TIP3    H179219   4.864   1.614  15.223 -0.9356  1.1607 -0.3826
19268TIP3    H279220   4.792   1.503  15.150  2.1469 -2.8999  2.2379
19269TIP3   OH279221   5.310   0.867  14.153 -0.0071 -0.3150 -0.0350
19269TIP3    H179222   5.380   0.932  14.161  1.5406 -1.8491 -0.6977
19269TIP3    H279223   5.272   0.883  14.067  2.1798 -1.9718 -1.3770
19270TIP3   OH279224   1.422   2.995   1.198  0.1088 -0.4517  0.4138
19270TIP3    H179225   1.396   3.077   1.239  1.8835  0.1624  0.4088
19270TIP3    H279226   1.363   2.986   1.123 -0.4450  0.5615  0.7092
19271TIP3   OH279227   3.657   5.051  10.717 -0.4267  0.4715  0.7717
19271TIP3    H179228   3.701   5.092  10.642 -0.9759  1.7208  1.0985
19271TIP3    H279229   3.723   5.050  10.786 -0.3126  0.5240  0.6636
19272TIP3   OH279230   2.070   0.284   1.948  0.1173  0.4440 -0.1389
19272TIP3    H179231   2.003   0.352   1.958  0.2936  0.9916 -2.2928
19272TIP3    H279232   2.152   0.333   1.942 -0.0210  0.5274 -5.2206
19273TIP3   OH279233   6.662   3.873   2.449 -0.1693 -0.6599 -0.5638
19273TIP3    H179234   6.595   3.923   2.495  1.3437  1.6586 -0.7424
19273TIP3    H279235   6.670   3.792   2.500 -0.8325  0.4180  1.3657
19274TIP3   OH279236   5.775   2.377  10.722  0.2178 -0.0072 -0.2433
19274TIP3    H179237   5.847   2.440  10.714  0.1763  0.0989  0.1878
19274TIP3    H279238   5.697   2.431  10.737  0.3514 -0.1889  1.2717
19275TIP3   OH279239   1.666   2.696   3.940 -0.3997  0.9011  0.1760
19275TIP3    H179240   1.684   2.707   3.847  0.1322 -0.4137  0.1004
19275TIP3    H279241   1.732   2.750   3.984 -0.3039  1.0913 -0.2006
19276TIP3   OH279242   3.804   3.835   4.927  0.0755  0.4530 -0.9033
19276TIP3    H179243   3.729   3.881   4.963  1.3448 -0.0908  2.7952
19276TIP3    H279244   3.803   3.750   4.971  2.4702  0.1771 -1.2827
19277TIP3   OH279245   6.073   5.936   1.359 -0.5037 -0.2026 -1.0737
19277TIP3    H179246   6.161   5.941   1.395 -1.4795  2.5564  1.2990
19277TIP3    H279247   6.023   5.887   1.424 -1.3560  0.9647 -0.8102
19278TIP3   OH279248   5.908   3.521   5.461 -0.0165  0.0860  0.7275
19278TIP3    H179249   5.841   3.504   5.528  0.8264  0.3061  1.6459
19278TIP3    H279250   5.991   3.509   5.506  0.5764  0.4065 -0.2465
19279TIP3   OH279251   2.366   3.173   1.208 -0.4933  0.6220 -0.4834
19279TIP3    H179252   2.410   3.175   1.123  2.4907  0.3185  0.9112
19279TIP3    H279253   2.326   3.259   1.216 -0.1481  0.9424 -1.8819
19280TIP3   OH279254   6.599   0.336   1.674  0.1561  0.4242 -0.1922
19280TIP3    H179255   6.601   0.309   1.766 -2.5687  0.0342 -0.1688
19280TIP3    H279256   6.602   0.254   1.625 -1.0523  0.4396 -0.3300
19281TIP3   OH279257   0.047   1.461   0.326 -0.2655 -0.1043  0.0659
19281TIP3    H179258   0.100   1.519   0.380  3.1400 -1.4497 -1.5844
19281TIP3    H279259  -0.038   1.458   0.372  1.3147  1.3385  3.4726
19282TIP3   OH279260   2.727   2.092  13.196 -0.0494 -0.5111  0.4695
19282TIP3    H179261   2.806   2.117  13.147  0.1001  3.0547  2.2306
19282TIP3    H279262   2.748   2.006  13.233  1.9242 -0.8404 -1.2284
19283TIP3   OH279263   0.302   6.320  12.211 -0.2216 -0.4537  0.3585
19283TIP3    H179264   0.361   6.275  12.151  0.2456  2.0311 -1.2178
19283TIP3    H279265   0.342   6.309  12.297  2.6723  1.1143 -0.6477
19284TIP3   OH279266   2.729   1.674  15.898 -0.1029  0.6910 -0.1403
19284TIP3    H179267   2.817   1.709  15.895 -0.1478  0.8267  0.1289
19284TIP3    H279268   2.736   1.596  15.953 -0.1269  0.6316 -0.2212
19285TIP3   OH279269   1.735   4.011  12.886  0.6004 -0.0787  1.2102
19285TIP3    H179270   1.692   4.062  12.817 -0.4493 -1.2216  0.9765
19285TIP3    H279271   1.728   4.064  12.964  0.4866  0.5939  0.7518
19286TIP3   OH279272   2.370   3.694   2.178  0.5680  0.5490 -0.3455
19286TIP3    H179273   2.362   3.606   2.141  0.7043  0.8360 -1.0747
19286TIP3    H279274   2.459   3.697   2.213  0.3853  0.2225  0.1583
19287TIP3   OH279275   0.146   1.320   4.823 -0.0182 -0.0810 -0.3879
19287TIP3    H179276   0.054   1.335   4.802  0.0050 -0.3587 -0.6834
19287TIP3    H279277   0.157   1.225   4.818  0.4454 -0.0011 -1.0217
19288TIP3   OH279278   6.577   4.950   2.695 -0.4388 -0.0981 -0.2768
19288TIP3    H179279   6.644   4.905   2.747 -1.5932 -1.0292  0.4484
19288TIP3    H279280   6.616   4.957   2.608  0.8351 -0.0858  0.2707
19289TIP3   OH279281   4.039   4.592   4.231 -0.7543  0.2153  0.4119
19289TIP3    H179282   4.068   4.669   4.280  0.6865 -0.3678  0.5366
19289TIP3    H279283   4.073   4.607   4.142  1.9691 -1.4415  1.0433
19290TIP3   OH279284   6.297   5.824   4.741 -0.0608  0.2520 -0.2219
19290TIP3    H179285   6.224   5.842   4.681 -0.5658  0.6440  0.5019
19290TIP3    H279286   6.271   5.864   4.824 -1.1863 -3.5995  1.4845
19291TIP3   OH279287   2.883   5.110   4.696 -0.1554 -0.3192  0.0459
19291TIP3    H179288   2.828   5.170   4.644  0.6964  0.2858 -0.1845
19291TIP3    H279289   2.894   5.156   4.780  2.0991  0.8172 -0.7984
19292TIP3   OH279290   2.747   6.564  17.066  0.1561  0.7874 -0.3972
19292TIP3    H179291   2.757   6.469  17.069 -0.5493  0.6407 -2.0902
19292TIP3    H279292   2.833   6.595  17.038  0.4387  0.6822  0.3206
19293TIP3   OH279293   3.760   0.790   5.234 -0.5691 -0.2964 -0.1144
19293TIP3    H179294   3.807   0.873   5.227 -0.7080 -0.1975  0.1042
19293TIP3    H279295   3.772   0.764   5.326  2.8574 -2.5156 -0.9810
19294TIP3   OH279296   3.498   6.095   2.204 -0.9750  0.2608  0.2446
19294TIP3    H179297   3.500   6.067   2.112  0.7381  0.9399  0.0425
19294TIP3    H279298   3.420   6.151   2.210 -1.1917  0.0895 -0.7499
19295TIP3   OH279299   0.179   0.597  15.246 -0.0058 -0.2138 -0.1686
19295TIP3    H179300   0.156   0.670  15.303  1.5992  0.6766 -0.6232
19295TIP3    H279301   0.131   0.613  15.165 -1.7475 -1.1208  0.6064
19296TIP3   OH279302   3.649   4.021  14.622  0.1569  0.6628 -0.0708
19296TIP3    H179303   3.653   4.069  14.705  1.7423 -0.1573  0.3595
19296TIP3    H279304   3.726   3.965  14.623 -0.4052 -0.1897 -1.6132
19297TIP3   OH279305   1.172   2.918  15.648 -0.1010 -0.2424 -0.4908
19297TIP3    H179306   1.121   2.972  15.709  0.2536  1.1662 -1.4012
19297TIP3    H279307   1.216   2.854  15.704  0.4774  1.2289  0.7952
19298TIP3   OH279308   5.188   1.030   4.270  0.4432  0.0064  0.0928
19298TIP3    H179309   5.182   1.030   4.365 -1.0195  0.1877  0.0261
19298TIP3    H279310   5.110   0.981   4.241  0.6378  0.3247 -1.0123
19299TIP3   OH279311   6.481   2.019  14.728  0.1943 -0.4325 -0.2863
19299TIP3    H179312   6.394   2.007  14.766  0.8746  1.4773  2.1111
19299TIP3    H279313   6.528   1.939  14.751 -0.5902 -1.0547 -0.7511
19300TIP3   OH279314   4.935   5.875   1.961 -0.2015 -0.2629  0.1152
19300TIP3    H179315   4.887   5.792   1.961  1.2772 -1.1721 -1.1422
19300TIP3    H279316   4.868   5.941   1.946 -1.4552 -1.1763  1.4589
19301TIP3   OH279317   4.622   1.181  16.392 -0.0916  0.2450  0.2908
19301TIP3    H179318   4.683   1.253  16.407  0.3017  0.1633 -0.8331
19301TIP3    H279319   4.557   1.216  16.332 -0.1225 -0.2202  0.0454
19302TIP3   OH279320   3.145   4.389  12.779 -0.3165  0.4679 -0.0474
19302TIP3    H179321   3.126   4.459  12.716 -0.0665  0.7894  0.2332
19302TIP3    H279322   3.078   4.323  12.761  1.3569 -0.7045 -2.5227
19303TIP3   OH279323   3.620   6.259   5.357  0.5875 -0.0172  0.5888
19303TIP3    H179324   3.666   6.218   5.430  0.6325  2.2545  1.9530
19303TIP3    H279325   3.535   6.284   5.394  0.1690  0.1514 -0.4712
19304TIP3   OH279326   3.806   0.900   0.385  0.4249  0.4649 -0.2905
19304TIP3    H179327   3.752   0.977   0.365 -0.7067 -0.5303 -1.1981
19304TIP3    H279328   3.842   0.918   0.472  0.1777  2.0068 -0.4868
19305TIP3   OH279329   3.038   3.004  14.423  0.0610 -0.6719 -0.6356
19305TIP3    H179330   3.009   3.073  14.482 -0.6174  1.1566 -2.9799
19305TIP3    H279331   3.128   2.986  14.450  0.7574  2.1319 -0.7734
19306TIP3   OH279332   1.388   2.361   0.794  0.4086 -0.2894  0.3416
19306TIP3    H179333   1.332   2.317   0.858  0.7568 -1.2541  0.0027
19306TIP3    H279334   1.433   2.429   0.845 -0.5444  0.0473  0.7573
19307TIP3   OH279335   6.496   3.798   4.323  0.3520  0.6537 -0.5319
19307TIP3    H179336   6.496   3.832   4.413  1.7956 -0.6791  0.0191
19307TIP3    H279337   6.467   3.872   4.270 -0.3562  1.5347  1.0007
19308TIP3   OH279338   6.673   0.199  14.380 -0.3559  0.3255  0.1334
19308TIP3    H179339   6.628   0.162  14.304  0.8572  1.0966 -0.9938
19308TIP3    H279340   6.653   0.138  14.451 -0.6202 -1.0180 -1.0480
19309TIP3   OH279341   1.251   3.569   0.000  0.6181  0.6424  0.4275
19309TIP3    H179342   1.246   3.480   0.035  0.5072  1.0972  1.6073
19309TIP3    H279343   1.315   3.563  -0.071  1.3037 -0.1871  1.0970
19310TIP3   OH279344   0.861   3.546   1.238 -0.0038 -0.3922 -0.2507
19310TIP3    H179345   0.838   3.532   1.330  0.3377  1.1232  0.1008
19310TIP3    H279346   0.899   3.463   1.209  0.3036 -0.7431  1.1109
19311TIP3   OH279347   3.787   0.830   3.211  0.4160  0.2196 -0.3559
19311TIP3    H179348   3.762   0.917   3.243  0.8692  0.5480 -0.8638
19311TIP3    H279349   3.876   0.842   3.178  0.1983 -0.2547 -1.1483
19312TIP3   OH279350   6.338   6.696  15.178 -0.0056 -0.0835  0.0105
19312TIP3    H179351   6.305   6.785  15.174 -0.7152 -0.3380 -0.0006
19312TIP3    H279352   6.417   6.701  15.232  0.7526  0.7729 -1.1379
19313TIP3   OH279353   0.943   6.548   5.106 -0.0956 -0.2223 -0.0479
19313TIP3    H179354   0.995   6.549   5.026 -0.9360 -0.3707 -0.6165
19313TIP3    H279355   0.957   6.634   5.146  0.0419 -0.0103 -0.5487
19314TIP3   OH279356   4.745   1.668  13.391  0.1078  0.5192  0.5214
19314TIP3    H179357   4.726   1.577  13.368  1.0352  0.1347  1.2382
19314TIP3    H279358   4.683   1.719  13.338 -2.2005 -0.6094  1.9496
19315TIP3   OH279359   3.527   4.519  10.782  0.2871 -0.1773  0.4187
19315TIP3    H179360   3.487   4.435  10.762  1.1454 -0.2465 -1.2162
19315TIP3    H279361   3.462   4.564  10.836 -1.8719 -0.4417 -1.7672
19316TIP3   OH279362   1.172   1.120  12.253 -0.3347  0.1027  0.3844
19316TIP3    H179363   1.186   1.132  12.347 -1.6249 -2.0264  0.9004
19316TIP3    H279364   1.259   1.096  12.219 -0.3662 -1.7524  1.5245
19317TIP3   OH279365   4.603   0.505   2.862  0.7012 -0.0121  0.8677
19317TIP3    H179366   4.522   0.470   2.823  1.0921 -1.0024  0.9130
19317TIP3    H279367   4.670   0.439   2.841  1.3330  0.4192  1.4975
19318TIP3   OH279368   3.645   5.076   0.953  0.5532  1.3431  0.0224
19318TIP3    H179369   3.738   5.077   0.932  0.6984  1.1967  0.6191
19318TIP3    H279370   3.640   5.116   1.040  0.4761 -1.7214  1.5344
19319TIP3   OH279371   3.127   3.388   5.560 -0.1167  0.3129  0.0451
19319TIP3    H179372   3.131   3.309   5.506 -1.1459 -0.6510  1.3239
19319TIP3    H279373   3.059   3.370   5.625  0.5288  1.7381  1.1801
19320TIP3   OH279374   3.691   1.223  15.127 -0.2046 -0.1787 -0.4468
19320TIP3    H179375   3.697   1.313  15.159 -1.1325 -0.3928  0.3749
19320TIP3    H279376   3.636   1.178  15.191 -0.1554 -1.2187 -1.1068
19321TIP3   OH279377   6.255   5.399  17.166 -0.1723  0.6687  0.3831
19321TIP3    H179378   6.343   5.427  17.193  0.1522 -0.9916  1.2131
19321TIP3    H279379   6.200   5.419  17.241 -0.5541  1.8793 -0.2095
19322TIP3   OH279380   3.691   3.939   2.530 -0.6270  0.0559 -0.1294
19322TIP3    H179381   3.647   3.944   2.615 -2.1692 -2.1136 -0.7085
19322TIP3    H279382   3.779   3.973   2.546 -1.2537  0.8097  2.0275
19323TIP3   OH279383   0.225   2.550  12.279 -0.5285 -0.1318  0.3702
19323TIP3    H179384   0.179   2.559  12.363  0.0799 -1.1142  0.8313
19323TIP3    H279385   0.317   2.543  12.304 -0.1922  1.0461 -0.4893
19324TIP3   OH279386   0.015   0.106  11.573 -0.0098 -0.2760 -0.4307
19324TIP3    H179387   0.001   0.013  11.589  3.0258 -0.7584 -0.0628
19324TIP3    H279388   0.004   0.147  11.659 -0.7916 -0.3320 -0.4916
19325TIP3   OH279389   0.040   1.105  16.124  0.7102  0.4038  0.6344
19325TIP3    H179390   0.032   1.016  16.089  1.0678  1.0170 -1.1467
19325TIP3    H279391   0.100   1.097  16.198  0.1316 -0.9446  0.9852
19326TIP3   OH279392   5.462   3.517  12.918 -0.0042  0.7513 -0.3146
19326TIP3    H179393   5.484   3.577  12.847 -1.8847  1.0562 -0.6948
19326TIP3    H279394   5.487   3.563  12.997 -0.8961  1.8383 -0.6344
19327TIP3   OH279395   1.649   2.793   5.252  0.1877  0.4782  0.0451
19327TIP3    H179396   1.658   2.886   5.235 -0.6749  1.2649  3.1958
19327TIP3    H279397   1.565   2.769   5.213  0.0900  1.1786 -0.1748
19328TIP3   OH279398   5.842   0.874   6.027  0.0738  0.0270  0.1622
19328TIP3    H179399   5.764   0.930   6.020  1.4145  1.8728 -1.0873
19328TIP3    H279400   5.846   0.850   6.119 -0.6582  1.9132  0.7368
19329TIP3   OH279401   3.372   1.529   4.508  0.4279 -1.1496  0.1572
19329TIP3    H179402   3.310   1.591   4.548 -0.1927 -2.3548  1.1188
19329TIP3    H279403   3.411   1.578   4.436 -0.0206  0.3785  0.9008
19330TIP3   OH279404   1.844   2.880   6.110  0.1967  0.2658 -0.2445
19330TIP3    H179405   1.892   2.954   6.148 -0.6251  0.1242  1.1124
19330TIP3    H279406   1.765   2.919   6.073 -0.0405  0.1249  0.1100
19331TIP3   OH279407   4.270   3.718  13.336 -0.0586  0.0872 -0.0674
19331TIP3    H179408   4.314   3.675  13.409 -0.1622 -0.8529 -0.5530
19331TIP3    H279409   4.310   3.680  13.257  2.0049  3.0105 -0.5951
19332TIP3   OH279410   3.142   0.414  14.406 -0.1329 -0.0537 -0.0429
19332TIP3    H179411   3.137   0.480  14.337  0.3510  1.6773  1.4830
19332TIP3    H279412   3.221   0.364  14.386  0.5942  1.1182 -0.1784
19333TIP3   OH279413   0.204   6.754  15.038 -0.0251 -0.2759  0.3140
19333TIP3    H179414   0.116   6.733  15.008 -0.2641 -0.8740  1.3763
19333TIP3    H279415   0.191   6.825  15.101  0.4419  0.7955 -0.7606
19334TIP3   OH279416   2.538   0.736   0.919  0.0074  0.7303  1.0917
19334TIP3    H179417   2.486   0.705   0.994  0.5573 -0.2961  1.0638
19334TIP3    H279418   2.529   0.667   0.854  0.6584  0.9805  0.7311
19335TIP3   OH279419   4.875   3.339   3.319  0.3721 -0.3634 -0.4982
19335TIP3    H179420   4.946   3.310   3.263 -0.7196 -0.5004 -1.8702
19335TIP3    H279421   4.806   3.273   3.307  0.0765 -0.3447  0.9447
19336TIP3   OH279422   5.698   3.461   1.567 -0.4304 -0.7798  0.1265
19336TIP3    H179423   5.762   3.482   1.634  1.0621  1.3588 -1.8041
19336TIP3    H279424   5.744   3.401   1.507 -0.8817 -0.7312 -0.2787
19337TIP3   OH279425   1.365   5.669   3.718 -0.5834 -0.3354  0.1581
19337TIP3    H179426   1.339   5.736   3.782 -0.5397 -0.2238  0.0605
19337TIP3    H279427   1.291   5.608   3.717 -1.0326  0.2001 -0.4136
19338TIP3   OH279428   1.257   3.293  13.991 -0.0518  0.0045  0.1461
19338TIP3    H179429   1.266   3.198  14.001 -2.1636 -0.3457 -0.6554
19338TIP3    H279430   1.294   3.311  13.905  2.4051  0.3234  1.1871
19339TIP3   OH279431   1.129   4.722   4.054 -1.0120 -0.1154  0.1577
19339TIP3    H179432   1.039   4.693   4.043 -1.0169 -0.5520  1.1974
19339TIP3    H279433   1.162   4.668   4.127  0.0718  0.0529 -0.1974
19340TIP3   OH279434   1.660   1.971  13.302  0.3243 -0.6077 -0.2417
19340TIP3    H179435   1.724   2.010  13.243 -0.5021 -0.1414 -0.8599
19340TIP3    H279436   1.654   1.880  13.273 -0.1758 -0.3492 -0.9965
19341TIP3   OH279437   2.280   2.278   0.569 -0.1300  0.8802 -0.5700
19341TIP3    H179438   2.258   2.280   0.662 -4.6474  1.8758 -1.4027
19341TIP3    H279439   2.269   2.186   0.544 -0.4991  0.8634 -0.3671
19342TIP3   OH279440   4.373   2.764  12.194  0.5078  0.0164 -0.3208
19342TIP3    H179441   4.445   2.827  12.202 -0.2088  1.1339 -2.1576
19342TIP3    H279442   4.374   2.717  12.278  4.2421 -1.0264 -0.7605
19343TIP3   OH279443   2.368   0.973   5.136 -0.0011  0.0887 -0.0327
19343TIP3    H179444   2.400   0.892   5.097 -1.0658 -0.0770 -0.5831
19343TIP3    H279445   2.413   0.978   5.221  0.2269 -0.9661 -0.0800
19344TIP3   OH279446   5.745   4.773  13.148 -0.0010 -0.3739 -0.0754
19344TIP3    H179447   5.774   4.779  13.240 -1.3767  1.4223  0.3018
19344TIP3    H279448   5.823   4.797  13.098  0.3409  0.2624  0.7195
19345TIP3   OH279449   5.400   0.450  16.977 -0.1186  0.8054 -0.3218
19345TIP3    H179450   5.455   0.522  17.009  0.1385  1.0884 -1.3625
19345TIP3    H279451   5.336   0.493  16.919  0.3375  0.1512 -1.3314
19346TIP3   OH279452   3.750   5.951  11.563  0.0490 -0.4869  0.0820
19346TIP3    H179453   3.712   5.883  11.509  1.2636 -0.5702 -0.7206
19346TIP3    H279454   3.828   5.979  11.514 -0.7368  1.9116  0.0628
19347TIP3   OH279455   1.739   2.747   0.730 -0.0739  0.7768  0.9270
19347TIP3    H179456   1.800   2.820   0.735 -1.5747  2.1971 -0.4018
19347TIP3    H279457   1.745   2.718   0.639  1.1327 -1.3998  1.6204
19348TIP3   OH279458   2.246   5.118  16.473  0.1646 -0.2570  0.1864
19348TIP3    H179459   2.293   5.055  16.527  1.5525  0.4466 -0.1666
19348TIP3    H279460   2.257   5.201  16.518  1.6650  0.4132 -1.3014
19349TIP3   OH279461   0.652   2.394   1.363  0.7603  0.2656  0.1086
19349TIP3    H179462   0.573   2.358   1.403  1.6831 -0.8299  1.0154
19349TIP3    H279463   0.670   2.336   1.289  2.2794 -1.3103  1.6046
19350TIP3   OH279464   2.599   0.044   0.909 -0.5821  0.1070  0.1435
19350TIP3    H179465   2.591  -0.051   0.897 -3.0627  0.4800 -2.1464
19350TIP3    H279466   2.691   0.057   0.933  0.4734 -2.6833 -1.8146
19351TIP3   OH279467   4.004   2.675   4.848 -0.6732 -0.5745 -0.7718
19351TIP3    H179468   3.991   2.667   4.754 -0.1048 -1.8181 -0.7605
19351TIP3    H279469   4.077   2.735   4.857  0.3987 -1.7744 -1.2077
19352TIP3   OH279470   4.908   5.579  12.024  0.7995  0.4856  0.6269
19352TIP3    H179471   4.961   5.591  12.103 -0.2738 -0.6354  1.5604
19352TIP3    H279472   4.830   5.632  12.040  0.7427  0.5460  0.1482
19353TIP3   OH279473   2.372   3.739   0.935  0.2632  0.3809 -0.1667
19353TIP3    H179474   2.279   3.742   0.955  0.2731 -1.9901  0.5937
19353TIP3    H279475   2.405   3.827   0.955 -1.3669  0.5930  1.8798
19354TIP3   OH279476   6.455   3.666   2.249 -0.2842  0.4637 -0.1276
19354TIP3    H179477   6.436   3.760   2.251 -0.1376  0.5078 -0.6622
19354TIP3    H279478   6.410   3.634   2.171  0.3150  0.2381 -0.3908
19355TIP3   OH279479   5.756   6.201   3.430 -0.1711 -0.7424  0.6117
19355TIP3    H179480   5.681   6.149   3.398 -1.2360 -0.4526  2.5031
19355TIP3    H279481   5.721   6.289   3.441 -0.1221 -0.9779  3.2488
19356TIP3   OH279482   3.897   2.949   2.234 -0.2318 -0.4794 -0.6349
19356TIP3    H179483   3.916   2.862   2.197 -2.2113 -0.8438 -0.9214
19356TIP3    H279484   3.870   2.932   2.324 -1.6397 -0.3290 -0.9932
19357TIP3   OH279485   2.413   6.542   0.298  0.1240  0.0013  0.1311
19357TIP3    H179486   2.382   6.632   0.310  0.2567 -0.1050  1.4013
19357TIP3    H279487   2.502   6.552   0.266  0.3836  0.3413  0.9313
19358TIP3   OH279488   0.949   1.609  12.508 -0.0313 -0.3431 -0.2628
19358TIP3    H179489   0.866   1.625  12.464 -0.0976 -0.2293 -0.0987
19358TIP3    H279490   0.925   1.564  12.589  0.1188 -0.8721 -0.5068
19359TIP3   OH279491   6.576   3.936   0.706  0.0027 -0.6022 -0.2689
19359TIP3    H179492   6.582   3.841   0.711 -1.7675 -0.8756 -1.9102
19359TIP3    H279493   6.482   3.953   0.695  0.3341  1.2965 -0.4872
19360TIP3   OH279494   3.221   1.140  14.499 -0.0379  0.6497  0.1925
19360TIP3    H179495   3.136   1.153  14.540  0.1094  0.6007  0.5126
19360TIP3    H279496   3.276   1.102  14.567  0.2359  0.6632 -0.0172
19361TIP3   OH279497   6.750   4.736  14.047 -0.1926 -0.1084  0.1222
19361TIP3    H179498   6.729   4.817  14.092  0.8523  0.5740 -0.5757
19361TIP3    H279499   6.774   4.763  13.959  2.7768 -0.8425  0.5994
19362TIP3   OH279500   5.761   1.733   2.820  0.3267 -0.1282 -0.4564
19362TIP3    H179501   5.802   1.813   2.856  1.2592 -1.9722  3.1064
19362TIP3    H279502   5.812   1.714   2.741  2.9287  0.6054  0.9041
19363TIP3   OH279503   6.079   6.217  14.824 -0.0854  0.6987  0.1689
19363TIP3    H179504   6.162   6.175  14.802  1.2786  1.3819  3.4030
19363TIP3    H279505   6.017   6.144  14.832  0.5657  0.0198 -0.7487
19364TIP3   OH279506   1.360   4.782   6.533 -0.0274 -0.2382 -0.2940
19364TIP3    H179507   1.410   4.701   6.529 -0.6461 -0.5797 -3.2725
19364TIP3    H279508   1.390   4.833   6.457 -1.6915  1.0748 -0.1320
19365TIP3   OH279509   0.567   2.678  11.206 -0.1543  0.6426 -0.8899
19365TIP3    H179510   0.481   2.678  11.163 -0.2142  0.7798 -0.7706
19365TIP3    H279511   0.628   2.656  11.136 -0.3092  0.3411 -0.9305
19366TIP3   OH279512   5.493   4.291  12.375 -0.1799 -0.1089  0.0961
19366TIP3    H179513   5.398   4.290  12.367 -0.1426 -0.3019 -0.3061
19366TIP3    H279514   5.524   4.326  12.292  0.1290 -0.6161 -0.0057
19367TIP3   OH279515   2.683   0.650  16.861 -0.2351 -0.0370 -0.8605
19367TIP3    H179516   2.660   0.575  16.806 -0.8098 -0.0184 -0.6434
19367TIP3    H279517   2.624   0.719  16.833 -0.3057  0.0711 -0.4416
19368TIP3   OH279518   3.446   1.570   1.165 -0.3511 -0.0675  0.2723
19368TIP3    H179519   3.405   1.598   1.084 -0.3672  0.1659  0.3625
19368TIP3    H279520   3.531   1.614   1.166 -0.7650  0.7453  0.8751
19369TIP3   OH279521   4.018   4.748   1.163 -0.8458 -0.0836 -0.0201
19369TIP3    H179522   3.943   4.700   1.197  0.2886 -0.1622  2.6547
19369TIP3    H279523   4.094   4.703   1.200  0.5346  0.3265 -2.1611
19370TIP3   OH279524   0.954   0.056   2.722  0.1318  0.1991 -0.0966
19370TIP3    H179525   1.043   0.044   2.756  0.3044  0.2437 -0.5234
19370TIP3    H279526   0.947   0.150   2.707 -0.4285  0.3670  1.1070
19371TIP3   OH279527   4.160   1.234   0.237  0.7480 -0.4953 -0.1900
19371TIP3    H179528   4.147   1.188   0.154 -1.0193  0.7225 -0.6285
19371TIP3    H279529   4.157   1.327   0.213 -1.5662 -0.0923  1.4380
19372TIP3   OH279530   5.777   4.549   0.570 -0.5367  0.0085  0.4011
19372TIP3    H179531   5.855   4.496   0.557 -0.7431 -0.3459  0.5864
19372TIP3    H279532   5.806   4.624   0.621  0.1904  1.1363 -1.5636
19373TIP3   OH279533   2.731   3.076   1.265  0.6353  0.2907  0.3614
19373TIP3    H179534   2.808   3.020   1.261 -0.4271 -1.1570 -2.3779
19373TIP3    H279535   2.658   3.016   1.280 -0.4738  0.8883 -2.1264
19374TIP3   OH279536   2.959   2.783  15.304 -0.0660  0.4516  0.2777
19374TIP3    H179537   2.879   2.818  15.343 -0.5004 -0.5217  0.3042
19374TIP3    H279538   2.984   2.710  15.361  1.4199  1.3449  0.8359
19375TIP3   OH279539   2.360   1.495   0.862  0.2782 -1.0112  0.3423
19375TIP3    H179540   2.401   1.422   0.907  0.1910 -0.0525  2.0762
19375TIP3    H279541   2.290   1.524   0.921  0.4654  0.6023 -0.1675
19376TIP3   OH279542   2.204   6.104  11.187  0.3255  0.3505 -0.9063
19376TIP3    H179543   2.190   6.196  11.165 -0.8241  0.5223  0.3737
19376TIP3    H279544   2.160   6.055  11.117 -0.1745  0.8049 -0.9188
19377TIP3   OH279545   4.647   3.662   1.474 -0.2730  0.1631 -0.2007
19377TIP3    H179546   4.740   3.684   1.476 -0.5720  1.4981  0.7264
19377TIP3    H279547   4.640   3.592   1.409  1.0254  1.6184 -1.9915
19378TIP3   OH279548   1.576   1.011   3.591  0.0700 -0.2374  0.0578
19378TIP3    H179549   1.588   1.095   3.546  0.7309 -0.5908 -0.4458
19378TIP3    H279550   1.489   1.017   3.631 -0.0874  0.4976 -0.3815
19379TIP3   OH279551   1.972   4.451  14.111  0.4594 -0.2312  0.1895
19379TIP3    H179552   1.907   4.520  14.118 -0.8868 -1.6080  3.9727
19379TIP3    H279553   2.043   4.489  14.059 -1.3159  2.9938 -0.1126
19380TIP3   OH279554   2.478   2.706  16.136  0.1485 -0.6659 -0.0449
19380TIP3    H179555   2.481   2.761  16.058 -1.8712 -1.1955 -0.5472
19380TIP3    H279556   2.552   2.737  16.189  1.5361 -0.2546 -2.0929
19381TIP3   OH279557   2.667   2.888  13.150 -0.0130 -0.7664 -0.0122
19381TIP3    H179558   2.733   2.898  13.081  0.7527  0.5375  0.8677
19381TIP3    H279559   2.584   2.904  13.106  0.5174  0.7804 -0.5190
19382TIP3   OH279560   1.305   4.813   0.115 -0.8518  0.5311  0.2826
19382TIP3    H179561   1.242   4.747   0.088  0.7906 -0.4625 -1.3952
19382TIP3    H279562   1.300   4.880   0.045 -0.6487  0.8721  0.5922
19383TIP3   OH279563   3.598   4.678  14.281  0.1785  0.1010 -0.3152
19383TIP3    H179564   3.561   4.765  14.296 -0.8194 -0.2318 -0.8172
19383TIP3    H279565   3.655   4.663  14.356  1.0647  1.5532 -0.6603
19384TIP3   OH279566   0.334   1.973  14.161  0.3516 -0.1739 -0.7687
19384TIP3    H179567   0.253   1.983  14.210  0.5299 -0.1926 -0.4682
19384TIP3    H279568   0.391   1.921  14.218  0.3546 -0.6984 -1.2385
19385TIP3   OH279569   3.676   2.679   5.230  0.2129  0.5170 -0.2844
19385TIP3    H179570   3.721   2.721   5.156  0.3216  0.7764 -0.0717
19385TIP3    H279571   3.595   2.645   5.192  0.4704  0.2717 -0.6151
19386TIP3   OH279572   5.512   0.553   3.756 -0.0891 -0.2134 -0.2691
19386TIP3    H179573   5.505   0.541   3.850 -1.8163 -1.0388 -0.4796
19386TIP3    H279574   5.479   0.642   3.741  2.0205  0.6807  0.0705
19387TIP3   OH279575   6.466   5.925  16.996 -0.2470  0.0315  0.2721
19387TIP3    H179576   6.515   5.847  17.024 -1.7077 -1.2917 -0.6677
19387TIP3    H279577   6.504   5.997  17.047  1.4492 -1.2055  0.8575
19388TIP3   OH279578   4.265   0.047  17.174  0.2670  0.5460 -0.0246
19388TIP3    H179579   4.210   0.040  17.096 -1.9121  3.2396  1.0825
19388TIP3    H279580   4.256  -0.037  17.218 -2.5589  0.6381 -0.2478
19389TIP3   OH279581   4.246   0.787   0.455 -0.4443  0.0528 -0.4469
19389TIP3    H179582   4.286   0.715   0.407  1.0131 -0.0818  0.8792
19389TIP3    H279583   4.295   0.790   0.538 -0.3307  2.6765 -0.5332
19390TIP3   OH279584   2.759   3.790   3.870  0.1401 -0.0558  0.1821
19390TIP3    H179585   2.831   3.846   3.900  0.0965  0.4486 -0.6465
19390TIP3    H279586   2.780   3.770   3.779 -0.7252  0.0189 -0.0398
19391TIP3   OH279587   5.149   2.369   5.285 -0.4562  0.3076 -0.1732
19391TIP3    H179588   5.214   2.326   5.230 -0.3198 -0.0127  0.2347
19391TIP3    H279589   5.065   2.349   5.243 -0.3612 -0.0131 -0.2139
19392TIP3   OH279590   4.509   3.871  16.929 -0.1763 -0.5861 -0.0867
19392TIP3    H179591   4.459   3.796  16.897  0.3217 -0.6494 -0.7429
19392TIP3    H279592   4.563   3.836  16.999 -0.4895 -0.6819  0.1058
19393TIP3   OH279593   5.559   0.593   1.199  0.6480  0.1656 -0.6250
19393TIP3    H179594   5.581   0.520   1.256  0.0837 -0.5793 -1.3341
19393TIP3    H279595   5.586   0.565   1.112  0.4802  0.8294 -0.8981
19394TIP3   OH279596   1.345   5.881   1.064  0.0261 -0.4321  0.6887
19394TIP3    H179597   1.365   5.970   1.095 -1.7640  1.0653 -2.0397
19394TIP3    H279598   1.252   5.884   1.042  0.9513 -1.0502 -4.8143
19395TIP3   OH279599   0.448   3.534   3.800  0.3236  0.4982 -0.2892
19395TIP3    H179600   0.515   3.493   3.746 -0.3659  0.4797 -1.1471
19395TIP3    H279601   0.497   3.577   3.870  1.2038  0.2098 -0.7118
19396TIP3   OH279602   5.128   4.526   6.620 -0.5985  0.0511 -0.0167
19396TIP3    H179603   5.036   4.513   6.641 -0.5256  2.2204  2.1717
19396TIP3    H279604   5.175   4.472   6.683 -0.4296  1.9803  1.6281
19397TIP3   OH279605   0.787   0.497   4.775 -0.1579  0.4455 -0.2036
19397TIP3    H179606   0.776   0.560   4.846  1.3936  1.3343 -0.6910
19397TIP3    H279607   0.760   0.544   4.697 -0.3745 -0.0019 -0.4033
19398TIP3   OH279608   1.844   6.330  15.396  0.3410 -0.3823  0.1664
19398TIP3    H179609   1.753   6.337  15.423 -0.3028 -1.7412 -1.4327
19398TIP3    H279610   1.879   6.257  15.446  0.4386 -0.1291  0.4716
19399TIP3   OH279611   4.392   1.752  13.030 -0.0482 -0.5417 -0.1217
19399TIP3    H179612   4.337   1.798  12.967 -2.9489 -1.8859  1.2069
19399TIP3    H279613   4.333   1.731  13.102  1.8921 -3.3350  0.8447
19400TIP3   OH279614   4.723   3.281  14.885  0.3101 -0.2246  0.2084
19400TIP3    H179615   4.774   3.252  14.960  0.1319 -2.2226 -0.3640
19400TIP3    H279616   4.787   3.317  14.824  0.5758  0.4647  0.8860
19401TIP3   OH279617   0.713   0.551   2.191  0.0561  0.2015 -0.4569
19401TIP3    H179618   0.718   0.531   2.285  0.2890  0.0645 -0.4961
19401TIP3    H279619   0.663   0.478   2.154  1.2356 -0.5334 -0.6577
19402TIP3   OH279620   5.770   4.865   1.081  0.4008  0.3204  0.3409
19402TIP3    H179621   5.812   4.915   1.151  0.7099  1.0676 -0.3621
19402TIP3    H279622   5.688   4.835   1.119  0.6111  0.6370  1.0558
19403TIP3   OH279623   1.525   1.206  11.301 -0.0869 -0.0935  0.0981
19403TIP3    H179624   1.565   1.216  11.214 -2.3159 -1.1971 -1.1648
19403TIP3    H279625   1.445   1.259  11.296 -1.6809 -2.3188  0.4098
19404TIP3   OH279626   6.437   5.198  10.502 -0.5111 -0.5110 -0.3764
19404TIP3    H179627   6.350   5.219  10.469 -0.5220  0.6127  0.3247
19404TIP3    H279628   6.454   5.264  10.569  0.7334 -0.9367 -0.2488
19405TIP3   OH279629   1.962   2.064  15.124 -0.2726 -0.3083 -0.0025
19405TIP3    H179630   1.945   2.146  15.077 -2.1114 -0.0146  1.0928
19405TIP3    H279631   2.007   2.091  15.204  1.2487 -0.6358 -0.7149
19406TIP3   OH279632   6.645   5.145   5.383 -0.2026 -0.2596 -0.2223
19406TIP3    H179633   6.642   5.212   5.315 -0.6772 -0.4316 -0.3726
19406TIP3    H279634   6.559   5.150   5.425  0.5955  0.9019  1.4012
19407TIP3   OH279635   4.111   5.442  13.517 -0.7259  0.0634  0.0281
19407TIP3    H179636   4.186   5.427  13.575 -1.1183  0.3243  0.6075
19407TIP3    H279637   4.148   5.436  13.429 -0.0561 -0.0007  0.3048
19408TIP3   OH279638   6.180   6.702   1.363 -0.1077 -0.2967 -0.0736
19408TIP3    H179639   6.106   6.742   1.408  0.2134 -0.3310  0.4995
19408TIP3    H279640   6.255   6.719   1.420  0.0004 -1.8938  0.3238
19409TIP3   OH279641   3.538   1.859   2.042  0.1033  0.0114  0.5089
19409TIP3    H179642   3.483   1.855   2.120 -1.9593 -0.1165 -0.8574
19409TIP3    H279643   3.507   1.937   1.995  0.9401 -0.1984 -0.4345
19410TIP3   OH279644   3.425   3.202  16.890 -0.0433  0.0465  0.5858
19410TIP3    H179645   3.502   3.145  16.893  1.2807  1.7347  0.4707
19410TIP3    H279646   3.365   3.165  16.954  0.6039 -1.6674  0.2541
19411TIP3   OH279647   4.046   0.952   3.992 -0.3689  0.2586  0.1871
19411TIP3    H179648   4.023   0.907   4.073 -2.0483 -0.6547 -0.7434
19411TIP3    H279649   3.966   0.951   3.940  0.5536  1.1620 -1.3387
19412TIP3   OH279650   4.723   5.083   4.360  0.2700 -0.0433 -0.1978
19412TIP3    H179651   4.663   5.037   4.418  1.7542  0.5112  1.8850
19412TIP3    H279652   4.751   5.016   4.297  0.4888 -1.3579  1.2348
19413TIP3   OH279653   6.455   5.760   5.854  0.4666  0.1854  0.1624
19413TIP3    H179654   6.384   5.718   5.902  1.6555 -2.3424 -0.0942
19413TIP3    H279655   6.475   5.839   5.903 -1.4708  0.1531  1.0900
19414TIP3   OH279656   3.364   0.399  13.683  0.4245 -0.0747  0.3610
19414TIP3    H179657   3.290   0.399  13.744 -0.7485  0.9546 -0.9803
19414TIP3    H279658   3.365   0.487  13.647  0.5695 -0.8318 -1.6422
19415TIP3   OH279659   2.147   5.183   5.747 -0.2045 -0.0331 -0.0612
19415TIP3    H179660   2.212   5.245   5.714  1.9738 -2.3086 -0.3370
19415TIP3    H279661   2.062   5.224   5.728  1.0986  2.1962 -1.4370
19416TIP3   OH279662   2.999   4.945  17.113 -0.2279  0.3418  0.4193
19416TIP3    H179663   2.945   4.867  17.099 -0.1536  0.0586  1.6418
19416TIP3    H279664   2.947   4.999  17.173 -0.3735  1.3397 -0.5834
19417TIP3   OH279665   4.164   4.131   3.531 -0.2679 -0.2811 -0.7004
19417TIP3    H179666   4.197   4.191   3.465 -1.7229  0.7096 -0.5719
19417TIP3    H279667   4.170   4.044   3.491 -1.1417  0.3011 -2.1515
19418TIP3   OH279668   2.022   5.353   2.920 -0.2026  0.3632 -0.7417
19418TIP3    H179669   1.941   5.324   2.878 -0.1743 -1.0235  0.0948
19418TIP3    H279670   2.087   5.352   2.850 -0.5460 -0.1560 -1.0583
19419TIP3   OH279671   0.111   6.104  14.768 -0.2202 -0.0129 -0.3392
19419TIP3    H179672   0.080   6.031  14.714  1.7599 -1.5150  0.3967
19419TIP3    H279673   0.206   6.101  14.759  0.2991 -0.6171  3.4271
19420TIP3   OH279674   4.758   5.779  14.281  0.0221  0.0697 -0.1104
19420TIP3    H179675   4.676   5.803  14.237  1.3778  3.2202 -1.1884
19420TIP3    H279676   4.806   5.861  14.289  2.3345 -1.3487  2.1980
19421TIP3   OH279677   4.043   3.511  13.953 -0.2090  0.0446 -0.8915
19421TIP3    H179678   4.030   3.567  14.030 -1.4166  0.2769 -1.2519
19421TIP3    H279679   4.070   3.571  13.884 -1.7624  0.2647 -1.3499
19422TIP3   OH279680   3.620   1.978   0.946  0.5726 -0.0464 -0.7290
19422TIP3    H179681   3.688   1.945   0.887  0.6528  0.1956 -0.7741
19422TIP3    H279682   3.605   2.068   0.917  1.4023  0.4549  0.3320
19423TIP3   OH279683   2.580   6.591   2.036  0.2818 -0.9624  1.0043
19423TIP3    H179684   2.507   6.653   2.041  0.1848 -1.0113  0.3030
19423TIP3    H279685   2.591   6.560   2.125  0.7112  0.5067  1.4890
19424TIP3   OH279686   0.882   1.096  11.537 -0.4900 -0.5307 -0.5420
19424TIP3    H179687   0.918   1.138  11.459  0.1805  2.3312  1.1464
19424TIP3    H279688   0.787   1.107  11.529 -0.3324  1.6548 -0.0792
19425TIP3   OH279689   1.534   0.324   0.334  0.3764 -0.2221  0.3318
19425TIP3    H179690   1.453   0.340   0.286  0.8499 -0.8982 -0.7455
19425TIP3    H279691   1.599   0.380   0.291  1.1747 -2.0248 -0.9787
19426TIP3   OH279692   6.408   4.802   2.875  0.3890 -0.5592  0.4774
19426TIP3    H179693   6.467   4.868   2.837  0.1792 -0.0761  0.9685
19426TIP3    H279694   6.332   4.852   2.903 -0.3896 -1.2149 -0.3935
19427TIP3   OH279695   1.063   5.492   3.190 -0.4143  0.0824  0.1146
19427TIP3    H179696   1.012   5.488   3.271 -0.6552  1.9190  0.0817
19427TIP3    H279697   0.998   5.485   3.120 -0.5115  1.2274  0.0796
19428TIP3   OH279698   6.255   2.060   5.327 -0.3812 -0.7880 -0.0350
19428TIP3    H179699   6.191   1.989   5.321  0.4159 -1.5528  0.2026
19428TIP3    H279700   6.333   2.019   5.366  0.3854  0.0206 -0.6563
19429TIP3   OH279701   3.363   5.190   3.283  0.1020  0.5839 -0.5079
19429TIP3    H179702   3.271   5.214   3.281 -0.2265 -0.5763 -0.1625
19429TIP3    H279703   3.369   5.122   3.351  0.6394 -1.4467 -2.4538
19430TIP3   OH279704   6.327   2.473  15.642 -0.3901  0.1956 -0.5504
19430TIP3    H179705   6.394   2.497  15.706 -1.2309 -0.0574  0.4367
19430TIP3    H279706   6.279   2.555  15.626 -0.1726  0.2613 -0.8733
19431TIP3   OH279707   4.540   5.897  10.348 -0.2884  0.0953  0.1273
19431TIP3    H179708   4.457   5.944  10.355 -1.0893 -1.3684  1.1547
19431TIP3    H279709   4.557   5.865  10.437  2.0105  1.3384  0.2098
19432TIP3   OH279710   1.364   5.893   3.454  0.1722 -0.1212 -0.4127
19432TIP3    H179711   1.417   5.852   3.523  0.8176  1.5487  0.1267
19432TIP3    H279712   1.427   5.921   3.388  0.2316  2.9644  0.7840
19433TIP3   OH279713   0.032   1.043   5.039  0.3365 -0.1432  0.3734
19433TIP3    H179714  -0.046   1.049   4.982 -0.2382  0.8061  1.2249
19433TIP3    H279715   0.024   0.958   5.081  0.6141 -0.7365 -0.7270
19434TIP3   OH279716   3.942   4.563  11.216  0.3041  0.8486 -0.2189
19434TIP3    H179717   3.985   4.478  11.206 -0.2698 -0.0721  3.5965
19434TIP3    H279718   4.014   4.623  11.238  0.1663 -0.1518  3.5698
19435TIP3   OH279719   3.165   0.951   5.084 -0.1216  0.3549 -0.0983
19435TIP3    H179720   3.218   1.000   5.146  0.2629  0.4579 -0.5036
19435TIP3    H279721   3.227   0.922   5.017 -0.2754 -0.9599  0.2940
19436TIP3   OH279722   2.503   3.062   2.735  0.1345  0.5770  0.2281
19436TIP3    H179723   2.415   3.084   2.706  0.4788  0.0101 -1.4020
19436TIP3    H279724   2.500   2.969   2.756  0.3231  0.5576  0.1781
19437TIP3   OH279725   1.569   3.806  14.392 -0.4674 -0.2240 -0.0716
19437TIP3    H179726   1.589   3.727  14.443 -2.2949 -0.1514  0.8368
19437TIP3    H279727   1.582   3.779  14.301  0.7509 -0.9958  0.3021
19438TIP3   OH279728   1.948   3.617   6.149 -0.0355 -0.3458  0.1728
19438TIP3    H179729   1.936   3.584   6.060  0.4371 -1.2220  0.4285
19438TIP3    H279730   2.041   3.636   6.156  0.1184 -1.2852  0.8170
19439TIP3   OH279731   5.139   3.649   5.875 -0.1719  0.2103  0.1025
19439TIP3    H179732   5.089   3.595   5.937 -1.1604 -0.1533 -0.9919
19439TIP3    H279733   5.075   3.680   5.812  0.7412  0.9896 -0.4772
19440TIP3   OH279734   2.586   6.346  13.682  0.4774  0.1475 -0.5109
19440TIP3    H179735   2.672   6.338  13.723  0.6457 -0.4217 -0.9472
19440TIP3    H279736   2.543   6.417  13.728 -0.2622 -1.9294  2.2509
19441TIP3   OH279737   2.190   0.085   1.587  0.9160  0.3794  0.5220
19441TIP3    H179738   2.271   0.126   1.617  0.4137  0.9713  1.1062
19441TIP3    H279739   2.212   0.047   1.502  2.6336 -2.0545  1.9214
19442TIP3   OH279740   6.762   2.920  14.990  0.1609 -0.7741  0.3603
19442TIP3    H179741   6.850   2.957  14.992 -0.4398  0.9454 -1.5327
19442TIP3    H279742   6.722   2.947  15.072  0.4133  1.2003 -0.1153
19443TIP3   OH279743   4.196   4.638   4.596  0.4884  0.1262 -0.4096
19443TIP3    H179744   4.278   4.684   4.575  1.3306 -0.7850  0.7260
19443TIP3    H279745   4.223   4.567   4.654 -1.3826  1.1695  1.9094
19444TIP3   OH279746   3.084   4.897   2.579  0.0368 -0.0477  0.3206
19444TIP3    H179747   3.131   4.958   2.635  1.8468 -1.5342  0.5222
19444TIP3    H279748   3.149   4.830   2.556 -1.9324 -2.1398  0.4607
19445TIP3   OH279749   3.659   0.622  15.416  0.0484  0.1779 -0.6549
19445TIP3    H179750   3.721   0.601  15.486  0.0962  1.1640 -0.3917
19445TIP3    H279751   3.712   0.663  15.348  0.1806 -1.6696 -1.7377
19446TIP3   OH279752   5.924   5.731   5.983  0.6755 -0.5384  0.5546
19446TIP3    H179753   5.923   5.817   5.941 -0.9372 -1.0518 -0.5586
19446TIP3    H279754   5.881   5.745   6.067  1.7964  0.0351  1.0383
19447TIP3   OH279755   3.567   1.439   4.684 -0.0853 -0.0595  0.7018
19447TIP3    H179756   3.481   1.460   4.649 -0.9656 -2.2772  1.3773
19447TIP3    H279757   3.614   1.399   4.611 -0.7235 -1.5869  1.0966
19448TIP3   OH279758   2.718   6.327  15.447  0.0572 -0.0424 -0.0299
19448TIP3    H179759   2.722   6.402  15.506  0.9909 -0.4201  0.3982
19448TIP3    H279760   2.676   6.258  15.498 -0.3648  0.0365 -0.2641
19449TIP3   OH279761   4.535   4.857   1.868 -0.3395  0.5137  0.5326
19449TIP3    H179762   4.515   4.931   1.810 -0.7297  1.0306  1.3168
19449TIP3    H279763   4.481   4.786   1.835  0.9419  0.1861 -0.9978
19450TIP3   OH279764   2.341   2.224   2.559 -0.0337 -0.3476  0.0721
19450TIP3    H179765   2.381   2.142   2.531  0.4296 -0.2200  0.3437
19450TIP3    H279766   2.415   2.280   2.584 -0.4073 -0.4552  1.5170
19451TIP3   OH279767   3.384   6.397   1.717  0.7140  0.3267 -0.3106
19451TIP3    H179768   3.323   6.323   1.719  0.0858  0.7853 -1.6037
19451TIP3    H279769   3.448   6.376   1.786 -0.3061 -0.6598  0.3830
19452TIP3   OH279770   4.236   6.290  12.238  0.2014  0.9146  0.5063
19452TIP3    H179771   4.197   6.377  12.251 -0.8443  0.3166  1.5970
19452TIP3    H279772   4.173   6.244  12.182 -0.0203  0.3947  1.1563
19453TIP3   OH279773   3.507   2.372  13.095  0.4405 -0.0175  0.3547
19453TIP3    H179774   3.520   2.467  13.100  0.9156  0.1298 -2.3417
19453TIP3    H279775   3.571   2.337  13.157  1.0076  1.3886  0.6204
19454TIP3   OH279776   4.487   6.586  12.402  0.2984  0.3054 -0.1059
19454TIP3    H179777   4.395   6.608  12.391  0.6450  1.4478 -0.8709
19454TIP3    H279778   4.503   6.595  12.496 -0.1420  1.0317 -0.0987
19455TIP3   OH279779   6.441   2.155  11.076 -0.0811  0.1204 -0.3506
19455TIP3    H179780   6.392   2.128  10.999 -2.2085 -1.3744  1.3967
19455TIP3    H279781   6.493   2.077  11.099  1.1114  0.8033 -0.6645
19456TIP3   OH279782   1.265   0.568   2.153  0.3657  0.5258 -0.1668
19456TIP3    H179783   1.325   0.551   2.226 -2.5128  1.5174  2.6270
19456TIP3    H279784   1.180   0.538   2.184 -1.1004  1.3771 -3.0085
19457TIP3   OH279785   4.156   4.879  11.495  0.4351 -0.3671 -0.2833
19457TIP3    H179786   4.073   4.839  11.522  1.1735 -1.4461  0.4637
19457TIP3    H279787   4.186   4.927  11.572 -0.0362  0.9759 -0.9134
19458TIP3   OH279788   0.339   3.835   2.246  0.3323 -0.2524 -0.5081
19458TIP3    H179789   0.268   3.841   2.182  0.5425 -1.1516 -0.8429
19458TIP3    H279790   0.295   3.843   2.331 -0.2505 -1.2162 -0.6953
19459TIP3   OH279791   2.656   4.477  11.808  0.3445  0.5300 -0.2218
19459TIP3    H179792   2.576   4.426  11.800  0.6795  0.2143 -2.1732
19459TIP3    H279793   2.655   4.534  11.730  1.4736  1.3123  0.3093
19460TIP3   OH279794   1.971   2.337   0.286  0.0844 -0.0358 -0.0785
19460TIP3    H179795   2.010   2.256   0.320  0.2189 -1.5060 -3.3039
19460TIP3    H279796   2.043   2.382   0.242 -0.4480  0.7488 -0.1763
19461TIP3   OH279797   5.338   3.167  13.500  0.6696  0.3418 -0.1637
19461TIP3    H179798   5.343   3.237  13.435  1.4087 -0.0486 -0.5410
19461TIP3    H279799   5.288   3.098  13.457 -1.3416  1.1764  0.7354
19462TIP3   OH279800   4.823   4.302  11.464 -0.8708  0.4833 -0.7282
19462TIP3    H179801   4.886   4.232  11.481 -0.5821  1.2711  1.8114
19462TIP3    H279802   4.875   4.372  11.424  0.2359  1.5392  2.2928
19463TIP3   OH279803   4.064   1.070   4.339 -0.2632 -0.0393 -0.0464
19463TIP3    H179804   4.154   1.103   4.328 -0.1489  0.2367  1.5626
19463TIP3    H279805   4.059   0.995   4.279  0.7702  0.4446 -0.7685
19464TIP3   OH279806   1.914   3.203  15.155 -0.4873 -0.2233  0.4609
19464TIP3    H179807   1.871   3.123  15.185 -1.4279 -0.5841 -1.6535
19464TIP3    H279808   1.900   3.266  15.225 -0.6480 -1.5916  1.7164
19465TIP3   OH279809   5.352   6.138  12.853  0.0528  0.1306 -0.3523
19465TIP3    H179810   5.432   6.174  12.892  0.1850 -0.4472 -0.0878
19465TIP3    H279811   5.325   6.069  12.912 -0.0300 -0.4222 -1.0188
19466TIP3   OH279812   2.298   1.824  15.070 -0.1380 -0.2477  0.3728
19466TIP3    H179813   2.303   1.911  15.030 -0.6111 -0.4847 -0.2219
19466TIP3    H279814   2.257   1.769  15.003  0.9619 -1.1381  0.3872
19467TIP3   OH279815   3.197   3.155  16.623 -0.3578  0.1760  0.1352
19467TIP3    H179816   3.211   3.124  16.713  1.1783 -1.4520 -0.5977
19467TIP3    H279817   3.175   3.076  16.573  2.7571  0.2903 -1.6529
19468TIP3   OH279818   1.369   6.672  11.958  0.8624 -0.2630  0.0585
19468TIP3    H179819   1.416   6.741  11.912  0.6028 -0.2475 -0.1879
19468TIP3    H279820   1.277   6.683  11.932  0.9518 -1.3128 -0.7829
19469TIP3   OH279821   3.880   3.459   2.637 -0.4201 -0.4582 -0.2819
19469TIP3    H179822   3.879   3.547   2.599 -1.5717 -1.0127 -1.6602
19469TIP3    H279823   3.891   3.473   2.731  2.9541  0.9734 -0.7568
19470TIP3   OH279824   4.885   5.644  16.334 -0.2887  0.2942 -0.4062
19470TIP3    H179825   4.810   5.619  16.280 -0.2145  1.1758 -0.9367
19470TIP3    H279826   4.933   5.708  16.281  0.5207  0.1828  0.1619
19471TIP3   OH279827   5.315   5.458  14.470  0.2579 -0.1885  0.2181
19471TIP3    H179828   5.285   5.368  14.481  2.3184 -0.8854  0.5798
19471TIP3    H279829   5.364   5.478  14.550 -0.7953  1.5431  0.4847
19472TIP3   OH279830   4.336   0.010   5.638 -0.1118 -0.2276  0.2522
19472TIP3    H179831   4.324   0.102   5.662  1.0246  0.0672 -0.2504
19472TIP3    H279832   4.304  -0.039   5.714 -1.2049  0.5510  0.3261
19473TIP3   OH279833   3.768   1.464   3.983  0.1592 -0.0584  0.1501
19473TIP3    H179834   3.757   1.462   4.078  1.6448 -0.7464  0.3481
19473TIP3    H279835   3.753   1.374   3.954  0.4552 -0.0164 -0.1530
19474TIP3   OH279836   2.811   2.098   3.708  0.2307  0.4211  0.4640
19474TIP3    H179837   2.857   2.124   3.628 -0.5261  0.8094  0.1570
19474TIP3    H279838   2.719   2.094   3.684  0.1375 -0.9323  0.9288
19475TIP3   OH279839   0.928   5.639   2.456  0.7322  0.3318 -0.1832
19475TIP3    H179840   0.997   5.674   2.513 -2.5296  2.6118  2.8616
19475TIP3    H279841   0.898   5.716   2.407 -0.7259 -0.1743 -0.1209
19476TIP3   OH279842   1.195   4.235   2.063 -0.0052 -0.0104 -0.2481
19476TIP3    H179843   1.289   4.249   2.060 -0.0573  0.2987 -0.5426
19476TIP3    H279844   1.183   4.144   2.037  0.2509 -0.2261  0.3727
19477TIP3   OH279845   2.052   5.926  12.073  0.3081  0.5386  0.2738
19477TIP3    H179846   2.082   5.836  12.064 -0.0868  0.4443 -0.1386
19477TIP3    H279847   1.982   5.934  12.008 -0.1179  0.9386  0.7792
19478TIP3   OH279848   3.834   5.913   3.920 -0.6499 -0.4325  0.7056
19478TIP3    H179849   3.879   5.871   3.994  4.3752 -0.2907 -1.8587
19478TIP3    H279850   3.835   5.847   3.851 -1.1241  0.8882 -0.6083
19479TIP3   OH279851   6.171   6.165   4.609 -0.2522 -0.1882  0.0956
19479TIP3    H179852   6.265   6.176   4.594 -0.7671  1.7750 -2.5516
19479TIP3    H279853   6.152   6.222   4.683  0.3712  1.1248 -0.7145
19480TIP3   OH279854   1.750   6.761   4.865  0.1140 -0.0984 -0.0865
19480TIP3    H179855   1.752   6.802   4.779  1.7439  0.7881  0.3360
19480TIP3    H279856   1.838   6.726   4.878  0.5973  1.6414  2.0387
19481TIP3   OH279857   0.135   5.223  14.137 -0.2520 -0.1120 -0.2564
19481TIP3    H179858   0.133   5.305  14.087 -0.5624  0.3176  0.4375
19481TIP3    H279859   0.150   5.155  14.072  0.9316  0.5827 -0.7446
19482TIP3   OH279860   3.986   1.790  16.185  0.2635 -0.4498 -0.4751
19482TIP3    H179861   4.022   1.786  16.096  0.0855  1.5573 -0.6851
19482TIP3    H279862   4.058   1.763  16.242  1.5695  1.6769 -1.0198
19483TIP3   OH279863   4.907   0.690   0.283  0.6585  0.2016  0.1461
19483TIP3    H179864   4.981   0.680   0.223  0.5010  1.1759 -0.2335
19483TIP3    H279865   4.927   0.770   0.333 -0.0744  0.4113  0.1218
19484TIP3   OH279866   0.639   2.846   5.684  0.7236 -0.2173 -0.4018
19484TIP3    H179867   0.683   2.768   5.650  2.3519 -0.5760  2.2616
19484TIP3    H279868   0.690   2.871   5.761 -1.2505  1.9869  0.3105
19485TIP3   OH279869   0.889   2.610  12.068  0.0176 -0.2588 -0.6337
19485TIP3    H179870   0.852   2.571  12.148 -1.0058 -0.1624 -1.0527
19485TIP3    H279871   0.813   2.636  12.017  0.6855  0.5936 -1.2030
19486TIP3   OH279872   6.042   1.207   3.047  0.0595 -0.2897 -0.6585
19486TIP3    H179873   6.007   1.264   2.978 -0.0110 -0.3089 -0.6390
19486TIP3    H279874   5.972   1.144   3.063 -0.2449  0.2015 -0.0096
19487TIP3   OH279875   3.785   5.530   1.755 -0.8108 -0.3564 -0.5690
19487TIP3    H179876   3.691   5.520   1.769 -1.4313  3.9846 -0.2289
19487TIP3    H279877   3.823   5.526   1.843 -0.7914 -1.1310 -0.6082
19488TIP3   OH279878   5.640   1.902  13.183 -0.2670 -0.4462 -0.1998
19488TIP3    H179879   5.673   1.828  13.132 -1.2967 -0.1477 -1.3327
19488TIP3    H279880   5.565   1.867  13.230 -1.4162  0.0850 -1.5534
19489TIP3   OH279881   3.472   4.592  11.928  0.6825  0.0132 -0.0520
19489TIP3    H179882   3.536   4.650  11.969  1.3209  0.3194 -1.4306
19489TIP3    H279883   3.517   4.508  11.921 -0.0330 -0.5230  1.3973
19490TIP3   OH279884   4.871   4.089   4.602  0.0317  0.4789 -0.0396
19490TIP3    H179885   4.792   4.112   4.554  0.0028  0.7427  0.1317
19490TIP3    H279886   4.840   4.039   4.677 -0.4174  3.8204  2.2470
19491TIP3   OH279887   0.708   5.160  13.268  0.1907  0.4086  0.3472
19491TIP3    H179888   0.776   5.095  13.249  0.1004 -0.6777  3.2113
19491TIP3    H279889   0.746   5.214  13.338 -0.7590  1.7513 -0.1401
19492TIP3   OH279890   6.639   3.881   6.757  0.1877  0.0073 -0.2879
19492TIP3    H179891   6.679   3.906   6.674 -0.0942 -1.6037 -0.9455
19492TIP3    H279892   6.651   3.958   6.813 -0.7130  1.6288 -2.1796
19493TIP3   OH279893   4.017   0.491   1.669 -0.0091  0.5591  0.1623
19493TIP3    H179894   4.081   0.433   1.628  1.3093  1.5152  0.7991
19493TIP3    H279895   4.063   0.530   1.743 -0.7046  2.6518 -0.4101
19494TIP3   OH279896   0.369   0.450   0.726  0.6572  0.1200 -0.4824
19494TIP3    H179897   0.285   0.405   0.736  0.9264 -0.1344  0.8609
19494TIP3    H279898   0.368   0.519   0.792  2.3145 -1.1863  1.0001
19495TIP3   OH279899   5.194   2.036  12.778 -0.0131 -0.0319 -0.4504
19495TIP3    H179900   5.235   1.963  12.732 -0.5391 -0.7054  0.1367
19495TIP3    H279901   5.107   2.043  12.738 -0.4385 -0.5621  0.3669
19496TIP3   OH279902   2.876   2.641   5.005  0.0954  0.1290  0.4217
19496TIP3    H179903   2.819   2.626   4.930  0.2634 -2.0981  0.6967
19496TIP3    H279904   2.925   2.560   5.016 -0.7086 -0.0505  3.5877
19497TIP3   OH279905   4.905   3.509   5.255 -0.3012 -0.6581 -0.0441
19497TIP3    H179906   4.829   3.486   5.308  0.7540  1.0553  2.4210
19497TIP3    H279907   4.879   3.591   5.212 -0.4078 -0.9424 -0.5307
19498TIP3   OH279908   0.372   0.219  13.625  0.0871 -0.3519  0.0639
19498TIP3    H179909   0.353   0.242  13.535 -1.6986 -0.9476  0.2561
19498TIP3    H279910   0.417   0.134  13.620  2.8429  1.0215 -0.3869
19499TIP3   OH279911   5.461   4.559  15.039  0.2554 -0.5218  0.2154
19499TIP3    H179912   5.454   4.527  15.129 -1.7587  0.9276  0.6420
19499TIP3    H279913   5.501   4.645  15.046  1.3440 -0.9452 -0.4508
19500TIP3   OH279914   1.688   0.575  13.955  0.2068 -0.0227 -0.7622
19500TIP3    H179915   1.655   0.628  14.027  0.0287 -1.5850  0.3501
19500TIP3    H279916   1.753   0.517  13.996 -0.6037 -1.6117 -1.6515
19501TIP3   OH279917   4.154   6.654  15.129  0.3400  0.0323 -0.2488
19501TIP3    H179918   4.063   6.680  15.144  0.4522  0.0998  0.3102
19501TIP3    H279919   4.191   6.642  15.216  0.5415 -1.1715 -0.4867
19502TIP3   OH279920   5.391   0.318  14.821  0.4038 -0.1752  0.0559
19502TIP3    H179921   5.388   0.376  14.744  0.6750  2.4963  1.9200
19502TIP3    H279922   5.355   0.371  14.892  0.1867 -2.5405  1.8195
19503TIP3   OH279923   5.239   0.377   2.398 -0.2908  0.1093  0.1666
19503TIP3    H179924   5.209   0.286   2.398 -0.9239  0.1008  4.2496
19503TIP3    H279925   5.165   0.427   2.364 -0.7270 -0.7564 -0.1952
19504TIP3   OH279926   0.350   5.124  11.979 -0.4155  0.0109  0.1152
19504TIP3    H179927   0.300   5.153  12.055 -1.0405 -0.2541 -0.1793
19504TIP3    H279928   0.321   5.182  11.908 -1.4242 -1.0678 -0.4008
19505TIP3   OH279929   6.344   2.273  15.887  0.2288 -0.1063 -0.1461
19505TIP3    H179930   6.309   2.342  15.944 -1.1616 -2.4768  2.0912
19505TIP3    H279931   6.439   2.282  15.894  0.0847  0.1631  1.9966
19506TIP3   OH279932   0.369   0.504   0.157  0.2800 -0.1346  0.0389
19506TIP3    H179933   0.416   0.462   0.230 -0.4226 -0.9843  0.0183
19506TIP3    H279934   0.277   0.486   0.175  0.0427  0.4336 -0.5887
19507TIP3   OH279935   1.912   0.689   1.275  0.2598  0.0908  0.0382
19507TIP3    H179936   1.980   0.730   1.329 -0.8662  1.6461  0.3173
19507TIP3    H279937   1.858   0.761   1.244 -2.3319 -1.1716  1.2605
19508TIP3   OH279938   5.201   4.879  14.654  0.0383  0.1681 -0.0774
19508TIP3    H179939   5.224   4.793  14.618  0.2573 -0.4082  1.3881
19508TIP3    H279940   5.272   4.900  14.714  0.7568  2.0886 -1.4862
19509TIP3   OH279941   4.210   3.387   6.447  0.5570  0.4399 -0.0126
19509TIP3    H179942   4.230   3.475   6.477 -1.3694  0.8501  0.1857
19509TIP3    H279943   4.116   3.388   6.428  0.3073 -1.7790  0.7419
19510TIP3   OH279944   0.807   0.567  13.564 -0.0941  0.0212  0.2374
19510TIP3    H179945   0.876   0.562  13.630 -0.7717 -0.0138  0.9598
19510TIP3    H279946   0.733   0.520  13.602 -0.8770  0.9637 -0.0577
19511TIP3   OH279947   5.593   0.285  15.506  0.4569 -0.1907 -0.5492
19511TIP3    H179948   5.567   0.230  15.579  0.2834 -0.3673 -0.7427
19511TIP3    H279949   5.593   0.227  15.430 -1.7583  0.5007 -1.1472
19512TIP3   OH279950   3.727   5.025   1.582 -0.2420 -0.1379  0.1097
19512TIP3    H179951   3.646   4.996   1.624 -1.8217  0.3761 -2.3885
19512TIP3    H279952   3.712   5.117   1.562  1.6058  0.3954  0.9305
19513TIP3   OH279953   1.590   4.936  11.819 -0.5025  0.5371 -0.4022
19513TIP3    H179954   1.532   4.983  11.760 -0.8529 -2.5862 -2.8115
19513TIP3    H279955   1.604   4.851  11.777  2.9527 -0.2229  1.8390
19514TIP3   OH279956   5.496   3.720  12.386  0.4048  0.0552 -0.2091
19514TIP3    H179957   5.529   3.639  12.348 -2.6396 -1.2012 -0.4206
19514TIP3    H279958   5.505   3.785  12.317  2.9136 -0.0080 -0.0272
19515TIP3   OH279959   2.529   0.212   3.705 -0.0591  0.1589 -0.5004
19515TIP3    H179960   2.619   0.190   3.679 -0.0364 -1.6010  0.8651
19515TIP3    H279961   2.537   0.235   3.798 -0.9334  0.5738 -0.5281
19516TIP3   OH279962   6.756   5.903   3.830 -0.2368  0.8492 -0.1644
19516TIP3    H179963   6.762   5.841   3.903 -0.6379 -2.2302 -2.5516
19516TIP3    H279964   6.679   5.956   3.850  0.5268  1.1620  2.3210
19517TIP3   OH279965   0.787   2.041   5.354 -0.2153  0.8974 -0.2536
19517TIP3    H179966   0.793   1.946   5.359  1.2984  1.0324  2.6712
19517TIP3    H279967   0.809   2.062   5.263  1.1432 -1.4311 -0.5347
19518TIP3   OH279968   6.473   2.312  16.927  0.0653  0.2260  0.1605
19518TIP3    H179969   6.392   2.286  16.972  0.3405 -0.1417  0.4476
19518TIP3    H279970   6.539   2.252  16.961  0.2346 -0.2103 -0.9210
19519TIP3   OH279971   2.218   3.541  12.133  0.0816 -0.0729 -0.1629
19519TIP3    H179972   2.258   3.455  12.125 -0.1639 -0.3401  1.2804
19519TIP3    H279973   2.139   3.527  12.185 -0.3447  0.9192 -0.4985
19520TIP3   OH279974   0.084   3.169  15.384 -0.0207  0.1042 -0.1571
19520TIP3    H179975   0.078   3.264  15.386  0.6148  0.1663 -0.7755
19520TIP3    H279976   0.093   3.143  15.476  1.3030  0.7494 -0.0845
19521TIP3   OH279977   3.374   6.528   2.527  0.2400 -0.0034  0.5340
19521TIP3    H179978   3.329   6.578   2.594 -0.8856 -1.1253  0.6466
19521TIP3    H279979   3.369   6.583   2.449  1.1146  1.0798  1.2093
19522TIP3   OH279980   4.980   3.922   2.850  0.1291 -0.1083  0.9092
19522TIP3    H179981   4.943   3.842   2.888 -0.3837 -0.7753 -0.9165
19522TIP3    H279982   4.946   3.924   2.760  1.4147  1.3359  0.4211
19523TIP3   OH279983   2.789   1.449   3.867 -0.4873  0.4448 -0.3549
19523TIP3    H179984   2.762   1.529   3.822  0.0084 -0.3366 -2.1348
19523TIP3    H279985   2.870   1.423   3.823 -0.7454 -1.1443  0.0433
19524TIP3   OH279986   2.538   5.170  11.776  0.0579  0.2065 -0.8076
19524TIP3    H179987   2.592   5.125  11.840  0.6828 -0.1968 -1.5979
19524TIP3    H279988   2.600   5.202  11.710 -0.5998  0.3206 -1.3865
19525TIP3   OH279989   2.416   1.194  14.311 -0.3897  0.2331  0.2200
19525TIP3    H179990   2.425   1.169  14.219  1.3631  0.7486  0.2151
19525TIP3    H279991   2.452   1.119  14.359 -0.0493  0.5265  0.4241
19526TIP3   OH279992   6.403   6.450  14.225 -0.4295  0.5712 -0.3211
19526TIP3    H179993   6.489   6.446  14.267 -0.2935  1.8416 -0.4346
19526TIP3    H279994   6.394   6.366  14.179  0.1523 -0.1293  0.8206
19527TIP3   OH279995   0.005   2.969   2.894 -0.5552 -0.0843  0.3905
19527TIP3    H179996   0.008   3.005   2.805  0.9193 -1.3728 -0.1292
19527TIP3    H279997  -0.043   2.886   2.885 -1.0243  0.1195  0.9423
19528TIP3   OH279998   2.995   1.114   2.017  0.2692  0.2667 -0.5082
19528TIP3    H179999   3.069   1.061   2.047 -0.0053 -1.1448 -2.1277
19528TIP3    H280000   3.026   1.155   1.936 -0.3877  0.4864 -0.6549
19529TIP3   OH280001   5.657   0.245  10.924  0.2476 -0.2874 -0.4830
19529TIP3    H180002   5.619   0.158  10.927  0.6234 -0.4831  3.1359
19529TIP3    H280003   5.689   0.255  10.835 -0.2220 -3.6535 -1.1330
19530TIP3   OH280004   4.387   2.595   4.989 -0.1666 -0.5601 -0.7862
19530TIP3    H180005   4.472   2.610   4.948  1.2663  0.1877  2.1752
19530TIP3    H280006   4.373   2.501   4.984 -0.1665 -0.4846 -3.0288
19531TIP3   OH280007   2.822   0.048   0.633  0.0056  0.3726 -0.3193
19531TIP3    H180008   2.807   0.140   0.657 -1.1407  0.0861  0.0991
19531TIP3    H280009   2.735   0.013   0.616  0.2347 -1.0974  1.2082
19532TIP3   OH280010   6.490   1.974   3.670  0.5433 -0.7276 -0.4293
19532TIP3    H180011   6.488   2.045   3.735  2.0072 -0.2773 -0.8415
19532TIP3    H280012   6.459   2.014   3.589  0.8972 -0.6932 -0.5469
19533TIP3   OH280013   6.172   5.303   5.664 -0.1917  0.1817 -0.1181
19533TIP3    H180014   6.196   5.395   5.666 -0.7485  0.3866 -1.4314
19533TIP3    H280015   6.171   5.281   5.571 -1.2465 -0.8231  0.1068
19534TIP3   OH280016   0.918   3.000  16.455 -0.3993 -0.1237  0.1990
19534TIP3    H180017   0.934   3.094  16.467  1.2109 -0.3514  0.0569
19534TIP3    H280018   0.862   2.976  16.528 -2.3789  1.2936 -0.7710
19535TIP3   OH280019   2.108   3.395   2.621  0.3869 -0.0141 -0.3342
19535TIP3    H180020   2.017   3.365   2.612  0.5939 -1.4737  1.7576
19535TIP3    H280021   2.159   3.315   2.627  1.4151  0.7066  1.6445
19536TIP3   OH280022   5.618   5.882  13.132 -0.6114  0.4454  0.5198
19536TIP3    H180023   5.545   5.932  13.169 -0.1765  1.1960  0.3931
19536TIP3    H280024   5.607   5.890  13.037 -1.3147 -0.8706  0.4617
19537TIP3   OH280025   1.531   6.430  15.304  0.7485  0.4369  0.3330
19537TIP3    H180026   1.487   6.360  15.353  1.4446 -1.4449 -1.5743
19537TIP3    H280027   1.506   6.510  15.350 -1.7712 -0.8398  1.4303
19538TIP3   OH280028   2.297   6.527  14.799  0.6282  0.2542 -0.0910
19538TIP3    H180029   2.240   6.477  14.741 -0.6566  0.2813  1.0818
19538TIP3    H280030   2.334   6.461  14.858 -1.0224  0.5934  1.4199
19539TIP3   OH280031   3.324   0.263   2.294 -0.0126  0.0696  0.2457
19539TIP3    H180032   3.244   0.311   2.313  0.6855  1.3126  0.1201
19539TIP3    H280033   3.378   0.324   2.244  1.1064 -0.6688  0.5047
19540TIP3   OH280034   6.209   6.347  12.020  0.0184 -0.2072  0.4887
19540TIP3    H180035   6.228   6.433  11.985  0.5579 -0.3508  0.4178
19540TIP3    H280036   6.249   6.347  12.107 -0.3856 -0.2252  0.6774
19541TIP3   OH280037   0.837   0.520   1.947  0.2308 -0.5982 -0.3621
19541TIP3    H180038   0.810   0.580   1.877  0.0936 -0.9763 -0.6331
19541TIP3    H280039   0.771   0.532   2.015 -1.0806 -2.0268 -1.2954
19542TIP3   OH280040   2.808   4.968   2.565  1.0730  0.2661  0.7592
19542TIP3    H180041   2.765   4.883   2.558 -0.0327  0.9184 -1.2609
19542TIP3    H280042   2.901   4.949   2.553  0.6773 -0.5452 -1.6082
19543TIP3   OH280043   2.442   5.177   2.718 -0.4454 -0.6131 -0.4903
19543TIP3    H180044   2.404   5.091   2.702  0.9517 -1.9132  2.4024
19543TIP3    H280045   2.496   5.165   2.797  0.1520  2.8177 -0.2256
19544TIP3   OH280046   5.976   5.142  12.221  0.1911 -0.2956  0.2803
19544TIP3    H180047   6.042   5.144  12.152  1.1851  1.5808  1.2037
19544TIP3    H280048   5.897   5.111  12.178  0.9314  0.2596 -1.5774
19545TIP3   OH280049   2.052   1.007  14.851  0.5479  0.0249 -0.5377
19545TIP3    H180050   2.032   0.917  14.825  1.2756  0.0244 -1.1492
19545TIP3    H280051   2.088   0.999  14.939  0.2252 -0.2380 -0.4277
19546TIP3   OH280052   2.044   2.130   5.655 -0.3494 -0.3795 -0.2514
19546TIP3    H180053   2.123   2.078   5.665  0.5695  1.2252  1.6904
19546TIP3    H280054   1.982   2.091   5.717 -0.5234 -0.6757 -0.6130
19547TIP3   OH280055   3.072   1.951   5.401  0.3063 -0.8359  0.0418
19547TIP3    H180056   3.040   1.861   5.390 -0.8748 -0.3006 -1.0777
19547TIP3    H280057   3.043   1.997   5.322  1.1847  0.4616  0.4395
19548TIP3   OH280058   1.260   0.172  14.430 -0.0859  0.4512  0.3066
19548TIP3    H180059   1.194   0.162  14.361  0.5760  0.8927 -0.4117
19548TIP3    H280060   1.210   0.194  14.508 -0.7910  0.8762 -0.2484
19549TIP3   OH280061   1.609   4.151  13.458 -0.9093  0.1151  0.0120
19549TIP3    H180062   1.528   4.182  13.418 -1.5901  1.1351  2.0674
19549TIP3    H280063   1.645   4.090  13.394 -4.0414 -1.5446 -0.3412
19550TIP3   OH280064   4.133   2.848  15.448 -0.2658  0.3399  0.4473
19550TIP3    H180065   4.060   2.908  15.464 -0.5279 -0.1960  1.3884
19550TIP3    H280066   4.098   2.786  15.384 -1.8619 -1.8264  3.1575
19551TIP3   OH280067   2.064   4.331  17.271  0.4246 -0.2823 -0.4965
19551TIP3    H180068   2.002   4.356  17.339  0.8193  0.6561 -0.4657
19551TIP3    H280069   2.055   4.236  17.265 -0.7012 -0.2133 -0.2019
19552TIP3   OH280070   4.896   2.357   2.788  0.4855 -0.6024  0.4637
19552TIP3    H180071   4.933   2.444   2.807 -1.6417  0.7440 -1.0709
19552TIP3    H280072   4.855   2.330   2.870  0.6179  0.1451  0.7853
19553TIP3   OH280073   5.982   4.639  13.995 -0.0310  0.8582  0.1125
19553TIP3    H180074   5.931   4.561  13.973  0.6308  0.5047 -0.1969
19553TIP3    H280075   5.924   4.712  13.972 -1.4349  0.4964  2.2182
19554TIP3   OH280076   4.060   4.164  10.865  0.5145  0.6506 -0.0296
19554TIP3    H180077   3.979   4.158  10.916  1.2848 -0.2515  1.1308
19554TIP3    H280078   4.129   4.172  10.931  1.4387  0.6273 -0.9791
19555TIP3   OH280079   5.323   0.616   1.531  0.4279 -0.4997 -0.8008
19555TIP3    H180080   5.310   0.709   1.512  1.0978 -0.5577 -1.6096
19555TIP3    H280081   5.410   0.612   1.571 -0.1582 -0.6277  0.5075
19556TIP3   OH280082   3.384   0.720  16.423  0.0913 -0.7215 -0.0081
19556TIP3    H180083   3.334   0.654  16.376 -0.1194 -0.7000  0.1860
19556TIP3    H280084   3.352   0.804  16.390 -0.8333 -0.6756  0.9431
19557TIP3   OH280085   6.057   2.081   0.985 -0.5258  0.0601  0.5451
19557TIP3    H180086   5.997   2.098   1.058 -1.3409 -1.3407  0.2426
19557TIP3    H280087   6.144   2.077   1.025 -0.6407  1.7796  1.0445
19558TIP3   OH280088   3.627   3.347   2.614 -0.5888  0.2436  0.1003
19558TIP3    H180089   3.587   3.305   2.538 -0.2016  0.2754 -0.1272
19558TIP3    H280090   3.707   3.387   2.579 -0.0287 -0.3603  0.6518
19559TIP3   OH280091   0.758   3.736  11.594 -0.2124  0.1865 -0.0452
19559TIP3    H180092   0.753   3.670  11.664  1.0836  0.9401  0.8165
19559TIP3    H280093   0.820   3.700  11.531  1.6338  1.1366  1.1384
19560TIP3   OH280094   1.351   1.723  17.142  0.3993  0.0051  0.1703
19560TIP3    H180095   1.264   1.758  17.121  0.5494 -1.4513 -3.5664
19560TIP3    H280096   1.335   1.633  17.171  0.6161  0.2917  1.2509
19561TIP3   OH280097   3.097   1.174   2.424 -0.4855 -0.1842  0.4196
19561TIP3    H180098   3.100   1.251   2.366  0.0004 -0.9706 -0.6390
19561TIP3    H280099   3.056   1.106   2.371 -0.5260 -0.7753  1.1995
19562TIP3   OH280100   0.567   1.120   2.754 -0.5433  0.2827 -0.3245
19562TIP3    H180101   0.656   1.095   2.729 -1.2641 -0.4869 -2.3191
19562TIP3    H280102   0.579   1.189   2.820  1.5304  0.9653 -1.3338
19563TIP3   OH280103   4.193   3.234  16.011  0.5810 -0.0099  0.0803
19563TIP3    H180104   4.238   3.313  16.040  0.4244  0.3372 -0.5887
19563TIP3    H280105   4.120   3.223  16.072  1.3084 -0.3290  0.9067
19564TIP3   OH280106   6.216   4.035  15.600  0.2946  0.4684  0.0401
19564TIP3    H180107   6.148   4.022  15.535  1.0213 -3.4434 -0.1320
19564TIP3    H280108   6.295   3.998  15.561  1.3969  0.4974  2.0912
19565TIP3   OH280109   0.596   6.311  13.290 -0.2239  0.3049  0.3610
19565TIP3    H180110   0.613   6.217  13.288  0.8661  0.4820  0.7105
19565TIP3    H280111   0.612   6.337  13.381 -0.0836  0.9025  0.1739
19566TIP3   OH280112   6.524   6.685  16.355  0.1535  0.6811 -0.6563
19566TIP3    H180113   6.545   6.754  16.418  0.4402 -1.2484  1.5109
19566TIP3    H280114   6.429   6.675  16.362  0.1438  0.6904 -0.7792
19567TIP3   OH280115   3.579   6.103  13.999 -0.0891  0.0077  0.1687
19567TIP3    H180116   3.645   6.076  14.063 -0.1349  1.5526  0.9205
19567TIP3    H280117   3.630   6.125  13.920 -0.0774 -2.4227 -0.5859
19568TIP3   OH280118   2.848   6.542   5.112 -0.5978 -0.0868  0.4173
19568TIP3    H180119   2.922   6.598   5.135 -1.4104  1.2065  0.0085
19568TIP3    H280120   2.798   6.534   5.193 -0.6175  0.0214  0.4171
19569TIP3   OH280121   3.061   4.090   6.196 -0.7482  0.7139  0.0874
19569TIP3    H180122   3.091   4.030   6.264  0.3369  1.8134  0.6239
19569TIP3    H280123   3.011   4.035   6.136  0.1191 -0.7057  0.6084
19570TIP3   OH280124   5.263   2.078   2.331  0.0138 -0.1352  0.1171
19570TIP3    H180125   5.196   2.051   2.393 -0.4694 -1.3648 -0.8991
19570TIP3    H280126   5.346   2.060   2.376 -0.3227  0.0207  0.8143
19571TIP3   OH280127   1.859   4.620  16.131 -0.0094  0.1126 -0.4845
19571TIP3    H180128   1.832   4.708  16.105 -0.4559 -0.5552 -2.5379
19571TIP3    H280129   1.792   4.562  16.094  1.4195 -1.2243 -1.1276
19572TIP3   OH280130   6.424   1.150   2.390  0.9776  0.8962  0.1825
19572TIP3    H180131   6.433   1.123   2.481 -0.1937 -0.5706 -0.0978
19572TIP3    H280132   6.496   1.107   2.344  0.4715  0.0930  0.1242
19573TIP3   OH280133   2.450   1.927   4.371  0.1465  0.0627 -0.1964
19573TIP3    H180134   2.444   1.855   4.434  0.2711  0.6746  0.5303
19573TIP3    H280135   2.531   1.912   4.323 -0.1650 -0.6436 -0.5184
19574TIP3   OH280136   3.644   4.895  16.080 -0.0848 -0.4303 -0.5708
19574TIP3    H180137   3.671   4.912  15.990 -1.3396 -3.0420 -1.5576
19574TIP3    H280138   3.551   4.918  16.082 -0.2147 -0.9706 -0.1365
19575TIP3   OH280139   1.861   6.755   1.355 -0.4154  0.0821  0.1099
19575TIP3    H180140   1.943   6.795   1.327 -1.8930  2.4061 -1.3098
19575TIP3    H280141   1.844   6.795   1.441 -0.8468  0.9166 -0.3512
19576TIP3   OH280142   6.606   1.412  12.778 -0.0803  0.3028 -0.0481
19576TIP3    H180143   6.642   1.449  12.858  0.4903 -0.2958 -0.0212
19576TIP3    H280144   6.636   1.322  12.778  1.3694  0.7309 -1.7687
19577TIP3   OH280145   6.160   4.772  15.853 -0.3152  0.1079  0.6124
19577TIP3    H180146   6.246   4.793  15.816 -0.3928 -0.1458  0.2805
19577TIP3    H280147   6.131   4.853  15.894 -0.0389  0.2730  0.4848
19578TIP3   OH280148   2.716   0.236   5.373  0.0765  0.4305 -0.0698
19578TIP3    H180149   2.680   0.304   5.316 -0.6481 -0.7007 -1.0191
19578TIP3    H280150   2.639   0.196   5.414  0.4748  0.0565  0.3191
19579TIP3   OH280151   4.988   3.673  11.938  0.1891 -0.5957 -0.7129
19579TIP3    H180152   4.988   3.723  11.856 -0.5084  3.0906  1.2894
19579TIP3    H280153   5.036   3.729  12.000 -1.0480 -2.2325  1.9108
19580TIP3   OH280154   6.270   6.667   4.756 -0.3879 -0.3846  0.2245
19580TIP3    H180155   6.264   6.632   4.845  1.6517  1.2946  1.1312
19580TIP3    H280156   6.345   6.621   4.717  0.2250  0.5474  0.2613
19581TIP3   OH280157   5.928   2.580  15.387  0.1587  0.1648  0.2954
19581TIP3    H180158   5.836   2.557  15.394 -0.5354  2.2536 -0.9714
19581TIP3    H280159   5.950   2.564  15.295  0.5992  1.1037  0.2186
19582TIP3   OH280160   1.019   6.072  11.658 -0.7781  0.1096  0.5744
19582TIP3    H180161   1.038   5.987  11.698  0.8194  0.2429  0.1623
19582TIP3    H280162   1.032   6.136  11.728  2.8945  0.4313 -0.1917
19583TIP3   OH280163   0.676   1.686  12.917 -0.0766 -0.1244 -0.2466
19583TIP3    H180164   0.647   1.601  12.947  0.6746 -0.5610 -0.7158
19583TIP3    H280165   0.762   1.698  12.958 -0.0631  0.2886 -0.3878
19584TIP3   OH280166   4.292   1.006   2.931 -0.7158  0.0779 -0.3059
19584TIP3    H180167   4.239   1.084   2.946  0.1613  1.4007 -3.2598
19584TIP3    H280168   4.382   1.035   2.948 -0.5565 -0.9982  0.8088
19585TIP3   OH280169   1.763   3.972  13.302 -0.1976 -0.1497  0.0453
19585TIP3    H180170   1.859   3.974  13.307 -0.2210  1.2197  0.6728
19585TIP3    H280171   1.740   3.879  13.304  1.1123 -0.4934 -0.0466
19586TIP3   OH280172   0.654   5.953   2.294  0.1084  0.0201  0.1783
19586TIP3    H180173   0.631   5.946   2.386 -1.6007  0.2664 -0.1774
19586TIP3    H280174   0.569   5.958   2.249  0.8798 -0.8018 -1.4653
19587TIP3   OH280175   2.578   4.464  16.903  0.6344  0.2440 -0.1477
19587TIP3    H180176   2.524   4.534  16.867  0.9575  0.6834  0.2058
19587TIP3    H280177   2.666   4.482  16.870  1.0821  1.0635  1.3903
19588TIP3   OH280178   5.438   3.695  15.037  0.7778 -0.8308 -0.1696
19588TIP3    H180179   5.376   3.634  15.077  0.4038 -1.1940 -1.2595
19588TIP3    H280180   5.451   3.763  15.103 -1.7165 -0.1156 -0.2865
19589TIP3   OH280181   4.610   6.728  11.052 -0.5266  0.2735  0.3744
19589TIP3    H180182   4.693   6.771  11.031 -0.6508  0.8250  0.9789
19589TIP3    H280183   4.548   6.800  11.064 -0.8009 -0.0891  1.1626
19590TIP3   OH280184   5.767   6.014   0.292 -0.5825 -0.0666 -0.0534
19590TIP3    H180185   5.807   6.095   0.260  2.4374 -0.9729  1.0587
19590TIP3    H280186   5.777   5.952   0.220 -2.8054  0.4378 -0.8685
19591TIP3   OH280187   0.776   2.717  17.165  0.0313  0.3473 -0.2431
19591TIP3    H180188   0.756   2.723  17.071  0.9178  0.2157 -0.4481
19591TIP3    H280189   0.804   2.806  17.189 -0.5237  0.4643 -0.0224
19592TIP3   OH280190   3.103   5.583   1.286 -0.4103  0.2574 -0.0157
19592TIP3    H180191   3.149   5.587   1.202  0.7890 -0.6051  0.5661
19592TIP3    H280192   3.120   5.495   1.318 -0.8581  0.5746  1.1428
19593TIP3   OH280193   1.677   3.071   4.617  0.0025  0.2342 -0.2004
19593TIP3    H180194   1.610   3.048   4.681  1.7758 -4.4084  0.3823
19593TIP3    H280195   1.758   3.076   4.668  0.9642 -0.1881 -1.6326
19594TIP3   OH280196   3.774   4.156  12.500 -0.4109  0.4682 -0.0472
19594TIP3    H180197   3.839   4.120  12.440 -0.9053  1.6408 -1.3370
19594TIP3    H280198   3.695   4.106  12.483 -0.7259  1.2145 -0.8700
19595TIP3   OH280199   4.440   5.962  15.120 -0.1750 -0.1749  0.0820
19595TIP3    H180200   4.377   5.905  15.076  1.0121 -2.1272  0.7913
19595TIP3    H280201   4.424   5.949  15.213 -0.2943  1.1909  0.2789
19596TIP3   OH280202   5.040   4.521  15.027 -0.7529 -0.4524  0.6254
19596TIP3    H180203   5.069   4.469  15.103 -0.3793 -0.7671  0.2719
19596TIP3    H280204   5.015   4.605  15.065  0.8449 -0.0706  0.9359
19597TIP3   OH280205   1.114   4.960  15.072  0.1632  0.0193  0.7432
19597TIP3    H180206   1.040   4.988  15.126 -0.9319 -1.4796  0.1014
19597TIP3    H280207   1.183   5.023  15.091 -0.9166  0.8257  2.1980
19598TIP3   OH280208   3.729   2.777  16.921 -0.2919 -0.1986  0.3385
19598TIP3    H180209   3.696   2.688  16.935  1.3044 -1.2648 -2.0391
19598TIP3    H280210   3.816   2.765  16.882 -0.0178  2.4011 -0.0315
19599TIP3   OH280211   4.064   6.628  16.698  0.2745  0.0813  0.3748
19599TIP3    H180212   3.983   6.679  16.702  0.7095  0.7682  0.6412
19599TIP3    H280213   4.036   6.537  16.698 -0.5506  0.3168 -0.7344
19600TIP3   OH280214   3.837   3.205  14.140 -0.7558  0.4061 -0.3204
19600TIP3    H180215   3.891   3.244  14.071  1.0254  0.0971  0.8207
19600TIP3    H280216   3.876   3.119  14.155  0.2805  1.2542  2.4623
19601TIP3   OH280217   1.084   2.435   1.789  0.1872  0.1417 -0.2170
19601TIP3    H180218   1.107   2.389   1.870  0.4961  1.9004  0.7467
19601TIP3    H280219   1.086   2.528   1.813 -2.5801  0.6296 -1.4913
19602TIP3   OH280220   1.522   3.716  15.160  0.2509 -0.5885 -0.2505
19602TIP3    H180221   1.524   3.809  15.137  0.0696 -0.9658 -1.9515
19602TIP3    H280222   1.576   3.709  15.239  1.8177  0.6871 -1.1546
19603TIP3   OH280223   4.544   2.491   0.364  0.5307  0.0912 -0.0625
19603TIP3    H180224   4.628   2.449   0.380  0.4351 -0.6591 -1.3654
19603TIP3    H280225   4.481   2.437   0.413  0.9520  1.6867  2.4011
19604TIP3   OH280226   5.300   5.645   0.176  0.4977 -0.3421  0.1180
19604TIP3    H180227   5.230   5.710   0.168  0.5458 -0.1985  0.7649
19604TIP3    H280228   5.350   5.673   0.253 -0.6238 -2.1983  1.6098
19605TIP3   OH280229   0.589   1.477  13.076  0.2023  0.2131  0.0172
19605TIP3    H180230   0.630   1.391  13.065  1.1044  0.6215  0.0583
19605TIP3    H280231   0.648   1.524  13.136 -0.8224  0.5098  0.8114
19606TIP3   OH280232   4.537   2.073  10.842  0.5045 -0.0176 -0.0090
19606TIP3    H180233   4.598   2.146  10.856 -0.0761  0.3924  0.4466
19606TIP3    H280234   4.450   2.113  10.848  0.1783 -0.7343  0.1884
19607TIP3   OH280235   0.760   2.873  15.108 -0.2178  0.0678  0.8058
19607TIP3    H180236   0.794   2.963  15.105 -0.0945  0.0243  0.9202
19607TIP3    H280237   0.674   2.883  15.151  0.3204 -0.0276  1.9444
19608TIP3   OH280238   4.757   3.150   5.557 -0.1946  1.1718 -0.0481
19608TIP3    H180239   4.672   3.105   5.550 -0.0768  0.8046  0.7194
19608TIP3    H280240   4.754   3.193   5.643  1.8733 -2.1077  1.8892
19609TIP3   OH280241   2.255   1.329  15.566 -0.0287 -0.7271  0.7114
19609TIP3    H180242   2.223   1.269  15.633 -0.4326 -0.1447  1.0569
19609TIP3    H280243   2.316   1.278  15.514 -0.3208 -1.4148  1.0344
19610TIP3   OH280244   6.236   1.448  13.203  0.3158 -0.5341  0.0015
19610TIP3    H180245   6.233   1.431  13.109  0.9978 -0.0359 -0.1192
19610TIP3    H280246   6.181   1.525  13.216 -0.3536 -1.0207  0.1217
19611TIP3   OH280247   4.521   6.473  10.447  0.0284 -0.4135 -0.5565
19611TIP3    H180248   4.545   6.402  10.507  1.1735 -0.3883 -0.9578
19611TIP3    H280249   4.601   6.488  10.396 -0.4680  0.5973 -1.0429
19612TIP3   OH280250   5.209   3.563  15.247 -0.3627  0.2920 -0.2590
19612TIP3    H180251   5.186   3.485  15.296 -0.6768  0.2692 -0.4380
19612TIP3    H280252   5.130   3.617  15.248  0.2144  1.1887  0.9336
19613TIP3   OH280253   1.678   2.889   1.762 -0.6793 -0.0707 -0.0357
19613TIP3    H180254   1.641   2.907   1.676  2.1073  0.2379 -1.2849
19613TIP3    H280255   1.659   2.967   1.814  0.0192  0.9512 -1.2772
19614TIP3   OH280256   1.870   0.338  11.637 -0.4872 -0.1676 -0.1985
19614TIP3    H180257   1.869   0.296  11.551 -0.8676  1.8946 -1.2683
19614TIP3    H280258   1.793   0.396  11.636  0.4646  1.1837  0.8416
19615TIP3   OH280259   5.240   6.605  14.779 -0.3716  0.3713  0.2682
19615TIP3    H180260   5.289   6.683  14.808 -0.3733 -0.0469  1.4328
19615TIP3    H280261   5.157   6.611  14.825  0.3505 -1.2970  1.8895
19616TIP3   OH280262   6.466   3.386  14.964  0.2285  0.6196  0.1846
19616TIP3    H180263   6.395   3.405  15.026 -0.4969  0.3951 -0.5623
19616TIP3    H280264   6.524   3.327  15.013 -1.5612 -1.5421 -0.0698
19617TIP3   OH280265   3.757   6.153  13.484  0.7394 -0.1705  0.2087
19617TIP3    H180266   3.730   6.196  13.403  3.6076  0.6558 -0.4066
19617TIP3    H280267   3.736   6.060  13.469  2.4122 -0.2688 -2.1243
19618TIP3   OH280268   0.781   1.868   1.665  0.1177 -0.1155 -0.0331
19618TIP3    H180269   0.713   1.830   1.720 -0.1615 -0.4630 -0.6019
19618TIP3    H280270   0.834   1.921   1.724 -1.3527  1.1374  0.2334
19619TIP3   OH280271   1.087   4.354  14.046  0.1840  0.0806  0.1741
19619TIP3    H180272   1.176   4.322  14.063 -0.0118 -0.0420  1.0488
19619TIP3    H280273   1.030   4.287  14.085 -0.3354 -0.4449 -1.4157
19620TIP3   OH280274   0.029   5.184   4.430 -0.4984  0.0280  0.4795
19620TIP3    H180275   0.070   5.101   4.405  0.2894 -0.2660  2.5713
19620TIP3    H280276   0.086   5.251   4.393  0.6181 -0.3861  1.4015
19621TIP3   OH280277   4.242   0.769  16.638  0.5525  0.6582 -0.6722
19621TIP3    H180278   4.306   0.712  16.680 -0.3828  2.1397  3.2042
19621TIP3    H280279   4.279   0.857  16.644 -0.9215  1.2912 -0.1398
19622TIP3   OH280280   5.838   5.006   1.294 -0.3125 -0.1279 -0.0201
19622TIP3    H180281   5.770   4.994   1.360 -0.5691 -3.5037 -0.7159
19622TIP3    H280282   5.914   5.037   1.342 -1.9616  2.7988  0.9232
19623TIP3   OH280283   0.818   1.681   2.380 -0.3352  0.4782 -0.1610
19623TIP3    H180284   0.728   1.681   2.346 -0.2162 -0.5938 -0.5195
19623TIP3    H280285   0.819   1.749   2.446 -0.6542  2.4819 -2.1033
19624TIP3   OH280286   6.720   6.092   1.371 -0.2412  0.0132  0.0839
19624TIP3    H180287   6.642   6.037   1.378 -0.7265  0.8050  0.9924
19624TIP3    H280288   6.793   6.029   1.370 -0.8704 -0.7460 -0.9803
19625TIP3   OH280289   2.460   2.142   2.237 -0.1092 -0.2515  0.5698
19625TIP3    H180290   2.415   2.129   2.154  1.3905 -1.4562 -0.1144
19625TIP3    H280291   2.520   2.215   2.221 -1.3102  0.9248  1.2765
19626TIP3   OH280292   0.565   3.176  16.280 -0.5425 -0.2804  0.3006
19626TIP3    H180293   0.637   3.216  16.232 -0.5684 -0.1424  0.3775
19626TIP3    H280294   0.542   3.240  16.347 -0.0263 -0.7817  0.9693
19627TIP3   OH280295   2.746   4.335  13.909 -0.4225 -0.2589  0.1118
19627TIP3    H180296   2.762   4.383  13.990  0.8172 -0.9441  0.3011
19627TIP3    H280297   2.763   4.244  13.932  1.1234 -0.3452 -1.1661
19628TIP3   OH280298   6.554   3.806  15.759 -0.4426  0.2219  0.3382
19628TIP3    H180299   6.533   3.890  15.800 -0.9687  0.2950 -0.0764
19628TIP3    H280300   6.522   3.740  15.821  0.5011  0.3031  0.9494
19629TIP3   OH280301   2.555   2.150  10.572 -0.2018 -0.2625  0.4288
19629TIP3    H180302   2.563   2.062  10.609 -1.1650 -0.7396 -0.4350
19629TIP3    H280303   2.461   2.159  10.554 -0.2273  1.2295  1.1771
19630TIP3   OH280304   5.364   3.848   4.292 -0.0142  0.0409 -0.1933
19630TIP3    H180305   5.420   3.822   4.365 -0.6903  0.6480  0.5499
19630TIP3    H280306   5.403   3.805   4.216  0.1216 -1.3907  0.6634
19631TIP3   OH280307   4.640   6.130  14.972  0.5681  0.0755 -0.3616
19631TIP3    H180308   4.588   6.204  15.002  0.1572 -0.4609  0.2680
19631TIP3    H280309   4.591   6.053  15.001  1.4843 -0.4396 -0.1575
19632TIP3   OH280310   4.022   5.914  11.459 -0.0685 -0.2367 -0.5568
19632TIP3    H180311   4.010   5.913  11.364 -0.7392  0.0961 -0.4791
19632TIP3    H280312   4.052   5.825  11.480  0.5087 -0.1834 -1.1253
19633TIP3   OH280313   2.080   1.098   5.305  0.4318  0.0418 -0.3701
19633TIP3    H180314   2.042   1.070   5.221 -0.2519 -1.3644  0.3703
19633TIP3    H280315   2.065   1.023   5.363  3.0596  0.0109  0.3658
19634TIP3   OH280316   1.738   1.682   2.233 -0.4445  0.3513 -0.3650
19634TIP3    H180317   1.733   1.771   2.267  0.6784  1.0007 -1.7936
19634TIP3    H280318   1.667   1.676   2.170  0.3022  0.7150 -1.2635
19635TIP3   OH280319   2.559   0.184   3.282  0.3575  0.1273 -0.0034
19635TIP3    H180320   2.531   0.248   3.216  1.8555 -0.4155 -1.2237
19635TIP3    H280321   2.627   0.134   3.239 -0.1674 -1.7453  1.2379
19636TIP3   OH280322   5.209   3.973   3.929  0.1150 -0.1961 -0.5440
19636TIP3    H180323   5.290   3.926   3.909 -0.1792 -0.8228 -0.3105
19636TIP3    H280324   5.149   3.948   3.860  0.7644  2.0263 -1.9983
19637TIP3   OH280325   5.145   1.774  16.597 -0.5182  0.3595 -0.1098
19637TIP3    H180326   5.206   1.748  16.528  0.7444  1.4623  0.5354
19637TIP3    H280327   5.174   1.861  16.623 -0.7016 -0.1721  2.0757
19638TIP3   OH280328   0.838   6.602   1.013 -0.0817  0.2561 -0.4537
19638TIP3    H180329   0.763   6.645   1.055 -0.2977 -0.5936  0.0530
19638TIP3    H280330   0.888   6.566   1.085  0.9453  0.9849 -0.7765
19639TIP3   OH280331   5.532   5.718  11.687 -0.6663  0.4168  0.1912
19639TIP3    H180332   5.553   5.668  11.608 -0.2248  0.6347  0.1628
19639TIP3    H280333   5.458   5.672  11.726 -2.4821  1.6909 -1.6229
19640TIP3   OH280334   2.438   3.859  16.127  0.1938  0.2545  0.3658
19640TIP3    H180335   2.391   3.940  16.107  1.6458  1.2168  0.7211
19640TIP3    H280336   2.378   3.811  16.184 -1.4441  0.2141 -1.2523
19641TIP3   OH280337   3.591   1.965  16.922 -0.4842 -0.3316 -0.0821
19641TIP3    H180338   3.581   2.033  16.856  1.5119  0.7715  0.6501
19641TIP3    H280339   3.677   1.927  16.904 -0.7847 -1.4026  0.6555
19642TIP3   OH280340   1.811   2.811  11.440 -0.8631  0.3731  0.2662
19642TIP3    H180341   1.812   2.754  11.363 -1.6302  2.3127 -1.2898
19642TIP3    H280342   1.733   2.784  11.489 -1.0726 -0.1010 -0.3088
19643TIP3   OH280343   4.626   5.593  12.955 -0.2072 -0.8746  0.6904
19643TIP3    H180344   4.649   5.684  12.934 -0.6910 -0.9461 -0.1925
19643TIP3    H280345   4.702   5.542  12.927  0.0137 -0.7574  1.0693
19644TIP3   OH280346   0.042   5.058  13.903  0.6369  0.2450 -0.2263
19644TIP3    H180347  -0.051   5.052  13.881  0.4669  0.5406  0.4006
19644TIP3    H280348   0.086   5.064  13.818  0.2529 -1.8460 -0.6211
19645TIP3   OH280349   0.591   0.258   5.565 -0.1340 -0.0592 -0.3096
19645TIP3    H180350   0.506   0.278   5.605  0.5423 -1.2366  1.8741
19645TIP3    H280351   0.638   0.208   5.632  1.9546 -0.2243 -1.8012
19646TIP3   OH280352   0.761   1.432   2.127 -0.0351 -0.2136  0.1191
19646TIP3    H180353   0.691   1.382   2.086  0.8540 -0.2069 -1.4972
19646TIP3    H280354   0.749   1.522   2.096 -0.2530  0.1156  1.1344
19647TIP3   OH280355   0.947   6.393   1.935 -0.2764 -0.5088  0.1817
19647TIP3    H180356   0.898   6.332   1.879 -2.1662  0.8333  0.3024
19647TIP3    H280357   0.941   6.354   2.023 -2.7084  0.4547  0.5279
19648TIP3   OH280358   3.205   2.063  12.427  0.2241  0.0113  0.0575
19648TIP3    H180359   3.181   2.119  12.501 -1.4330 -0.0448 -0.3936
19648TIP3    H280360   3.131   2.070  12.367  1.3959 -0.1839 -1.4756
19649TIP3   OH280361   5.642   0.247  15.134  0.4097  0.1892  0.0931
19649TIP3    H180362   5.728   0.278  15.161  0.1260 -0.6138  2.1046
19649TIP3    H280363   5.594   0.327  15.110  0.9155  0.9209  1.4320
19650TIP3   OH280364   2.365   4.557   2.957 -0.2565  0.2567  0.1782
19650TIP3    H180365   2.446   4.513   2.985  1.0049  0.5616 -2.6128
19650TIP3    H280366   2.295   4.496   2.979  0.9185 -0.8489  0.9923
19651TIP3   OH280367   6.623   3.187   2.114  0.0410 -0.1873  0.7062
19651TIP3    H180368   6.650   3.254   2.051 -1.6684 -0.3953 -0.3125
19651TIP3    H280369   6.542   3.221   2.152  0.0876 -0.8914  1.4620
19652TIP3   OH280370   4.247   4.688   3.195 -0.1174  0.1116 -0.1680
19652TIP3    H180371   4.162   4.720   3.227 -1.2429 -1.6841 -1.1961
19652TIP3    H280372   4.229   4.598   3.166  1.9376  0.0304 -1.3228
19653TIP3   OH280373   2.894   0.885   5.960  0.0898  0.3206  0.3700
19653TIP3    H180374   2.923   0.911   5.872  1.8499  0.4625  0.9581
19653TIP3    H280375   2.948   0.937   6.019 -0.9600  0.1043  1.5588
19654TIP3   OH280376   4.706   2.048   5.029  0.3245  0.3146 -0.0766
19654TIP3    H180377   4.712   2.138   4.998 -1.5072  1.1783  1.8839
19654TIP3    H280378   4.770   2.042   5.100 -0.0994  0.3231  0.3131
19655TIP3   OH280379   6.763   6.400  13.504 -0.6693  0.1321 -0.2373
19655TIP3    H180380   6.795   6.334  13.566 -1.4272 -0.9691 -0.9608
19655TIP3    H280381   6.839   6.422  13.450 -0.6209 -0.8996 -0.6128
19656TIP3   OH280382   4.201   3.956  15.750  0.2014  0.1239 -0.1863
19656TIP3    H180383   4.206   4.042  15.709 -0.2858  0.3817  0.2744
19656TIP3    H280384   4.290   3.923  15.749  0.4227  0.7158 -0.2098
19657TIP3   OH280385   2.199   0.711  14.232 -0.2002 -0.4231 -0.7754
19657TIP3    H180386   2.159   0.791  14.265 -3.9330 -2.3076 -0.2025
19657TIP3    H280387   2.198   0.652  14.307  1.1712 -1.4642 -1.5407
19658TIP3   OH280388   1.029   1.470  16.783 -0.6266  0.2380 -0.0390
19658TIP3    H180389   0.988   1.464  16.697 -1.9507 -0.4620  0.6040
19658TIP3    H280390   0.988   1.546  16.823 -0.9023 -0.1295  0.3923
19659TIP3   OH280391   3.480   1.072  14.632 -0.5201 -0.4953 -0.3605
19659TIP3    H180392   3.471   0.992  14.581  0.7483 -0.3034 -0.9232
19659TIP3    H280393   3.566   1.065  14.673 -0.4343  0.5173 -0.3408
19660TIP3   OH280394   5.836   2.056   5.967 -0.2848 -0.0865 -0.4288
19660TIP3    H180395   5.789   2.139   5.967 -1.6389 -0.7777  1.4422
19660TIP3    H280396   5.883   2.055   6.051  0.5472 -0.7887 -0.8855
19661TIP3   OH280397   0.804   2.718  13.589 -0.0049 -1.1192  0.9574
19661TIP3    H180398   0.847   2.686  13.668  0.3866 -0.5557  0.9812
19661TIP3    H280399   0.781   2.809  13.610 -1.3686 -1.4514  1.0123
19662TIP3   OH280400   2.874   1.460  13.152  0.0575 -0.0549 -0.0279
19662TIP3    H180401   2.921   1.388  13.110  0.9544 -0.1845  1.1344
19662TIP3    H280402   2.939   1.502  13.208 -0.5174  1.5125 -0.4688
19663TIP3   OH280403   4.602   2.483  11.328 -0.1105  0.1997  0.3971
19663TIP3    H180404   4.621   2.503  11.419 -1.0624  1.6205  0.3226
19663TIP3    H280405   4.508   2.501  11.319  0.2665  1.6587 -1.2161
19664TIP3   OH280406   5.995   6.082   5.239  1.1181 -0.2290  0.4746
19664TIP3    H180407   5.974   6.124   5.322 -1.3238  1.0537 -0.7037
19664TIP3    H280408   5.973   5.990   5.253 -1.7654  0.3925  0.5540
19665TIP3   OH280409   4.455   2.316   6.141 -0.2712 -0.5020 -0.8082
19665TIP3    H180410   4.363   2.298   6.161  0.2113 -1.1512  1.0424
19665TIP3    H280411   4.497   2.230   6.143  0.4130 -0.1883 -1.4396
19666TIP3   OH280412   0.310   2.841  13.484 -0.2197 -0.7077 -0.0234
19666TIP3    H180413   0.311   2.772  13.419 -2.2561  0.3815 -1.2947
19666TIP3    H280414   0.275   2.918  13.438 -1.8459  0.0806  2.3409
19667TIP3   OH280415   5.377   4.987  15.038 -0.7795  0.4919 -0.1973
19667TIP3    H180416   5.448   4.927  15.061 -0.3265  1.2767  0.5006
19667TIP3    H280417   5.394   5.010  14.946  0.2089  1.1208  0.1295
19668TIP3   OH280418   6.599   1.841   1.551 -0.2168 -0.0979 -0.5130
19668TIP3    H180419   6.566   1.755   1.526  3.5149 -1.7668 -0.5080
19668TIP3    H280420   6.589   1.844   1.646 -2.0663  0.3263 -0.7030
19669TIP3   OH280421   4.446   1.987   5.127  0.7754  0.1701  0.5666
19669TIP3    H180422   4.539   2.002   5.108  0.3953 -1.1645 -3.1694
19669TIP3    H280423   4.438   1.891   5.132 -0.6401  0.1525 -1.1445
19670TIP3   OH280424   4.947   2.632  16.306 -0.2717  0.3140 -0.2005
19670TIP3    H180425   5.006   2.695  16.349  0.0637  0.0278 -0.2344
19670TIP3    H280426   5.002   2.555  16.291 -0.8875 -0.2871  0.5566
19671TIP3   OH280427   5.039   4.717   0.833  0.5192  0.1353  0.3692
19671TIP3    H180428   5.035   4.672   0.917  0.8074 -0.3898  0.1068
19671TIP3    H280429   5.051   4.647   0.769  1.0872  0.5932 -0.0350
19672TIP3   OH280430   0.223   5.384  13.822  0.0631 -0.7556  1.0877
19672TIP3    H180431   0.305   5.431  13.807 -0.3677  0.4500  2.3669
19672TIP3    H280432   0.182   5.379  13.736  0.5599  0.3897  0.7740
19673TIP3   OH280433   0.713   3.112  10.499  0.0717  0.9945  0.0325
19673TIP3    H180434   0.765   3.079  10.426  0.4031  0.9618  0.2792
19673TIP3    H280435   0.723   3.046  10.567 -0.2384  1.0230  0.1072
19674TIP3   OH280436   6.397   0.944   3.699 -0.2740  0.7112 -0.0977
19674TIP3    H180437   6.313   0.954   3.655 -0.5145 -0.0439  0.1657
19674TIP3    H280438   6.404   0.850   3.716  1.1938  0.5820 -1.2187
19675TIP3   OH280439   3.267   2.702  12.169 -0.1256  0.0821 -0.8327
19675TIP3    H180440   3.348   2.657  12.143 -0.2659 -0.0544 -1.0321
19675TIP3    H280441   3.231   2.647  12.239 -0.6621 -0.4952 -1.5571
19676TIP3   OH280442   0.581   5.297   2.489  0.2913  0.2519  0.0828
19676TIP3    H180443   0.659   5.344   2.458  1.1412 -0.8974  0.4030
19676TIP3    H280444   0.589   5.210   2.451 -1.2380  0.3300 -0.4659
19677TIP3   OH280445   1.320   6.487  12.881  0.2581  0.4050 -1.0103
19677TIP3    H180446   1.372   6.525  12.951 -0.5270 -1.2928  0.5628
19677TIP3    H280447   1.383   6.434  12.830  0.5884  0.5991 -0.8021
19678TIP3   OH280448   4.868   1.658  11.947  0.2374 -0.0215 -0.0124
19678TIP3    H180449   4.860   1.747  11.981 -1.1830 -0.5472  1.1364
19678TIP3    H280450   4.948   1.659  11.896  0.2424  1.9211 -0.0363
19679TIP3   OH280451   2.746   2.222  11.350 -0.5627  0.0402 -0.1164
19679TIP3    H180452   2.663   2.264  11.370 -1.7448 -3.0281  2.1831
19679TIP3    H280453   2.723   2.149  11.292  0.4238 -0.9108  0.6310
19680TIP3   OH280454   1.320   5.237   4.574  0.5891 -0.4520  0.5789
19680TIP3    H180455   1.372   5.193   4.507 -1.0656 -0.6704 -0.6429
19680TIP3    H280456   1.263   5.169   4.609  1.4953 -0.3644  2.3450
19681TIP3   OH280457   1.001   2.403  16.484  0.1905 -0.4530  0.6292
19681TIP3    H180458   1.044   2.403  16.570  1.5783  1.2545  0.0022
19681TIP3    H280459   1.043   2.474  16.436  0.1759 -2.0001 -1.8546
19682TIP3   OH280460   1.298   4.964   0.363  0.8235  0.3362  0.1592
19682TIP3    H180461   1.321   4.902   0.432 -0.8977  0.7090  1.1273
19682TIP3    H280462   1.308   4.914   0.282 -0.9129 -1.4037  0.9345
19683TIP3   OH280463   5.276   5.760   2.894  0.1140 -0.1700 -0.1475
19683TIP3    H180464   5.338   5.691   2.874 -0.3045 -0.3318 -0.9395
19683TIP3    H280465   5.232   5.732   2.975 -0.4646 -1.1245 -0.7793
19684TIP3   OH280466   5.610   2.996  11.843 -0.1430  0.0243  0.4514
19684TIP3    H180467   5.695   3.031  11.815 -0.8310  1.3801 -0.0402
19684TIP3    H280468   5.553   3.008  11.766 -0.7490 -0.9728  0.7338
19685TIP3   OH280469   3.893   4.603  14.468 -0.4803 -0.1704  0.3603
19685TIP3    H180470   3.929   4.614  14.381 -1.2778  0.3453  0.0766
19685TIP3    H280471   3.966   4.572  14.521 -0.5273 -2.8146 -0.9781
19686TIP3   OH280472   5.378   3.634   0.332 -0.0630  0.1101  0.2313
19686TIP3    H180473   5.314   3.595   0.272 -0.4482  1.1318 -0.0474
19686TIP3    H280474   5.408   3.561   0.386 -1.1071 -0.4763  0.0433
19687TIP3   OH280475   3.219   5.870   1.653 -0.5978 -0.1377 -0.1424
19687TIP3    H180476   3.311   5.886   1.631 -0.1278  0.7808  2.2457
19687TIP3    H280477   3.221   5.792   1.709 -1.1771  0.2489  0.4313
19688TIP3   OH280478   2.543   1.570   3.968  1.1698 -0.7025 -0.1545
19688TIP3    H180479   2.616   1.631   3.967 -0.1556  0.9325 -0.1923
19688TIP3    H280480   2.512   1.571   4.058 -0.4718  0.7203 -0.6874
19689TIP3   OH280481   2.855   5.833   0.457  0.3676  0.4106  0.5702
19689TIP3    H180482   2.881   5.906   0.513  0.8499  1.4011 -0.8974
19689TIP3    H280483   2.822   5.874   0.377  1.0123 -0.9750 -0.4474
19690TIP3   OH280484   6.680   5.433  16.619  0.0331 -0.2473  0.1663
19690TIP3    H180485   6.658   5.526  16.622 -1.2039 -0.4779 -0.6387
19690TIP3    H280486   6.665   5.408  16.527 -1.2142 -1.5639  0.6918
19691TIP3   OH280487   2.806   3.856  11.612  0.1546  0.2215 -0.2493
19691TIP3    H180488   2.717   3.868  11.579 -0.1292 -0.8608  0.0774
19691TIP3    H280489   2.831   3.769  11.581  1.0516  0.4557 -0.2129
19692TIP3   OH280490   2.551   5.899  12.322  0.2300  0.2209 -0.4137
19692TIP3    H180491   2.514   5.841  12.255  1.5768 -2.2197  0.8214
19692TIP3    H280492   2.476   5.921  12.378 -0.2406 -0.7845 -0.6219
19693TIP3   OH280493   4.825   5.437  12.856  0.0333  0.7870 -0.5412
19693TIP3    H180494   4.800   5.369  12.794 -1.1470  1.0648 -0.4054
19693TIP3    H280495   4.837   5.391  12.939 -1.3976  0.7922 -0.3000
19694TIP3   OH280496   2.172   2.480  12.869  0.1773 -0.4869  0.1527
19694TIP3    H180497   2.106   2.410  12.869  0.6786 -0.9913  1.2929
19694TIP3    H280498   2.252   2.437  12.898  0.5435  0.5132  0.6595
19695TIP3   OH280499   0.319   3.118   0.367  0.1052  0.1665 -0.5688
19695TIP3    H180500   0.411   3.143   0.362  0.6538 -1.6756 -0.4397
19695TIP3    H280501   0.318   3.041   0.424 -1.1856 -1.3517 -2.5255
19696TIP3   OH280502   3.788   3.679  16.067 -0.1235  0.9635  0.6059
19696TIP3    H180503   3.862   3.635  16.107 -0.8856  0.0346  1.0180
19696TIP3    H280504   3.807   3.773  16.078  1.7394  0.7961 -0.7121
19697TIP3   OH280505   1.726   3.819  12.634  0.3221 -0.3149 -0.1572
19697TIP3    H180506   1.820   3.806  12.618  0.5021  0.4528  0.2242
19697TIP3    H280507   1.719   3.909  12.666 -0.3923 -0.7752  1.0643
19698TIP3   OH280508   0.762   3.818   1.520  0.5947 -0.0068 -0.2292
19698TIP3    H180509   0.680   3.864   1.501  1.5127  0.3147 -4.4899
19698TIP3    H280510   0.829   3.872   1.479  2.6303 -1.6298  0.8082
19699TIP3   OH280511   6.118   2.366   3.920  0.4388 -0.0109 -0.2897
19699TIP3    H180512   6.053   2.313   3.965  1.3034 -1.4852 -0.7123
19699TIP3    H280513   6.114   2.336   3.829  1.5821  0.0172 -0.3542
19700TIP3   OH280514   4.283   1.286  15.996  0.1975  0.5100  0.0009
19700TIP3    H180515   4.193   1.314  16.013 -0.6433 -0.6744 -2.0799
19700TIP3    H280516   4.321   1.358  15.946 -0.7415 -0.2753 -2.0074
19701TIP3   OH280517   2.505   6.773   5.951  0.2201 -0.5656  0.3388
19701TIP3    H180518   2.473   6.683   5.950  0.8014 -0.7766 -1.4298
19701TIP3    H280519   2.462   6.812   6.028 -1.8529 -1.6898 -0.1624
19702TIP3   OH280520   1.122   5.710   1.403  0.4678  0.1411  0.0008
19702TIP3    H180521   1.088   5.732   1.490  0.5668  1.7395 -0.3293
19702TIP3    H280522   1.193   5.773   1.389  1.4226 -1.0525 -0.6483
19703TIP3   OH280523   4.748   2.571  12.421  0.2587  0.0593  0.1116
19703TIP3    H180524   4.732   2.655  12.377  0.9035 -0.8081 -1.9069
19703TIP3    H280525   4.841   2.572  12.442  0.1680  0.0297  0.5305
19704TIP3   OH280526   4.218   1.795   3.386  0.0880  0.3451 -0.0778
19704TIP3    H180527   4.279   1.847   3.440  1.0738  1.6103 -2.2373
19704TIP3    H280528   4.132   1.830   3.408  0.2580 -0.2974  1.8074
19705TIP3   OH280529   1.898   6.413   2.217 -0.1763  0.0393 -0.5416
19705TIP3    H180530   1.964   6.435   2.283 -0.0962 -0.7553 -0.3468
19705TIP3    H280531   1.918   6.469   2.143  0.7207 -0.1945 -0.4839
19706TIP3   OH280532   0.200   3.845   1.280 -0.0970  0.0024 -0.4495
19706TIP3    H180533   0.157   3.883   1.357 -0.3638  0.2519 -0.7186
19706TIP3    H280534   0.254   3.916   1.245  1.8559 -0.7669  0.8201
19707TIP3   OH280535   1.562   2.126   2.364  0.2789  0.0119  0.0514
19707TIP3    H180536   1.547   2.204   2.417 -0.9090  0.4619 -0.9249
19707TIP3    H280537   1.479   2.079   2.364  0.9720 -1.2938  0.6388
19708TIP3   OH280538   0.660   0.133  14.707  0.2646 -0.1365 -0.2803
19708TIP3    H180539   0.577   0.120  14.661  1.4914  1.7462 -3.3493
19708TIP3    H280540   0.643   0.205  14.767  0.0606  1.6296 -2.3347
19709TIP3   OH280541   3.994   4.064   7.088 -0.2023 -0.9621 -0.6710
19709TIP3    H180542   4.065   4.128   7.095 -1.1236  0.0774 -0.5926
19709TIP3    H280543   4.030   3.984   7.127  0.5269 -0.1252  0.4133
19710TIP3   OH280544   6.061   6.394   2.519 -0.3618  0.0737 -0.2625
19710TIP3    H180545   6.037   6.306   2.490 -1.4740  0.3206 -0.1237
19710TIP3    H280546   6.087   6.383   2.611  0.2790 -0.2257 -0.4720
19711TIP3   OH280547   5.538   1.302   1.815  0.2426  0.4303 -0.4594
19711TIP3    H180548   5.530   1.264   1.902  2.4956  0.2338 -0.2750
19711TIP3    H280549   5.532   1.228   1.755 -1.3532  0.5708 -0.5255
19712TIP3   OH280550   3.791   6.149  13.043 -0.5602 -0.3247  0.2581
19712TIP3    H180551   3.729   6.086  13.007 -3.0883  0.6686  2.4793
19712TIP3    H280552   3.863   6.095  13.077 -1.8335 -1.8762  0.6083
19713TIP3   OH280553   0.164   1.641  11.535 -0.0088  0.5351 -0.0814
19713TIP3    H180554   0.080   1.639  11.581 -0.2291  2.8105 -0.2720
19713TIP3    H280555   0.219   1.579  11.583 -1.1398  0.6087  1.3718
19714TIP3   OH280556   4.077   5.762  11.811  0.3127  0.2957  0.3383
19714TIP3    H180557   4.000   5.809  11.844 -0.1344  0.5961 -1.0721
19714TIP3    H280558   4.051   5.670  11.810 -0.4438  0.5055 -1.1706
19715TIP3   OH280559   1.404   1.386  15.686 -0.2060 -0.7359  0.6673
19715TIP3    H180560   1.484   1.431  15.712 -0.7047  0.9858 -0.5567
19715TIP3    H280561   1.352   1.381  15.766  1.3981 -2.6228  1.6717
19716TIP3   OH280562   6.650   3.160   5.895 -0.3730 -0.2148 -0.4852
19716TIP3    H180563   6.695   3.240   5.925 -2.1958  1.0134 -0.8885
19716TIP3    H280564   6.694   3.089   5.942 -0.3327  1.2385  1.8442
19717TIP3   OH280565   4.402   3.350   2.434  0.0712 -0.3106 -0.6184
19717TIP3    H180566   4.443   3.374   2.517 -1.3465 -2.7071  0.9088
19717TIP3    H280567   4.445   3.269   2.408 -1.5306 -1.2320 -0.5679
19718TIP3   OH280568   5.997   1.988   3.323  1.0271 -0.1877 -0.1713
19718TIP3    H180569   6.049   1.944   3.256  0.9036 -1.1615  0.3412
19718TIP3    H280570   5.953   2.059   3.278 -1.4565 -2.6015 -1.8583
19719TIP3   OH280571   3.618   6.588  13.512  0.5305  0.4428 -0.1645
19719TIP3    H180572   3.610   6.676  13.549  2.4663 -0.4478  2.7130
19719TIP3    H280573   3.666   6.601  13.430  0.7737  2.0683  0.2014
19720TIP3   OH280574   4.092   3.468   3.541  0.5923  0.2700  0.3388
19720TIP3    H180575   4.049   3.533   3.596 -1.8217 -1.0756  0.1845
19720TIP3    H280576   4.152   3.423   3.600  0.8225  1.3037  0.9215
19721TIP3   OH280577   2.518   1.590  13.145 -0.0154 -0.3678  0.0756
19721TIP3    H180578   2.526   1.676  13.103 -3.0166 -0.8235 -1.7106
19721TIP3    H280579   2.552   1.604  13.233 -0.1844  2.5958 -0.2166
19722TIP3   OH280580   4.467   0.889   0.291  0.2034 -0.2631 -0.1635
19722TIP3    H180581   4.542   0.915   0.344  1.5301 -1.4493 -1.3760
19722TIP3    H280582   4.450   0.798   0.316 -1.6841  0.3613  1.0120
19723TIP3   OH280583   1.634   5.107  16.340  0.3529 -0.3682  0.0847
19723TIP3    H180584   1.656   5.199  16.321 -0.6257 -0.4162 -1.4630
19723TIP3    H280585   1.716   5.060  16.326  0.6200  0.1422 -0.1168
19724TIP3   OH280586   4.822   0.666   3.186 -0.3050  0.0101  0.6080
19724TIP3    H180587   4.819   0.584   3.236 -1.5920 -0.1936  0.2362
19724TIP3    H280588   4.730   0.690   3.174  0.0575  2.1051  1.6275
19725TIP3   OH280589   0.052   1.432  12.617 -0.0364 -0.0459 -0.0248
19725TIP3    H180590  -0.031   1.386  12.631 -0.5345  0.4158 -1.2898
19725TIP3    H280591   0.078   1.408  12.529  0.8979  0.2665  0.1560
19726TIP3   OH280592   6.292   0.504   1.006  0.4903  0.2050 -0.4366
19726TIP3    H180593   6.340   0.524   1.087  1.5178 -0.2154 -0.9267
19726TIP3    H280594   6.352   0.528   0.936  0.2099 -0.8703 -1.0645
19727TIP3   OH280595   2.437   3.014   2.417  0.4603  0.1141  0.3999
19727TIP3    H180596   2.457   3.030   2.325 -2.1933  0.3832 -0.1966
19727TIP3    H280597   2.402   2.925   2.419 -0.4404  0.4680  0.9644
19728TIP3   OH280598   4.431   4.303   1.516 -0.6384 -0.4465 -0.0051
19728TIP3    H180599   4.520   4.325   1.488 -0.5128 -0.8553  0.0761
19728TIP3    H280600   4.382   4.385   1.505 -0.3781 -0.3599 -0.5563
19729TIP3   OH280601   1.516   0.500  13.036 -0.2332 -0.3316  0.8130
19729TIP3    H180602   1.462   0.556  13.092  1.1353  1.4055  0.4822
19729TIP3    H280603   1.598   0.491  13.084  0.2332 -0.4905 -0.0082
19730TIP3   OH280604   0.096   2.874  13.652 -0.1986 -1.1909 -0.4423
19730TIP3    H180605   0.167   2.896  13.592 -2.2615  1.8342 -1.9959
19730TIP3    H280606   0.054   2.798  13.612 -1.0875  0.3263 -2.5542
19731TIP3   OH280607   2.344   6.435   0.627 -0.1231 -0.5256 -0.5643
19731TIP3    H180608   2.271   6.448   0.566 -0.8189  2.0734  0.7057
19731TIP3    H280609   2.418   6.413   0.571 -1.1959 -0.2783 -2.1535
19732TIP3   OH280610   2.770   3.033  13.341 -0.8591  1.1553 -0.2557
19732TIP3    H180611   2.726   2.975  13.279  0.6737  0.4764 -0.7606
19732TIP3    H280612   2.845   2.982  13.372 -1.4262  1.5590  1.9850
19733TIP3   OH280613   3.488   3.985  11.920 -0.1790  0.2456 -0.2532
19733TIP3    H180614   3.402   3.974  11.960 -0.5073 -0.8210 -1.1828
19733TIP3    H280615   3.469   4.003  11.828  0.5867  0.8586 -0.3028
19734TIP3   OH280616   2.084   1.933   1.759 -0.0678 -0.1842  0.2549
19734TIP3    H180617   2.047   2.019   1.739 -1.1991 -0.5173  0.8321
19734TIP3    H280618   2.028   1.872   1.712  2.5472 -0.5120 -2.7364
19735TIP3   OH280619   1.267   1.376  13.149 -0.3806 -0.4700 -0.0087
19735TIP3    H180620   1.355   1.338  13.137  0.6603  1.2233  1.6733
19735TIP3    H280621   1.274   1.464  13.113 -2.7717 -1.6180 -3.8940
19736TIP3   OH280622   2.709   4.192  11.898  0.0180 -0.0840  0.7091
19736TIP3    H180623   2.675   4.102  11.905  1.0145 -0.5482 -0.1650
19736TIP3    H280624   2.632   4.244  11.877 -0.5505 -0.7522  1.0670
19737TIP3   OH280625   5.016   6.634  14.918  0.0586  0.0714 -0.1223
19737TIP3    H180626   4.973   6.696  14.977 -1.7505 -1.3258  0.1223
19737TIP3    H280627   4.972   6.551  14.935  3.1404 -1.6165  0.4134
19738TIP3   OH280628   2.996   2.288   2.652  0.2953 -0.8552 -0.7524
19738TIP3    H180629   2.918   2.300   2.706  2.2236  2.5019  1.6156
19738TIP3    H280630   2.976   2.335   2.571 -0.1612  0.0121 -0.1510
19739TIP3   OH280631   0.923   5.310   5.321  0.9100  0.1436  0.4413
19739TIP3    H180632   0.832   5.335   5.303  0.6075 -0.0400  1.5776
19739TIP3    H280633   0.958   5.282   5.237 -0.1828 -0.0562  0.0359
19740TIP3   OH280634   0.787   1.693   1.946 -0.1982 -0.4918  0.8516
19740TIP3    H180635   0.757   1.618   1.894 -1.1882 -0.6355  1.6205
19740TIP3    H280636   0.882   1.684   1.946 -0.0603  0.0952 -1.8112
19741TIP3   OH280637   4.231   4.166  13.429  0.0109  0.1484  0.1092
19741TIP3    H180638   4.294   4.136  13.495  0.0917  0.5815  0.2299
19741TIP3    H280639   4.243   4.106  13.356  0.9140  0.5261 -0.0630
19742TIP3   OH280640   6.130   0.650   1.349 -0.7097  0.3386  0.8912
19742TIP3    H180641   6.114   0.740   1.319  0.1548  0.0806 -0.4567
19742TIP3    H280642   6.050   0.603   1.326 -0.3866  0.3365 -0.3313
19743TIP3   OH280643   4.153   4.857  14.626  0.0197  0.4844 -0.1061
19743TIP3    H180644   4.112   4.943  14.614 -0.9441 -0.1001 -1.1530
19743TIP3    H280645   4.166   4.851  14.721  0.0915  1.7711 -0.0076
19744TIP3   OH280646   1.566   4.398  13.107 -0.2624 -0.0389  0.3165
19744TIP3    H180647   1.633   4.334  13.086  1.4328  2.0421 -1.0134
19744TIP3    H280648   1.495   4.381  13.045  0.6488  0.0404 -0.7605
19745TIP3   OH280649   2.081   2.058  12.871  0.2476  0.3052  0.4755
19745TIP3    H180650   2.133   2.014  12.804 -1.8271 -0.4540 -0.7656
19745TIP3    H280651   2.104   2.013  12.952  0.2133 -1.2535 -0.3314
19746TIP3   OH280652   1.160   3.240   3.535  0.6897 -0.2412  0.1066
19746TIP3    H180653   1.164   3.145   3.542 -2.0836 -0.4125  0.3660
19746TIP3    H280654   1.087   3.256   3.475  1.8116  1.7467 -0.8342
19747TIP3   OH280655   4.212   2.047  16.402 -0.0283  0.2821 -0.6181
19747TIP3    H180656   4.220   2.120  16.463 -0.3491 -1.2971  1.4337
19747TIP3    H280657   4.299   2.040  16.362  0.3322  1.1059 -0.0078
19748TIP3   OH280658   2.707   1.874   2.645 -0.2574  0.2758  0.0473
19748TIP3    H180659   2.646   1.867   2.719 -0.0906  0.4065  0.1973
19748TIP3    H280660   2.684   1.801   2.588  1.0441 -1.1571  1.2714
19749TIP3   OH280661   2.256   3.506  17.011  0.2911  0.6174  0.5255
19749TIP3    H180662   2.204   3.446  17.065 -0.2457  2.5404  2.2729
19749TIP3    H280663   2.344   3.501  17.047  0.5023  0.1143 -0.0349
19750TIP3   OH280664   0.214   5.554   5.639  0.6788 -0.3113  0.4231
19750TIP3    H180665   0.308   5.566   5.652  0.4375  2.1184  0.4831
19750TIP3    H280666   0.175   5.631   5.682 -1.1434  0.0060 -1.6622
19751TIP3   OH280667   6.520   6.132  17.202  0.0826  0.5324  0.6607
19751TIP3    H180668   6.616   6.129  17.203  0.2544  2.3000 -1.6675
19751TIP3    H280669   6.497   6.208  17.254 -0.1711 -0.5232  2.1470
19752TIP3   OH280670   0.046   2.944  11.065 -0.3934  0.4284  0.2083
19752TIP3    H180671   0.031   2.986  10.980 -1.8881 -1.2456 -0.4218
19752TIP3    H280672   0.110   2.875  11.046 -0.7656  0.0198  0.4349
19753TIP3   OH280673   6.122   3.669   4.690  0.1339 -0.0332  1.0286
19753TIP3    H180674   6.160   3.642   4.606  1.8001  1.6064  1.1940
19753TIP3    H280675   6.166   3.614   4.755 -2.6035 -2.7552  0.7944
19754TIP3   OH280676   2.168   6.252   3.301 -0.1366 -0.2193 -0.5658
19754TIP3    H180677   2.220   6.328   3.327  0.5909 -0.9567  0.1956
19754TIP3    H280678   2.099   6.247   3.368  0.2391 -0.6313 -0.1987
19755TIP3   OH280679   2.792   1.033  12.042 -0.2996 -0.5210  0.0414
19755TIP3    H180680   2.826   1.122  12.044 -0.6933 -0.3560 -0.4222
19755TIP3    H280681   2.866   0.978  12.068  0.4778 -0.2134 -1.4359
19756TIP3   OH280682   3.393   1.801   6.370 -0.2189 -0.3853  0.2224
19756TIP3    H180683   3.449   1.756   6.433  4.2446  3.0116 -0.8298
19756TIP3    H280684   3.371   1.884   6.413 -3.1154 -0.7965 -0.2078
19757TIP3   OH280685   5.961   0.962  15.455 -0.2577 -0.2206  0.3280
19757TIP3    H180686   5.913   1.036  15.419 -0.2523 -0.2048  0.3537
19757TIP3    H280687   5.942   0.890  15.395  2.2818  0.5204 -1.5277
19758TIP3   OH280688   5.587   6.714  13.516  0.0633 -0.2664  0.6036
19758TIP3    H180689   5.551   6.799  13.542 -0.5232 -0.4222  0.3257
19758TIP3    H280690   5.649   6.692  13.585  2.1799  1.5679 -0.5565
19759TIP3   OH280691   4.624   3.245   0.668  0.4308  0.4476 -0.5951
19759TIP3    H180692   4.533   3.217   0.672 -0.3964  2.9715 -0.2311
19759TIP3    H280693   4.621   3.334   0.631  2.5766  1.2751  1.0004
19760TIP3   OH280694   3.147   6.728  12.331 -0.1383  0.1842  0.2472
19760TIP3    H180695   3.174   6.810  12.373  2.8653 -0.1151 -0.8878
19760TIP3    H280696   3.162   6.661  12.398  0.7526  0.1854  0.0613
19761TIP3   OH280697   4.302   3.180   0.355 -0.1950  0.5245  0.0887
19761TIP3    H180698   4.264   3.249   0.300  2.1820  0.2533 -2.0851
19761TIP3    H280699   4.378   3.221   0.396 -1.2797  0.3767  2.3493
19762TIP3   OH280700   4.953   0.648  11.860  0.3982 -0.1588  0.2299
19762TIP3    H180701   4.971   0.556  11.880  1.3482 -0.6287 -2.3752
19762TIP3    H280702   4.966   0.655  11.765 -0.1314  2.5695  0.2734
19763TIP3   OH280703   1.263   6.249   0.352  0.4489  0.1170  0.0346
19763TIP3    H180704   1.312   6.206   0.281 -0.3916 -0.4593 -0.2171
19763TIP3    H280705   1.287   6.341   0.345  0.1118  0.1333 -1.2377
19764TIP3   OH280706   0.321   4.196  12.839  0.2802  0.1715  0.0800
19764TIP3    H180707   0.324   4.277  12.890 -1.4878  0.6592 -0.5006
19764TIP3    H280708   0.295   4.129  12.902 -1.6119  0.7189 -0.0567
19765TIP3   OH280709   6.042   0.034   4.872  0.1267 -0.8677  0.2838
19765TIP3    H180710   6.079  -0.054   4.869 -1.0725 -1.4375  1.4761
19765TIP3    H280711   6.078   0.072   4.952  0.4414 -0.3459 -0.0962
19766TIP3   OH280712   1.925   4.062   3.928  0.2835  0.0955 -0.3564
19766TIP3    H180713   2.002   4.005   3.919 -0.8570 -1.8457  1.2674
19766TIP3    H280714   1.864   4.010   3.980 -1.4382  2.2826 -0.0890
19767TIP3   OH280715   2.216   6.712   1.025 -0.2317 -0.4016  0.1552
19767TIP3    H180716   2.286   6.649   1.008 -1.5560 -1.9596  0.3213
19767TIP3    H280717   2.142   6.659   1.054 -1.3443  1.2530  0.4669
19768TIP3   OH280718   4.868   0.358  16.111  0.8076  0.2624 -0.0617
19768TIP3    H180719   4.896   0.313  16.190  0.4268 -0.5332 -0.3745
19768TIP3    H280720   4.857   0.289  16.046 -2.1924  0.4177  0.1274
19769TIP3   OH280721   5.273   4.415  16.675  0.4686 -0.6186  0.4752
19769TIP3    H180722   5.209   4.486  16.674 -0.2606 -1.2724  0.3269
19769TIP3    H280723   5.358   4.459  16.684  0.2043  0.3936 -1.5492
19770TIP3   OH280724   3.043   0.170  14.180 -0.4542 -0.2473  0.1994
19770TIP3    H180725   3.092   0.119  14.116  1.2779  2.1099 -0.4951
19770TIP3    H280726   2.971   0.210  14.130  1.7507  2.7990 -0.8342
19771TIP3   OH280727   3.471   0.514   0.879 -0.1658 -0.4648 -0.0791
19771TIP3    H180728   3.524   0.557   0.946 -1.3948  0.0585  0.5849
19771TIP3    H280729   3.417   0.584   0.842 -0.8140 -1.0848 -0.3316
19772TIP3   OH280730   2.506   4.220  16.769  0.1469  0.0483 -0.5196
19772TIP3    H180731   2.499   4.285  16.838 -0.4737  0.7599 -1.2295
19772TIP3    H280732   2.418   4.181  16.763  0.6994 -1.4311  0.4244
19773TIP3   OH280733   4.994   3.552   4.393 -0.1655  0.5661 -0.2250
19773TIP3    H180734   4.906   3.564   4.429 -0.1266 -0.9765  0.4548
19773TIP3    H280735   5.002   3.458   4.379  1.3697  0.6741 -0.2875
19774TIP3   OH280736   5.495   6.510  15.893  0.3560 -0.0113 -0.3637
19774TIP3    H180737   5.556   6.577  15.924  1.0470 -0.7417 -0.1181
19774TIP3    H280738   5.520   6.495  15.802  0.0714  0.1985 -0.4800
19775TIP3   OH280739   0.245   6.503  15.131  0.3974  0.5748 -0.5106
19775TIP3    H180740   0.275   6.436  15.069 -0.0335 -0.2943  0.1985
19775TIP3    H280741   0.239   6.583  15.079 -0.1055 -0.1674 -1.6338
19776TIP3   OH280742   0.529   2.362  13.841  0.4571  0.1003 -0.0851
19776TIP3    H180743   0.562   2.279  13.874  0.8972  0.0331 -0.6902
19776TIP3    H280744   0.465   2.390  13.907 -0.6949 -1.3705 -0.5176
19777TIP3   OH280745   6.677   3.033  11.296 -0.1250  0.3030 -0.2807
19777TIP3    H180746   6.705   3.024  11.206 -2.3687 -1.0406 -0.9304
19777TIP3    H280747   6.625   3.113  11.297 -1.7243 -0.6912 -0.6957
19778TIP3   OH280748   5.863   2.961  10.806  0.1179 -0.0172  0.4697
19778TIP3    H180749   5.936   3.000  10.854  1.1923 -0.4390 -0.7618
19778TIP3    H280750   5.904   2.909  10.737 -1.3404 -0.8855  0.1995
19779TIP3   OH280751   2.779   2.642  13.131 -0.4755 -0.2583  0.3970
19779TIP3    H180752   2.738   2.725  13.157  1.5864  0.6671  0.8933
19779TIP3    H280753   2.814   2.606  13.213  0.5992 -0.4631 -0.1318
19780TIP3   OH280754   2.530   0.327  15.293 -0.0483  0.3634 -0.4429
19780TIP3    H180755   2.502   0.265  15.226 -0.1424 -1.5505  1.2785
19780TIP3    H280756   2.625   0.330  15.285  0.1459 -1.6047  0.7448
19781TIP3   OH280757   2.041   0.507  13.575 -0.1071 -0.3975 -0.5086
19781TIP3    H180758   2.033   0.584  13.631 -1.4596 -0.7164 -0.2305
19781TIP3    H280759   1.965   0.512  13.517  0.5010 -0.8391 -1.3646
19782TIP3   OH280760   6.593   4.165  11.587  0.0460 -0.4812  0.1856
19782TIP3    H180761   6.500   4.160  11.565  0.2331  0.6144 -0.9094
19782TIP3    H280762   6.638   4.173  11.503  0.9887  0.8976  0.7787
19783TIP3   OH280763   3.527   4.439   3.490  0.1883  0.0823 -0.1221
19783TIP3    H180764   3.471   4.445   3.568  1.0357 -0.6358  0.5593
19783TIP3    H280765   3.579   4.360   3.504 -0.0048 -0.3457 -1.6694
19784TIP3   OH280766   3.089   0.823  15.629  0.3801 -0.0910 -0.2479
19784TIP3    H180767   3.180   0.793  15.629  0.3027 -0.3759 -1.4729
19784TIP3    H280768   3.090   0.906  15.582 -0.0991 -0.4780 -0.9639
19785TIP3   OH280769   1.520   4.109   1.554 -0.3555  0.2352  0.1710
19785TIP3    H180770   1.448   4.088   1.495  1.5027  1.2862 -2.7251
19785TIP3    H280771   1.547   4.198   1.529  2.3118 -0.3491  0.6371
19786TIP3   OH280772   0.558   6.204   4.607 -0.6014 -0.2909 -0.0806
19786TIP3    H180773   0.545   6.269   4.676 -0.0839 -1.5512  1.2545
19786TIP3    H280774   0.483   6.145   4.616 -0.3563 -0.6494 -0.3911
19787TIP3   OH280775   3.122   4.851   1.195  0.8001  0.5876  0.1969
19787TIP3    H180776   3.173   4.829   1.273  1.5043  4.0071  0.8282
19787TIP3    H280777   3.051   4.905   1.228 -0.1435  0.3276 -1.3343
19788TIP3   OH280778   3.549   4.717   0.567  0.3191  0.0820  0.9221
19788TIP3    H180779   3.615   4.648   0.565 -0.0408 -0.3475  2.8433
19788TIP3    H280780   3.471   4.676   0.603 -1.5035  0.2536 -2.3915
19789TIP3   OH280781   4.258   5.627   2.860  0.6122  0.5558 -0.3637
19789TIP3    H180782   4.266   5.564   2.932 -0.2678 -0.0868 -0.8238
19789TIP3    H280783   4.170   5.662   2.869  1.5489  2.8759  0.8009
19790TIP3   OH280784   1.362   3.582  11.445 -0.7986  0.4943 -0.0956
19790TIP3    H180785   1.448   3.624  11.456 -0.2781 -0.4269 -0.6101
19790TIP3    H280786   1.300   3.655  11.451  0.1414  1.5419 -2.0985
19791TIP3   OH280787   3.107   2.936  13.170  0.0166  0.2805 -0.1002
19791TIP3    H180788   3.044   2.865  13.174 -1.7346  1.7820  1.0684
19791TIP3    H280789   3.142   2.942  13.259 -2.5794  3.0345  0.9339
19792TIP3   OH280790   3.988   3.200   0.422 -0.3447 -0.2604  0.0036
19792TIP3    H180791   4.068   3.151   0.438 -0.9956 -1.0409  1.0335
19792TIP3    H280792   3.932   3.140   0.373 -1.2057 -0.6713  1.4051
19793TIP3   OH280793   6.214   2.813  16.779  0.3252  0.1904 -0.8073
19793TIP3    H180794   6.270   2.835  16.704 -2.0372  2.0693 -2.1719
19793TIP3    H280795   6.190   2.897  16.817  0.5364 -0.6876  1.4356
19794TIP3   OH280796   2.257   1.379   3.163  0.4002 -0.1857  0.3114
19794TIP3    H180797   2.276   1.306   3.104 -3.0475 -1.7073  0.8542
19794TIP3    H280798   2.271   1.344   3.250  1.7062  0.8522  0.5571
19795TIP3   OH280799   5.476   2.780   0.126  0.0639 -0.2153 -0.0677
19795TIP3    H180800   5.507   2.826   0.205 -0.6714  2.1538 -1.0707
19795TIP3    H280801   5.381   2.779   0.135 -0.0155 -0.0706 -0.8538
19796TIP3   OH280802   1.932   0.432  15.529  0.5246  0.4954  0.3561
19796TIP3    H180803   1.859   0.438  15.467 -0.2242  1.0343  1.2641
19796TIP3    H280804   1.999   0.490  15.493  0.4441  0.1241 -0.4003
19797TIP3   OH280805   5.374   2.461   5.836 -0.0107 -0.0617 -0.4297
19797TIP3    H180806   5.445   2.515   5.802  2.2218 -2.7768 -0.4039
19797TIP3    H280807   5.390   2.456   5.930 -1.2041  0.5420 -0.1677
19798TIP3   OH280808   6.065   5.839  11.691  0.2108 -0.0383 -0.1294
19798TIP3    H180809   6.056   5.858  11.598  1.0038  1.5968  0.0926
19798TIP3    H280810   5.979   5.860  11.728 -0.9783 -3.1459 -0.7849
19799TIP3   OH280811   3.606   4.192   2.427 -0.6608 -0.1859 -0.7299
19799TIP3    H180812   3.520   4.153   2.410 -0.6589 -0.9612  0.8805
19799TIP3    H280813   3.663   4.117   2.447 -0.2137  0.5003  0.6689
19800TIP3   OH280814   5.897   2.701   0.739  0.0362 -0.0565  0.2535
19800TIP3    H180815   5.966   2.636   0.730 -0.9054 -0.8998 -1.2294
19800TIP3    H280816   5.845   2.670   0.813  1.6317  1.0225  1.9236
19801TIP3   OH280817   5.499   3.288   3.651  0.0688  0.2752  0.3770
19801TIP3    H180818   5.586   3.326   3.652  1.8004 -3.3061  0.2566
19801TIP3    H280819   5.460   3.318   3.569  2.4545 -0.5454 -1.1441
19802TIP3   OH280820   0.265   5.421  14.749  0.6492 -0.0544 -0.1160
19802TIP3    H180821   0.327   5.360  14.708 -1.0483 -1.6410 -0.4649
19802TIP3    H280822   0.238   5.377  14.830 -0.1829  0.4826 -0.0923
19803TIP3   OH280823   3.043   5.320   0.473  0.0576 -0.2623  0.6842
19803TIP3    H180824   3.040   5.268   0.554  0.9045 -2.4807 -0.6347
19803TIP3    H280825   2.951   5.325   0.445 -0.0549 -1.0053  0.8814
19804TIP3   OH280826   6.158   5.239  10.587 -0.3346  0.2472  0.1151
19804TIP3    H180827   6.148   5.303  10.658  0.3653  1.1976 -0.6126
19804TIP3    H280828   6.069   5.218  10.560 -0.5722  0.9924  0.3019
19805TIP3   OH280829   3.242   1.786  15.870  0.0115  0.5276  0.1912
19805TIP3    H180830   3.281   1.796  15.957  2.6923 -0.2630 -0.8107
19805TIP3    H280831   3.283   1.855  15.818  0.9045 -0.9927 -1.1789
19806TIP3   OH280832   2.611   3.944  11.935 -0.2448 -0.1992  0.0090
19806TIP3    H180833   2.551   3.890  11.986 -1.8758  0.1108 -1.4923
19806TIP3    H280834   2.666   3.880  11.889 -0.4893 -0.5298  0.1674
19807TIP3   OH280835   5.978   1.199  12.762 -0.1274 -0.1202  0.4360
19807TIP3    H180836   5.911   1.265  12.780 -0.4336 -0.0374 -0.8952
19807TIP3    H280837   5.954   1.125  12.818 -2.1487 -0.5983 -0.9370
19808TIP3   OH280838   6.093   0.152   0.854  0.8089  0.1901  0.5306
19808TIP3    H180839   6.093   0.243   0.823 -0.8252 -0.2077 -0.7537
19808TIP3    H280840   6.010   0.116   0.823 -0.4731 -0.6451  4.3761
19809TIP3   OH280841   4.453   5.367   1.777 -0.2376  0.4831 -0.3868
19809TIP3    H180842   4.414   5.382   1.690  0.8179  0.2404 -0.9098
19809TIP3    H280843   4.451   5.453   1.819  1.4812  1.1709 -1.5939
19810TIP3   OH280844   0.616   6.396  17.246  0.0939 -0.1599 -0.6970
19810TIP3    H180845   0.615   6.305  17.277  0.1504 -0.0759 -0.4507
19810TIP3    H280846   0.696   6.401  17.193  0.7292  0.0644  0.2550
19811TIP3   OH280847   3.866   2.486  11.400  0.3035  0.3565  0.2518
19811TIP3    H180848   3.814   2.432  11.341  1.0195  0.3189 -0.3600
19811TIP3    H280849   3.838   2.460  11.488 -0.7665  0.4039 -0.0607
19812TIP3   OH280850   2.738   4.329   0.988  0.3419  0.2975 -0.1210
19812TIP3    H180851   2.691   4.249   1.010 -2.0575  1.6995  0.1151
19812TIP3    H280852   2.670   4.394   0.969  2.2000  1.9734 -1.5756
19813TIP3   OH280853   5.800   0.916  10.971 -0.0323 -0.3611  0.2667
19813TIP3    H180854   5.815   1.007  10.943 -0.1525 -0.4309 -0.0223
19813TIP3    H280855   5.887   0.876  10.967 -0.2011 -0.6573 -1.0324
19814TIP3   OH280856   0.529   4.113   0.802 -0.0976 -0.9202 -0.9032
19814TIP3    H180857   0.623   4.124   0.785 -0.0683 -0.6649 -0.5910
19814TIP3    H280858   0.488   4.190   0.763  0.2630  1.2296  2.6135
19815TIP3   OH280859   1.708   3.298  15.794 -0.4122  0.3981 -0.4086
19815TIP3    H180860   1.663   3.220  15.826 -2.1655  0.7413 -1.8671
19815TIP3    H280861   1.641   3.347  15.746  1.0295  2.0082 -0.8971
19816TIP3   OH280862   2.733   2.161  14.695  0.3738 -0.3286 -0.2244
19816TIP3    H180863   2.682   2.229  14.651  1.4578 -1.7531 -4.0684
19816TIP3    H280864   2.822   2.195  14.699 -0.0036  0.5369  2.8248
19817TIP3   OH280865   1.047   2.995  12.468  0.1812  0.2962  0.8553
19817TIP3    H180866   1.119   2.953  12.512 -0.8280 -1.0116  1.3172
19817TIP3    H280867   0.990   2.923  12.439 -1.1816  1.2825  0.9486
19818TIP3   OH280868   2.667   4.603  14.936  0.2702 -0.0501  0.6065
19818TIP3    H180869   2.626   4.574  15.017 -1.4882 -0.6784 -0.4536
19818TIP3    H280870   2.629   4.689  14.919  2.3827  1.1573  1.5962
19819TIP3   OH280871   0.436   5.975   3.770  0.5196 -0.5507 -0.2795
19819TIP3    H180872   0.463   6.023   3.848  2.4490 -0.0921 -1.1720
19819TIP3    H280873   0.352   6.014   3.746  0.1868 -0.2945  1.2140
19820TIP3   OH280874   6.191   6.416   3.228  0.2362 -0.3433 -0.2495
19820TIP3    H180875   6.167   6.504   3.259  1.3343 -0.2687  0.4726
19820TIP3    H280876   6.145   6.406   3.145  0.6683  1.2389 -0.7207
19821TIP3   OH280877   6.058   0.637  12.735 -0.3306 -0.4660 -0.5449
19821TIP3    H180878   5.993   0.582  12.691 -0.0055 -2.2912  1.0818
19821TIP3    H280879   6.061   0.717  12.684 -1.6599 -1.5300 -2.4141
19822TIP3   OH280880   2.709   2.912  11.767  0.3493  0.5671 -0.2868
19822TIP3    H180881   2.776   2.880  11.827  1.0437  1.7164 -0.4142
19822TIP3    H280882   2.758   2.949  11.694 -0.4729 -1.1672 -1.8032
19823TIP3   OH280883   6.707   0.061   3.959  0.4580 -0.4978  0.0894
19823TIP3    H180884   6.740   0.003   3.891  0.9281 -1.2266  0.9101
19823TIP3    H280885   6.782   0.075   4.017 -0.5534 -1.9382  1.8298
19824TIP3   OH280886   4.005   0.433  11.987  0.4687 -0.0653 -0.5870
19824TIP3    H180887   4.048   0.479  12.060  0.6181  0.2421 -0.8627
19824TIP3    H280888   3.981   0.503  11.926 -1.0843 -0.1598 -0.1095
19825TIP3   OH280889   0.505   4.413   4.178  0.7248 -0.7409  0.4454
19825TIP3    H180890   0.422   4.366   4.170  0.3540 -0.5373  2.5019
19825TIP3    H280891   0.555   4.386   4.102 -0.9136 -1.5096 -0.4216
19826TIP3   OH280892   0.033   6.335   1.114  0.2712 -0.0967  0.2151
19826TIP3    H180893   0.087   6.290   1.179  0.1501  0.4316  0.6786
19826TIP3    H280894   0.081   6.415   1.094 -0.4608  0.5002  0.8155
19827TIP3   OH280895   0.315   4.034   1.102  0.1129 -0.5311  0.0282
19827TIP3    H180896   0.261   4.095   1.053 -1.2218 -1.7848 -0.1173
19827TIP3    H280897   0.344   3.969   1.037 -2.1945 -2.5736  0.8875
19828TIP3   OH280898   0.515   6.552   4.286  0.0091  0.0187 -0.3640
19828TIP3    H180899   0.447   6.589   4.230  1.2383 -0.4262 -2.2293
19828TIP3    H280900   0.467   6.499   4.351 -1.6172  2.7586  0.8326
19829TIP3   OH280901   2.087   1.270  11.929 -0.1238  0.2924  0.2342
19829TIP3    H180902   2.175   1.235  11.920  0.5247  1.7040  0.7728
19829TIP3    H280903   2.042   1.209  11.987  1.5429  1.2720  2.6857
19830TIP3   OH280904   3.260   2.086  13.913 -0.0695 -0.1840 -0.2595
19830TIP3    H180905   3.273   2.065  14.005  0.7578  1.9622  0.1719
19830TIP3    H280906   3.347   2.077  13.874 -0.2675 -0.3234 -0.6763
19831TIP3   OH280907   6.109   4.598   5.692 -0.3639 -0.0971 -0.0530
19831TIP3    H180908   6.015   4.601   5.672 -0.0136  0.9143 -1.8105
19831TIP3    H280909   6.138   4.513   5.658 -0.5471 -0.1737 -0.0198
19832TIP3   OH280910   3.361   3.044   2.829  0.2749 -0.1362 -0.1205
19832TIP3    H180911   3.366   3.041   2.925 -3.5524  0.7799  0.2938
19832TIP3    H280912   3.268   3.028   2.810  0.4502  1.9750 -3.5208
19833TIP3   OH280913   3.349   2.106  11.932  0.2397  0.1385  0.0002
19833TIP3    H180914   3.411   2.117  11.859  1.5313 -1.1157  0.8463
19833TIP3    H280915   3.403   2.072  12.003 -1.2595  0.0101  1.1090
19834TIP3   OH280916   5.451   3.312   1.557  0.0390  0.1120 -0.0506
19834TIP3    H180917   5.536   3.356   1.568  0.2048 -0.1522 -0.2685
19834TIP3    H280918   5.464   3.227   1.598  0.6067 -0.8295 -2.0602
19835TIP3   OH280919   1.751   1.444   2.853 -0.1330 -0.6116  0.2887
19835TIP3    H180920   1.825   1.498   2.825 -1.8878  2.2636  0.8085
19835TIP3    H280921   1.718   1.405   2.772  0.3143  0.2889 -0.3452
19836TIP3   OH280922   0.229   1.081  11.405  0.8907 -0.1918  0.0939
19836TIP3    H180923   0.278   1.161  11.421  0.7524 -0.2495  0.8453
19836TIP3    H280924   0.234   1.068  11.310  1.8004  0.1300  0.0908
19837TIP3   OH280925   4.030   4.388   6.885 -0.0438 -0.6110  0.4541
19837TIP3    H180926   4.120   4.373   6.912 -0.2352 -1.2338  0.7815
19837TIP3    H280927   4.034   4.398   6.790  0.1400 -2.7564  0.1825
19838TIP3   OH280928   1.438   5.846   3.114 -0.4581 -0.6346 -0.0288
19838TIP3    H180929   1.361   5.793   3.133 -1.1114  0.7070  1.2442
19838TIP3    H280930   1.512   5.788   3.131 -1.1616 -1.3304  0.6980
19839TIP3   OH280931   2.665   3.818   3.484  0.0239  0.0314  0.0322
19839TIP3    H180932   2.723   3.821   3.561 -1.5309 -3.4971  1.5666
19839TIP3    H280933   2.699   3.744   3.433 -1.1650  0.0156 -0.7464
19840TIP3   OH280934   5.330   2.565  11.453  0.7766 -0.0943 -0.0028
19840TIP3    H180935   5.376   2.640  11.492 -0.2195  2.2189 -2.8925
19840TIP3    H280936   5.288   2.522  11.527  0.2502  3.0553  1.7064
19841TIP3   OH280937   6.227   6.438   5.214  0.2266  1.0236 -0.3973
19841TIP3    H180938   6.188   6.467   5.297  0.2834  1.0162 -0.3675
19841TIP3    H280939   6.169   6.369   5.182  1.1896 -0.2848  0.5633
19842TIP3   OH280940   4.486   4.496   4.694 -0.7285 -0.0864  0.3705
19842TIP3    H180941   4.560   4.485   4.754  1.1956  0.2466 -1.7953
19842TIP3    H280942   4.516   4.563   4.632 -3.6960  1.6269  0.5902
19843TIP3   OH280943   0.407   2.199  12.838  0.0101  0.2982  0.1408
19843TIP3    H180944   0.464   2.234  12.906  0.4098 -0.4697  0.2075
19843TIP3    H280945   0.358   2.275  12.807  1.2363  1.0217 -0.0942
19844TIP3   OH280946   0.042   4.019   4.829 -0.6080 -0.4808 -0.0206
19844TIP3    H180947   0.046   4.033   4.924  0.5308  0.8916 -0.2512
19844TIP3    H280948  -0.051   4.008   4.811 -1.0479  1.1720  1.0112
19845TIP3   OH280949   5.405   6.605   2.999 -0.3767 -0.0122 -0.5094
19845TIP3    H180950   5.350   6.573   2.928 -1.2405  2.3290 -0.9803
19845TIP3    H280951   5.415   6.699   2.981  0.2375  0.4495  1.9008
19846TIP3   OH280952   6.476   3.916  15.130  0.1386 -0.1594 -0.0188
19846TIP3    H180953   6.477   3.825  15.162 -1.6488 -0.1619  0.1091
19846TIP3    H280954   6.442   3.910  15.041 -0.7628  0.4494  0.2728
19847TIP3   OH280955   1.260   5.246   3.313  0.0210 -0.4287  0.3140
19847TIP3    H180956   1.263   5.318   3.249  0.7927 -1.1065 -0.4381
19847TIP3    H280957   1.280   5.288   3.397  1.2387  0.1342 -0.2325
19848TIP3   OH280958   1.048   3.307   5.598  0.8624 -0.1720 -0.1703
19848TIP3    H180959   1.031   3.330   5.689 -1.7371  2.1615 -1.1122
19848TIP3    H280960   0.976   3.248   5.574 -0.7484  2.1985 -1.6240
19849TIP3   OH280961   1.766   2.490  12.275 -0.0943 -0.1093 -0.5109
19849TIP3    H180962   1.859   2.514  12.272 -0.2578  0.4606 -1.4606
19849TIP3    H280963   1.764   2.399  12.246  0.2906 -0.5648  0.8209
19850TIP3   OH280964   1.514   6.775   3.446  0.2591  0.0885  0.3001
19850TIP3    H180965   1.530   6.869   3.437 -1.5524  0.4676  0.6946
19850TIP3    H280966   1.583   6.744   3.505  1.4123  0.9768 -0.5295
19851TIP3   OH280967   0.295   5.735   3.216  0.2174  0.5515  0.5998
19851TIP3    H180968   0.324   5.821   3.246 -0.5517  0.6880  0.9736
19851TIP3    H280969   0.225   5.710   3.276  1.0356 -0.7595  1.0684
19852TIP3   OH280970   2.103   4.954  13.558  0.5069 -0.3236 -0.6489
19852TIP3    H180971   2.098   5.034  13.505  0.3486 -0.2995 -0.5998
19852TIP3    H280972   2.014   4.918  13.555 -0.1644  0.9431  1.5365
19853TIP3   OH280973   6.190   3.732   5.674  0.4567  0.0563 -0.3442
19853TIP3    H180974   6.129   3.685   5.730  0.8761 -0.7617 -0.5566
19853TIP3    H280975   6.166   3.824   5.683  0.8965  0.0185  1.6561
19854TIP3   OH280976   0.835   5.642   1.301 -0.3577  0.4661  0.5128
19854TIP3    H180977   0.813   5.563   1.253 -0.4727  0.3231  0.7979
19854TIP3    H280978   0.930   5.649   1.295 -0.5128  1.5151 -1.4041
19855TIP3   OH280979   5.038   6.750  11.833 -0.4513 -0.5003  0.5722
19855TIP3    H180980   5.107   6.685  11.826  0.9757  1.0435 -0.7140
19855TIP3    H280981   4.957   6.699  11.837  0.5248 -2.3545 -1.2779
19856TIP3   OH280982   2.253   5.798   2.870  0.2265 -0.0032  0.6902
19856TIP3    H180983   2.282   5.882   2.905 -0.2500  0.5586 -0.2149
19856TIP3    H280984   2.157   5.804   2.873  0.1898 -0.8305  1.3402
19857TIP3   OH280985   4.552   4.676  13.634 -0.1505  0.6719  0.2214
19857TIP3    H180986   4.554   4.621  13.556 -1.2724  0.3352  0.4249
19857TIP3    H280987   4.475   4.647  13.683  0.2163  1.2618  1.1778
19858TIP3   OH280988   6.034   0.746   2.441  0.7567 -0.4762  0.2935
19858TIP3    H180989   6.098   0.788   2.499 -1.4427 -0.4945  2.9356
19858TIP3    H280990   5.982   0.818   2.406  0.5752 -0.6227  0.2603
19859TIP3   OH280991   1.840   3.603   1.525 -0.0161 -0.2721 -0.6696
19859TIP3    H180992   1.792   3.521   1.513  0.8413 -0.7535 -0.8712
19859TIP3    H280993   1.924   3.577   1.563  0.8180  0.3615 -2.0009
19860TIP3   OH280994   0.348   0.854  16.683  0.2285 -0.0321 -0.4966
19860TIP3    H180995   0.388   0.769  16.667 -1.0502 -0.4789 -1.5713
19860TIP3    H280996   0.419   0.909  16.715  1.2180 -1.3247 -0.4026
19861TIP3   OH280997   1.015   4.789  11.336 -0.1458  0.5471  0.4975
19861TIP3    H180998   1.048   4.720  11.279 -1.3928  0.4989 -0.2175
19861TIP3    H280999   1.043   4.870  11.294 -0.1671  0.4971  0.3866
19862TIP3   OH281000   4.450   1.110  10.667 -0.2033  0.2172  0.3515
19862TIP3    H181001   4.474   1.199  10.640 -0.1634 -0.6021 -2.6015
19862TIP3    H281002   4.496   1.098  10.750  0.2507  2.7291  0.5636
19863TIP3   OH281003   0.718   5.128   2.294 -0.5358  0.1821 -0.2412
19863TIP3    H181004   0.807   5.095   2.306 -0.5773  0.3750  0.6773
19863TIP3    H281005   0.689   5.089   2.211  0.3276 -0.0353 -0.4551
19864TIP3   OH281006   1.555   6.277   2.517 -0.4469 -0.5909  0.2975
19864TIP3    H181007   1.548   6.189   2.553 -0.5227 -1.4079 -1.6267
19864TIP3    H281008   1.612   6.268   2.441 -1.3769  0.8030 -0.6198
19865TIP3   OH281009   5.064   4.990   5.071  0.1900 -0.4151  0.1556
19865TIP3    H181010   5.016   4.927   5.018 -0.5313  1.3623 -1.4154
19865TIP3    H281011   5.133   5.022   5.013  2.1328 -1.4953  1.7388
19866TIP3   OH281012   3.365   1.641  14.657 -0.2483  0.4153 -0.6403
19866TIP3    H181013   3.371   1.681  14.744  0.4906  1.2761 -1.0735
19866TIP3    H281014   3.314   1.703  14.605  2.3233  1.7214 -1.7859
19867TIP3   OH281015   1.572   2.699   1.956 -0.3817  0.1442  0.2491
19867TIP3    H181016   1.570   2.764   2.027 -0.7815 -0.4605  0.7975
19867TIP3    H281017   1.664   2.695   1.931 -0.4740  1.6579 -0.4845
19868TIP3   OH281018   6.727   2.903   0.449  0.0057  0.0722  0.0155
19868TIP3    H181019   6.782   2.842   0.498  0.6246  1.2748  0.8940
19868TIP3    H281020   6.651   2.917   0.505 -0.1920  0.0014 -0.2372
19869TIP3   OH281021   5.073   3.642   3.880 -0.1611 -0.0188 -0.0058
19869TIP3    H181022   5.081   3.596   3.964  0.6197  0.7785  0.3684
19869TIP3    H281023   5.142   3.605   3.826 -1.3804 -1.3689 -0.7375
19870TIP3   OH281024   1.263   2.870  12.061  0.4568 -0.5629 -0.7931
19870TIP3    H181025   1.236   2.799  12.003 -2.1442 -1.6633  1.5497
19870TIP3    H281026   1.182   2.908  12.093  1.7779  1.0951  0.8375
19871TIP3   OH281027   4.561   6.617  13.314  0.1707  0.4622 -0.0847
19871TIP3    H181028   4.575   6.702  13.272 -0.1533  1.0762  0.9974
19871TIP3    H281029   4.641   6.601  13.364  0.7670 -0.5059 -1.2883
19872TIP3   OH281030   6.427   5.683   4.103  0.2542  0.3763  0.4550
19872TIP3    H181031   6.351   5.712   4.052 -0.1252 -1.2307  0.0472
19872TIP3    H281032   6.494   5.751   4.087 -0.4036  0.7535 -0.8561
19873TIP3   OH281033   5.468   4.722   4.056  0.3633  0.0353 -0.0554
19873TIP3    H181034   5.390   4.777   4.062 -0.1547 -0.7783  1.1525
19873TIP3    H281035   5.484   4.713   3.962 -0.7898  0.5112 -0.3126
19874TIP3   OH281036   2.329   2.075  14.956 -0.9372 -0.2178  0.2969
19874TIP3    H181037   2.421   2.083  14.930 -1.0463 -2.1624 -0.8592
19874TIP3    H281038   2.302   2.165  14.974  0.5578  0.6965 -1.5893
19875TIP3   OH281039   6.472   6.610   0.854 -0.3548 -0.2514 -0.2316
19875TIP3    H181040   6.423   6.529   0.839  0.0447 -0.1124 -2.8658
19875TIP3    H281041   6.564   6.584   0.850 -0.2206  0.3110 -1.2226
19876TIP3   OH281042   3.891   4.974  12.260  1.1978  0.2819  0.2596
19876TIP3    H181043   3.798   4.951  12.256  1.3087  0.0365 -0.9908
19876TIP3    H281044   3.893   5.067  12.237  1.3003  0.1878 -0.1128
19877TIP3   OH281045   2.151   3.513   1.525 -0.6150 -0.7357  0.1738
19877TIP3    H181046   2.241   3.492   1.500 -0.0073  0.2067  1.4484
19877TIP3    H281047   2.106   3.429   1.526  0.4559 -1.3252  0.2875
19878TIP3   OH281048   4.036   3.180  15.244  0.0024 -0.0535  0.5467
19878TIP3    H181049   3.974   3.243  15.206  0.3623  0.6661  1.1178
19878TIP3    H281050   3.982   3.107  15.273 -0.5055  0.2912  0.4808
19879TIP3   OH281051   4.190   6.274  13.164  0.1574  0.2936 -1.0162
19879TIP3    H181052   4.145   6.347  13.207  0.6756 -0.0906  0.2296
19879TIP3    H281053   4.278   6.276  13.200  0.6027 -0.0814 -2.0565
19880TIP3   OH281054   5.845   6.568   4.647  0.3298 -0.4113 -0.7246
19880TIP3    H181055   5.759   6.541   4.616 -0.3780  0.5449  0.3360
19880TIP3    H281056   5.900   6.567   4.569 -0.9985  0.4042 -1.7166
19881TIP3   OH281057   1.044   3.707  13.873  0.3562 -0.1682  0.4337
19881TIP3    H181058   0.979   3.656  13.922 -0.2893  0.5941  0.3987
19881TIP3    H281059   1.087   3.644  13.816 -2.0712 -0.3252 -1.3749
19882TIP3   OH281060   0.445   0.276  16.954  0.2915  0.0376  0.0409
19882TIP3    H181061   0.384   0.313  16.890 -0.4824  0.2714  0.8936
19882TIP3    H281062   0.504   0.348  16.975  1.7831 -0.5799 -1.8332
19883TIP3   OH281063   4.376   5.668  11.431  0.0209  0.1686 -0.0383
19883TIP3    H181064   4.284   5.668  11.402 -0.7909 -0.8663  2.3530
19883TIP3    H281065   4.376   5.719  11.512  1.9083  1.5704 -0.8390
19884TIP3   OH281066   3.708   4.255   4.571  0.0819 -0.2852  0.3040
19884TIP3    H181067   3.791   4.277   4.528  0.3481  1.6432  1.6779
19884TIP3    H281068   3.734   4.216   4.654 -0.3933 -0.1813  0.5025
19885TIP3   OH281069   4.473   6.478   3.590  0.2492 -0.4236 -0.7232
19885TIP3    H181070   4.459   6.391   3.553 -1.7198 -0.3536 -0.3029
19885TIP3    H281071   4.450   6.538   3.520 -0.1568 -0.2739 -0.4689
19886TIP3   OH281072   5.088   1.050   2.551  0.6944 -0.1071  0.3795
19886TIP3    H181073   5.101   1.135   2.510  0.3300  0.5339  1.5377
19886TIP3    H281074   5.019   1.065   2.616  2.7556 -0.5000  2.8088
19887TIP3   OH281075   5.832   4.172  14.718  0.1834 -0.2553 -0.2496
19887TIP3    H181076   5.863   4.193  14.806  0.6312  1.2205 -0.7357
19887TIP3    H281077   5.738   4.158  14.728  0.3632 -0.9675  0.5878
19888TIP3   OH281078   0.907   3.391  15.563  0.0804 -0.2747 -0.4679
19888TIP3    H181079   0.980   3.451  15.579  0.5893 -0.9391 -0.2898
19888TIP3    H281080   0.926   3.353  15.477 -0.1423 -0.3348 -0.4915
19889TIP3   OH281081   2.824   1.100   2.221 -0.1860  0.5645 -0.3704
19889TIP3    H181082   2.764   1.171   2.199  1.0878  2.1006  0.8334
19889TIP3    H281083   2.882   1.092   2.145 -1.1627 -0.1235 -1.0533
19890TIP3   OH281084   2.028   1.224   3.909 -0.2974  0.6721 -0.8068
19890TIP3    H181085   2.039   1.304   3.858  1.0237  2.0479  1.4538
19890TIP3    H281086   2.099   1.227   3.974 -1.1608 -1.5401  0.3636
19891TIP3   OH281087   4.998   2.502  13.513  0.0702  0.3271  0.3124
19891TIP3    H181088   4.979   2.594  13.530  2.9001  1.2454 -0.8884
19891TIP3    H281089   4.965   2.486  13.424 -2.5564 -0.5868  1.3673
19892TIP3   OH281090   4.216   4.854   5.457  0.1726  0.0765 -0.4322
19892TIP3    H181091   4.230   4.933   5.404 -0.9595  0.6765  0.1286
19892TIP3    H281092   4.122   4.852   5.474  0.0139 -1.9598 -1.2580
19893TIP3   OH281093   3.417   1.195  17.054  0.0355 -0.0001 -0.1864
19893TIP3    H181094   3.490   1.248  17.086  0.2916  0.6614 -1.7561
19893TIP3    H281095   3.451   1.105  17.053  0.3847  0.1236  0.3223
19894TIP3   OH281096   0.398   0.203   2.457 -0.4502 -0.2345 -0.2403
19894TIP3    H181097   0.336   0.193   2.385  0.5476  0.6405 -1.2756
19894TIP3    H281098   0.446   0.121   2.460 -0.0559 -0.0412 -1.0295
19895TIP3   OH281099   6.040   1.832   3.080 -0.5646 -0.0366 -0.2796
19895TIP3    H181100   6.017   1.742   3.104  1.0908 -0.0604  1.5193
19895TIP3    H281101   6.106   1.822   3.012 -0.9476 -0.1608 -0.6329
19896TIP3   OH281102   5.542   3.219   1.082 -0.0169  0.7003  0.7215
19896TIP3    H181103   5.607   3.209   1.013 -0.1051 -0.3081  0.7686
19896TIP3    H281104   5.570   3.158   1.150 -1.5693 -0.5262  0.3076
19897TIP3   OH281105   0.182   3.903   0.626 -0.2779 -0.3376 -0.4243
19897TIP3    H181106   0.182   3.968   0.556 -0.8352 -1.0354 -1.0931
19897TIP3    H281107   0.097   3.914   0.669 -0.8125 -1.2629 -1.1845
19898TIP3   OH281108   0.774   1.135   0.670  0.5560 -0.2540  0.2090
19898TIP3    H181109   0.796   1.056   0.621  0.5452 -0.0419 -0.1424
19898TIP3    H281110   0.825   1.129   0.751 -1.6988 -2.1025  1.5926
19899TIP3   OH281111   1.868   1.314   5.770 -0.0571  0.3068 -0.5028
19899TIP3    H181112   1.904   1.256   5.837 -0.3867  0.6067 -0.0608
19899TIP3    H281113   1.773   1.312   5.785 -0.0401  1.2198 -0.2687
19900TIP3   OH281114   5.497   3.155   5.109  0.4012 -0.4131 -0.7883
19900TIP3    H181115   5.591   3.171   5.116  0.4583 -1.1040  0.3960
19900TIP3    H281116   5.489   3.060   5.111 -0.3189 -0.3609 -0.9443
19901TIP3   OH281117   4.572   5.854   3.377  0.2544 -0.0094  0.1134
19901TIP3    H181118   4.516   5.855   3.299  0.0510  0.9248  0.2694
19901TIP3    H281119   4.516   5.819   3.446  0.9010 -2.4076 -0.4804
19902TIP3   OH281120   2.895   0.812   1.508  0.2720 -0.1409 -0.4315
19902TIP3    H181121   2.968   0.756   1.480 -0.0946 -0.3985 -0.8806
19902TIP3    H281122   2.829   0.802   1.440  0.3677  1.1900 -0.7465
19903TIP3   OH281123   2.415   6.174  13.569  0.6718 -0.1077  0.5999
19903TIP3    H181124   2.471   6.218  13.633 -0.9321 -0.4315  2.2970
19903TIP3    H281125   2.356   6.243  13.537  2.6961  0.5353 -2.1246
19904TIP3   OH281126   0.340   5.537  13.296 -0.0510 -0.2244 -0.4491
19904TIP3    H181127   0.256   5.517  13.338 -1.1000  1.0949 -1.8206
19904TIP3    H281128   0.352   5.466  13.232 -0.5842  0.0782 -0.8883
19905TIP3   OH281129   3.451   1.393  13.930 -0.0746 -0.0597 -0.3936
19905TIP3    H181130   3.507   1.464  13.898  0.8922 -1.4700 -2.0582
19905TIP3    H281131   3.442   1.410  14.023  3.1119  0.3146 -0.0334
19906TIP3   OH281132   2.933   4.520  17.192 -0.5865  0.6414 -0.0096
19906TIP3    H181133   2.956   4.609  17.218  1.3653  0.2090 -0.1214
19906TIP3    H281134   2.985   4.503  17.114  0.8929 -1.3600  1.2924
19907TIP3   OH281135   1.331   1.869  12.696 -0.0623  0.4191  0.2451
19907TIP3    H181136   1.424   1.857  12.715  0.4933 -0.2085 -2.4062
19907TIP3    H281137   1.329   1.929  12.621 -1.7841  0.3048  0.1471
19908TIP3   OH281138   5.816   1.251  13.206 -0.2036  0.0294  0.0232
19908TIP3    H181139   5.813   1.340  13.240  0.5512 -0.7492  2.2807
19908TIP3    H281140   5.883   1.207  13.258  0.1877 -1.5979 -1.7492
19909TIP3   OH281141   4.331   5.133   5.646  0.2024 -0.0592  0.2595
19909TIP3    H181142   4.399   5.201   5.639 -0.0793  0.0426 -2.3259
19909TIP3    H281143   4.365   5.073   5.713  0.9493  2.0159  1.8872
19910TIP3   OH281144   1.543   2.751   1.216 -0.0615  0.1816  0.2241
19910TIP3    H181145   1.503   2.712   1.294 -1.2874 -0.7603 -0.8249
19910TIP3    H281146   1.524   2.845   1.223  0.4727  0.2166  1.3964
19911TIP3   OH281147   5.068   2.997  12.026 -0.5045 -0.1796  0.0194
19911TIP3    H181148   5.058   3.091  12.014 -1.3895 -0.3197 -0.4373
19911TIP3    H281149   5.156   2.978  11.994 -0.4611  0.4359 -0.2339
19912TIP3   OH281150   0.381   5.994  16.358 -0.4665 -0.7017 -0.3492
19912TIP3    H181151   0.329   5.980  16.437 -0.2664  1.7521  0.2998
19912TIP3    H281152   0.471   5.977  16.385 -0.2702  1.1576  0.3192
19913TIP3   OH281153   2.457   1.580  16.051 -0.1119  0.2785  0.0766
19913TIP3    H181154   2.547   1.548  16.056 -0.1356  0.2189  0.1160
19913TIP3    H281155   2.429   1.561  15.961  0.4967  1.8371 -0.4796
19914TIP3   OH281156   5.685   3.312  13.726 -0.3718  0.0069 -0.4568
19914TIP3    H181157   5.708   3.255  13.652  2.8724  1.2960 -0.5983
19914TIP3    H281158   5.628   3.379  13.688 -1.8593 -1.4486 -0.9041
19915TIP3   OH281159   6.540   0.917   3.094  0.6392 -0.1190 -0.0471
19915TIP3    H181160   6.560   0.825   3.107  0.0510 -0.2790 -0.2496
19915TIP3    H281161   6.573   0.960   3.173 -0.1955 -0.6743  0.6240
19916TIP3   OH281162   3.716   1.977  14.377  0.1370 -0.5339  0.0547
19916TIP3    H181163   3.755   2.064  14.377  0.8286 -0.8380  0.4626
19916TIP3    H281164   3.678   1.967  14.464  0.4860 -0.8288  0.1737
19917TIP3   OH281165   6.226   2.412  10.881 -0.0493  0.6175 -0.1300
19917TIP3    H181166   6.182   2.487  10.841 -1.0612  0.6956  1.0787
19917TIP3    H281167   6.309   2.405  10.833 -0.0762  2.2865 -0.4976
19918TIP3   OH281168   0.433   1.745   4.265  0.5438  0.9858 -0.0275
19918TIP3    H181169   0.460   1.789   4.185 -0.4311  2.3025  0.3425
19918TIP3    H281170   0.377   1.673   4.235  0.8103  0.9977 -0.5582
19919TIP3   OH281171   4.220   6.605   4.061  0.4719  0.2121  0.2312
19919TIP3    H181172   4.199   6.532   4.119 -0.5074 -0.2368 -0.6451
19919TIP3    H281173   4.240   6.563   3.977 -1.4179  0.9699 -0.6640
19920TIP3   OH281174   6.014   0.267  13.277  0.1108  0.0626  0.6034
19920TIP3    H181175   5.957   0.239  13.348 -0.2822 -0.7511 -0.0215
19920TIP3    H281176   5.987   0.215  13.201 -0.2110  1.6617 -0.4404
19921TIP3   OH281177   4.494   1.065   4.630 -0.3143 -0.4094  0.2668
19921TIP3    H181178   4.565   1.055   4.693 -1.5738  0.9503  2.0017
19921TIP3    H281179   4.416   1.033   4.675 -1.1954  0.2750 -0.7187
19922TIP3   OH281180   6.275   6.674   1.863 -0.0899 -0.5963  0.0705
19922TIP3    H181181   6.253   6.746   1.804  1.8744  0.4243  0.5178
19922TIP3    H281182   6.232   6.697   1.945 -0.3400 -0.4815 -0.0903
19923TIP3   OH281183   4.458   4.949   0.547  0.2692  0.5543  0.0962
19923TIP3    H181184   4.548   4.919   0.532 -0.3819 -2.1187  0.9187
19923TIP3    H281185   4.406   4.903   0.481 -0.8865 -0.7331  1.8204
19924TIP3   OH281186   6.187   5.350  12.498  0.4232  0.8388  0.8455
19924TIP3    H181187   6.152   5.365  12.410  0.3024 -0.4157  0.6524
19924TIP3    H281188   6.269   5.399  12.500  0.6814  0.4835 -0.1511
19925TIP3   OH281189   5.593   5.470   3.220  0.2785  0.1125  0.3532
19925TIP3    H181190   5.688   5.460   3.217  0.0831 -2.4573  0.4398
19925TIP3    H281191   5.567   5.484   3.129  0.6450 -0.4230  0.1650
19926TIP3   OH281192   0.298   6.403  15.386  0.5442 -0.3088  0.5582
19926TIP3    H181193   0.207   6.376  15.397  0.8358 -1.2606  0.7550
19926TIP3    H281194   0.314   6.400  15.292  0.2829  0.1892  0.4947
19927TIP3   OH281195   2.752   0.241   3.518 -0.1792 -0.0455 -0.2427
19927TIP3    H181196   2.825   0.282   3.472  0.3729 -0.4522  0.2445
19927TIP3    H281197   2.677   0.254   3.461 -0.0168  1.5625 -0.1447
19928TIP3   OH281198   0.227   2.988  16.047 -0.2784 -0.1018 -0.1403
19928TIP3    H181199   0.252   3.078  16.070 -0.4424 -0.0519 -0.1578
19928TIP3    H281200   0.163   2.963  16.114  0.1167 -0.3762  0.1474
19929TIP3   OH281201   5.852   4.087  12.383 -0.2571  0.3005 -0.8962
19929TIP3    H181202   5.848   4.119  12.292  2.0125  2.3284 -0.3697
19929TIP3    H281203   5.891   4.000  12.375  0.8559  0.8515 -1.8230
19930TIP3   OH281204   2.204   1.323   6.003  0.6757  0.4221 -0.2358
19930TIP3    H181205   2.265   1.318   5.929 -1.2218 -1.0395 -1.8340
19930TIP3    H281206   2.235   1.397   6.055  2.6303  0.9452 -1.9899
19931TIP3   OH281207   4.833   2.656   4.188  0.1101  0.1858  0.3299
19931TIP3    H181208   4.854   2.721   4.255 -1.4683  0.1724  0.8732
19931TIP3    H281209   4.764   2.603   4.227 -1.1704  0.4504 -1.4712
19932TIP3   OH281210   2.535   4.523   2.249 -0.2191 -0.8814 -0.6257
19932TIP3    H181211   2.473   4.531   2.177  0.1035 -1.3633 -0.9640
19932TIP3    H281212   2.581   4.440   2.232 -1.6248 -2.1429  1.3029
19933TIP3   OH281213   4.800   1.829   2.407 -0.2919 -0.2988  0.0197
19933TIP3    H181214   4.777   1.756   2.465  1.2546 -2.3642 -1.7968
19933TIP3    H281215   4.871   1.873   2.453 -1.5914  0.4764  1.3873
19934TIP3   OH281216   2.393   5.091   3.709 -0.1637 -0.5001  0.2048
19934TIP3    H181217   2.484   5.103   3.684 -0.1400 -0.4224  0.3259
19934TIP3    H281218   2.377   4.997   3.698 -0.1239 -0.4837  0.0048
19935TIP3   OH281219   2.923   3.823  10.626  0.0778 -0.3401 -0.0537
19935TIP3    H181220   2.961   3.911  10.627  1.1974 -0.7709 -1.5774
19935TIP3    H281221   2.829   3.837  10.627  0.1363  0.7754  3.2349
19936TIP3   OH281222   2.885   5.113  15.535  0.3722 -0.0601 -0.3746
19936TIP3    H181223   2.916   5.030  15.499  2.4760  0.2757  0.5489
19936TIP3    H281224   2.864   5.166  15.458  0.1010 -1.0252 -0.9897
19937TIP3   OH281225   1.246   5.471  16.824  0.1463  0.0204  0.5236
19937TIP3    H181226   1.199   5.395  16.857  0.5358 -0.1212  0.7556
19937TIP3    H281227   1.335   5.461  16.857  0.3106  0.3529  0.1963
19938TIP3   OH281228   1.742   1.256   6.202  0.4210  0.5351  0.1215
19938TIP3    H181229   1.823   1.206   6.211 -0.8872 -1.5360  1.3079
19938TIP3    H281230   1.700   1.220   6.124 -0.8677 -0.8537  1.3866
19939TIP3   OH281231   2.530   4.644   4.729 -0.2893 -0.2635  0.0520
19939TIP3    H181232   2.596   4.680   4.788 -0.1355  0.9663 -0.8567
19939TIP3    H281233   2.496   4.568   4.777  1.2639 -0.5121  0.8369
19940TIP3   OH281234   1.089   5.889   3.008  0.3835  0.0134 -1.0909
19940TIP3    H181235   1.054   5.819   3.062  2.9799 -0.3267  0.3436
19940TIP3    H281236   1.105   5.848   2.922  2.1098 -1.3202 -0.1989
19941TIP3   OH281237   2.295   0.946   2.246  0.0904  0.3745  0.5873
19941TIP3    H181238   2.221   1.000   2.220 -1.5125 -1.9116  0.0878
19941TIP3    H281239   2.368   0.977   2.193 -1.4800  0.2309 -1.7891
19942TIP3   OH281240   2.445   4.103   3.576 -0.3173 -0.0427  0.4475
19942TIP3    H181241   2.415   4.096   3.485  1.7904  0.5377 -0.3560
19942TIP3    H281242   2.475   4.016   3.598  0.5193  0.1395  0.0584
19943TIP3   OH281243   4.219   5.940  15.354 -0.1367 -0.3380  0.1249
19943TIP3    H181244   4.141   5.888  15.335 -1.6035  2.1543 -1.3855
19943TIP3    H281245   4.193   5.995  15.428  0.2160  0.3610 -0.2569
19944TIP3   OH281246   3.579   3.121   5.852 -0.0915 -0.4861  0.1509
19944TIP3    H181247   3.587   3.083   5.939  0.6410 -1.4981 -0.3382
19944TIP3    H281248   3.491   3.157   5.849 -0.0359 -0.2099  1.3923
19945TIP3   OH281249   0.590   6.065   5.712  0.6650  0.1118 -0.5075
19945TIP3    H181250   0.630   6.112   5.784 -0.6026  0.8291 -0.2388
19945TIP3    H281251   0.508   6.112   5.695 -0.4169 -1.6828 -0.5605
19946TIP3   OH281252   5.364   5.113  12.446 -0.6966 -0.0983  0.2387
19946TIP3    H181253   5.344   5.090  12.355 -0.9799 -0.8414  0.4828
19946TIP3    H281254   5.279   5.128  12.486 -0.5140  3.0519 -0.2935
19947TIP3   OH281255   0.312   0.835  15.751  0.3093  0.3655  0.3985
19947TIP3    H181256   0.393   0.885  15.741  0.9746 -0.1874  2.4490
19947TIP3    H281257   0.250   0.877  15.691  1.7814  1.5156 -0.3902
19948TIP3   OH281258   0.277   3.091  11.457 -0.1306 -0.4464  0.1144
19948TIP3    H181259   0.303   3.035  11.384  1.7195  0.2237  0.2148
19948TIP3    H281260   0.254   3.174  11.416  1.0027 -0.0390  0.2785
19949TIP3   OH281261   4.763   2.787  14.351 -0.2908  0.5175 -0.2954
19949TIP3    H181262   4.849   2.816  14.382 -0.7361  1.1493  0.3701
19949TIP3    H281263   4.718   2.868  14.325 -0.3726  0.1171 -1.4984
19950TIP3   OH281264   1.443   4.021   5.898  0.4064  0.6171  0.2204
19950TIP3    H181265   1.385   3.945   5.894  0.5745  0.5333 -0.8814
19950TIP3    H281266   1.476   4.020   5.988 -2.1221  1.3333  1.2320
19951TIP3   OH281267   6.710   6.034  16.417  0.8099  0.4460 -0.3690
19951TIP3    H181268   6.616   6.049  16.425  0.3621 -2.4533  1.0722
19951TIP3    H281269   6.717   5.951  16.371  2.8254  1.7906 -2.7109
19952TIP3   OH281270   2.822   1.903   3.278  0.1689  0.0813  0.9072
19952TIP3    H181271   2.910   1.929   3.250 -1.1286  2.5128 -1.2765
19952TIP3    H281272   2.796   1.835   3.217  0.5106 -0.6753  1.5857
19953TIP3   OH281273   6.753   0.273  15.968 -0.0524  0.2790 -0.5130
19953TIP3    H181274   6.756   0.279  16.064 -0.2728  0.2826 -0.5069
19953TIP3    H281275   6.759   0.179  15.950  0.5918  0.3141 -0.5195
19954TIP3   OH281276   2.319   3.458   0.704  0.0519 -0.2665 -0.4717
19954TIP3    H181277   2.368   3.436   0.625  0.2914  0.4287 -0.5197
19954TIP3    H281278   2.385   3.462   0.773  0.0475  0.5525 -0.5135
19955TIP3   OH281279   0.140   2.375  11.731  0.1619 -0.0603  1.0288
19955TIP3    H181280   0.213   2.315  11.719  0.4389  0.2858  0.9336
19955TIP3    H281281   0.159   2.421  11.813 -0.2647 -0.4038  1.3180
19956TIP3   OH281282   3.802   2.842   5.428 -0.0430  0.7423  0.0639
19956TIP3    H181283   3.770   2.835   5.518 -1.4732 -0.5722 -0.4880
19956TIP3    H281284   3.738   2.792   5.376  2.3263 -1.0498 -1.3128
19957TIP3   OH281285   1.248   2.834  12.572  0.7501 -0.2968  0.6436
19957TIP3    H181286   1.292   2.860  12.491  0.2055  0.6810  0.6438
19957TIP3    H281287   1.304   2.867  12.642 -0.3238  1.6953  0.6494
19958TIP3   OH281288   0.070   5.000   0.016  0.1916 -0.1020  0.5239
19958TIP3    H181289  -0.015   5.037   0.040  0.1665 -0.4387  0.9702
19958TIP3    H281290   0.120   5.000   0.097  0.6898  0.2674  0.2248
19959TIP3   OH281291   3.984   3.866   5.327 -0.3723 -0.4134 -0.7023
19959TIP3    H181292   3.961   3.956   5.302  0.4776  0.1570  0.4884
19959TIP3    H281293   4.023   3.875   5.414 -0.6593 -1.9948 -0.3862
19960TIP3   OH281294   6.013   2.937  13.347 -0.4525  0.0700 -0.1844
19960TIP3    H181295   5.949   3.005  13.326 -0.2833  0.5894  0.9361
19960TIP3    H281296   6.024   2.888  13.265 -2.0530  0.1472 -0.4673
19961TIP3   OH281297   1.025   2.965  12.159  0.2342 -0.9342 -0.3552
19961TIP3    H181298   1.022   3.050  12.203  1.6766 -0.8583 -0.3356
19961TIP3    H281299   0.979   2.905  12.219 -0.1360 -0.3164 -0.0154
19962TIP3   OH281300   2.977   2.967   1.239 -0.2933  0.0087  0.2782
19962TIP3    H181301   3.026   2.908   1.296 -0.1866 -0.0872  0.0877
19962TIP3    H281302   2.977   2.924   1.154 -0.7267 -0.0042  0.2804
19963TIP3   OH281303   4.278   2.522   3.481  0.8525  0.3897  0.1018
19963TIP3    H181304   4.182   2.517   3.481  0.8394 -0.3571  2.2570
19963TIP3    H281305   4.298   2.608   3.443 -0.5595 -0.1057 -1.9619
19964TIP3   OH281306   5.335   6.144  13.508 -0.4107 -0.3074  0.2301
19964TIP3    H181307   5.357   6.183  13.423 -1.0955 -2.6689 -1.1329
19964TIP3    H281308   5.280   6.209  13.551 -0.7443  0.6104 -1.5027
19965TIP3   OH281309   5.318   2.940  16.358 -0.0549  0.5195 -0.2920
19965TIP3    H181310   5.321   2.905  16.269 -1.3425  2.0247 -0.9763
19965TIP3    H281311   5.373   3.019  16.354  0.8134 -0.0128  0.5788
19966LIG      S81312   3.321   2.979  14.558 -0.1859 -0.3898  0.3207
19966LIG     N181313   3.480   3.532  14.228  0.1100 -0.3554  0.3261
19966LIG     N281314   3.535   3.506  13.939 -0.7572  0.3406  0.6013
19966LIG     N381315   3.463   3.169  14.402 -0.2050  0.0948  0.2706
19966LIG     C181316   3.465   3.430  14.345 -0.2544  0.3204 -0.3804
19966LIG     C281317   3.378   3.555  14.125 -0.7171 -0.0067  0.2151
19966LIG     C381318   3.620   3.555  14.167 -0.2074 -0.9261 -0.8733
19966LIG     C481319   3.400   3.473  13.997  0.2904 -0.8079 -0.0763
19966LIG     C581320   3.642   3.477  14.036  0.3784  0.4819 -0.4447
19966LIG     C681321   3.493   3.281  14.310 -0.4913 -0.2343 -0.4832
19966LIG     C781322   3.325   3.445  14.416 -0.2020 -0.5604 -0.5017
19966LIG     C881323   3.543   3.637  13.882 -1.3165 -0.6581  0.0621
19966LIG     C981324   3.462   3.047  14.342 -0.1658  0.3922  0.7682
19966LIG    C1081325   3.512   3.164  14.538  0.0849  0.2683  0.0279
19966LIG    C1181326   3.632   3.635  13.760  0.2314  0.2051  0.4502
19966LIG    C1281327   3.394   2.939  14.405  0.1300  0.7798  0.7635
19966LIG    C1381328   3.452   3.075  14.625 -0.5993  0.1616  0.4017
19966LIG    C1481329   3.543   3.015  14.230 -0.8652 -0.4441 -0.1480
19966LIG    C1581330   3.631   3.218  14.578  0.4443 -0.3186 -0.2335
19966LIG    C1681331   3.406   2.803  14.362 -0.2880 -0.0365  0.4333
19966LIG    C1781332   3.513   3.034  14.744  0.3277 -0.0189 -0.2572
19966LIG    C1881333   3.552   2.885  14.188 -0.0487  0.0323 -0.1869
19966LIG    C1981334   3.687   3.193  14.703 -0.1530  0.1158  0.0171
19966LIG    C2081335   3.489   2.779  14.253 -0.3665  0.0522 -0.0253
19966LIG    C2181336   3.637   3.098  14.788 -0.2983 -0.2561  0.9910
19966LIG     H181337   3.543   3.464  14.416 -0.4955  1.5914 -0.7042
19966LIG     H281338   3.382   3.662  14.094 -1.0972  0.0005  0.1890
19966LIG     H381339   3.278   3.526  14.164 -0.6236  0.8128  1.1286
19966LIG     H481340   3.698   3.536  14.243  0.0341  1.3824 -0.4780
19966LIG     H581341   3.641   3.661  14.140 -1.2817 -0.0682  1.4184
19966LIG     H681342   3.376   3.365  14.003 -0.3254 -0.6156  1.1789
19966LIG     H781343   3.322   3.491  13.920  0.0188 -2.3901 -0.1929
19966LIG     H881344   3.741   3.497  13.989 -1.5152  2.1064 -4.1944
19966LIG     H981345   3.622   3.374  14.072 -1.2386 -0.1734 -3.0159
19966LIG    H1081346   3.429   3.260  14.221  0.4343  0.0567 -1.2410
19966LIG    H1181347   3.598   3.278  14.273  1.0536  1.8000  3.1878
19966LIG    H1281348   3.240   3.452  14.344  0.1440  0.5526 -0.8180
19966LIG    H1381349   3.335   3.543  14.468 -2.3165 -0.3488 -0.3863
19966LIG    H1481350   3.306   3.377  14.502  2.3651  1.4578  1.8432
19966LIG    H1581351   3.578   3.708  13.960  1.0897 -1.8042  0.0901
19966LIG    H1681352   3.440   3.670  13.855 -1.7358 -1.9096  0.0611
19966LIG    H1781353   3.636   3.734  13.711 -0.5921  0.6254  1.2023
19966LIG    H1881354   3.595   3.563  13.684  1.2932  0.8800 -0.7367
19966LIG    H1981355   3.738   3.604  13.772  0.1543  0.2599  1.3234
19966LIG    H2081356   3.597   3.098  14.186 -1.1474  1.6350  3.0797
19966LIG    H2181357   3.678   3.294  14.517  1.3414  0.6249  1.5539
19966LIG    H2281358   3.358   2.722  14.415  0.1716 -0.7237 -0.1601
19966LIG    H2381359   3.470   2.957  14.806  0.9861  1.6611  2.4655
19966LIG    H2481360   3.616   2.862  14.104  0.5887  2.6575 -0.4993
19966LIG    H2581361   3.780   3.243  14.725 -1.6732  2.7942  0.8825
19966LIG    H2681362   3.504   2.676  14.225  0.2810 -0.1363  0.9867
19966LIG    H2781363   3.672   3.067  14.885 -1.9745  0.5484  1.8952
   6.78029   6.78029  17.27555
